                               Psi4 1.4a3.dev225

  ==> Input File <==

--------------------------------------------------------------------------
#psi4
#
memory 32 gb

molecule  {
0 1
  O       -2.3041980    -1.0991920    -0.0000450
  O       -2.3377760     1.1635870    -0.0002980
  C       -0.2184880     0.0275040    -0.0000190
  C        0.5080600     1.2243720    -0.0001140
  C        0.4460610    -1.2054670     0.0001810
  C        1.9006990     1.1869660    -0.0000100
  C        1.8403900    -1.2323150     0.0002850
  C        2.5692320    -0.0403680     0.0001900
  C       -1.6780104     0.1663039    -0.0001393
  H       -0.0325870     2.1666660    -0.0002690
  H       -0.1251250    -2.1284350     0.0002540
  H        2.4666520     2.1151670    -0.0000840
  H        2.3606240    -2.1869430     0.0004410
  H        3.6562990    -0.0679320     0.0002710
  H       -3.2646810    -0.9067680    -0.0001340
units angstrom
no_reorient  #important for SAPT in psi4, default
symmetry c1  #important for SAPT in psi4, default
}

set PROPERTIES_ORIGIN ["COM"]
properties('MP2/aug-cc-pvtz', properties = ['dipole'])
--------------------------------------------------------------------------

    Molecular point group: c1
  Charge       = 0
  Multiplicity = 1
  Basis Set: AUG-CC-PVTZ
    Blend: AUG-CC-PVTZ
  Basis Set: (AUG-CC-PVTZ AUX)
    Blend: AUG-CC-PVTZ-JKFIT

    Orbital Energies [Eh]
    ---------------------

    Doubly Occupied:

       1A    -20.602105     2A    -20.556686     3A    -11.392870
       4A    -11.261607     5A    -11.261022     6A    -11.259344
       7A    -11.257708     8A    -11.251477     9A    -11.250494
      10A     -1.452462    11A     -1.356349    12A     -1.173015
      13A     -1.054360    14A     -1.033070    15A     -0.898673
      16A     -0.846909    17A     -0.793883    18A     -0.727833
      19A     -0.701464    20A     -0.675306    21A     -0.642262
      22A     -0.627428    23A     -0.624636    24A     -0.606791
      25A     -0.589960    26A     -0.531029    27A     -0.518756
      28A     -0.510977    29A     -0.489683    30A     -0.459487
      31A     -0.358722    32A     -0.352612

  @DF-RHF Final Energy:  -418.47045210252662

   => Energetics <=

    Nuclear Repulsion Energy =            404.3536628781641298
    One-Electron Energy =               -1371.4102664369720515
    Two-Electron Energy =                 548.5861514562812999
    Total Energy =                       -418.4704521025265649
  Basis Set: (AUG-CC-PVTZ AUX)
    Blend: AUG-CC-PVTZ-RI
    Molecular point group: c1

    Geometry (in Angstrom), charge = 0, multiplicity = 1:

       Center              X                  Y                   Z               Mass
    ------------   -----------------  -----------------  -----------------  -----------------
         O           -2.265423880378    -1.111793191087    -0.000040746303    15.994914619570
         O           -2.299001880378     1.150985808913    -0.000293746303    15.994914619570
         C           -0.179713880378     0.014902808913    -0.000014746303    12.000000000000
         C            0.546834119622     1.211770808913    -0.000109746303    12.000000000000
         C            0.484835119622    -1.218068191087     0.000185253697    12.000000000000
         C            1.939473119622     1.174364808913    -0.000005746303    12.000000000000
         C            1.879164119622    -1.244916191087     0.000289253697    12.000000000000
         C            2.608006119622    -0.052969191087     0.000194253697    12.000000000000
         C           -1.639236280378     0.153702708913    -0.000135046303    12.000000000000
         H            0.006187119622     2.154064808913    -0.000264746303     1.007825032230
         H           -0.086350880378    -2.141036191087     0.000258253697     1.007825032230
         H            2.505426119622     2.102565808913    -0.000079746303     1.007825032230
         H            2.399398119622    -2.199544191087     0.000445253697     1.007825032230
         H            3.695073119622    -0.080533191087     0.000275253697     1.007825032230
         H           -3.225906880378    -0.919369191087    -0.000129746303     1.007825032230

  Basis Set: AUG-CC-PVTZ
    Blend: AUG-CC-PVTZ
  Basis Set: (AUG-CC-PVTZ AUX)
    Blend: AUG-CC-PVTZ-JKFIT
	 Reference Energy          =    -418.4704521025266217 [Eh]
	 Singles Energy            =      -0.0000000000000000 [Eh]
	 Same-Spin Energy          =      -0.4347864655691206 [Eh]
	 Opposite-Spin Energy      =      -1.3155532610553222 [Eh]
	 Correlation Energy        =      -1.7503397266244427 [Eh]
	 Total Energy              =    -420.2207918291510396 [Eh]

	 ================> DF-SCS-MP2 Energies <==================
	-----------------------------------------------------------
	 SCS Same-Spin Scale       =       0.3333333333333333 [-]
	 SCS Opposite-Spin Scale   =       1.2000000000000000 [-]
	 SCS Same-Spin Energy      =      -0.1449288218563735 [Eh]
	 SCS Opposite-Spin Energy  =      -1.5786639132663867 [Eh]
	 SCS Correlation Energy    =      -1.7235927351227602 [Eh]
	 SCS Total Energy          =    -420.1940448376493578 [Eh]
	-----------------------------------------------------------

  Dipole Moment: [D]
     X:     1.7278      Y:    -0.9726      Z:     0.0002     Total:     1.9827

*** Psi4 exiting successfully. Buy a developer a beer!
