                               Psi4 1.4a3.dev225

  ==> Input File <==

--------------------------------------------------------------------------
#psi4
#
memory 32 gb

molecule  {
0 1
  O       -2.3041980    -1.0991920    -0.0000450
  O       -2.3377760     1.1635870    -0.0002980
  C       -0.2184880     0.0275040    -0.0000190
  C        0.5080600     1.2243720    -0.0001140
  C        0.4460610    -1.2054670     0.0001810
  C        1.9006990     1.1869660    -0.0000100
  C        1.8403900    -1.2323150     0.0002850
  C        2.5692320    -0.0403680     0.0001900
  C       -1.7201449     0.1227561    -0.0001376
  H       -0.0325870     2.1666660    -0.0002690
  H       -0.1251250    -2.1284350     0.0002540
  H        2.4666520     2.1151670    -0.0000840
  H        2.3606240    -2.1869430     0.0004410
  H        3.6562990    -0.0679320     0.0002710
  H       -3.2646810    -0.9067680    -0.0001340
units angstrom
no_reorient  #important for SAPT in psi4, default
symmetry c1  #important for SAPT in psi4, default
}

set PROPERTIES_ORIGIN ["COM"]
properties('MP2/aug-cc-pvtz', properties = ['dipole'])
--------------------------------------------------------------------------

    Molecular point group: c1
  Charge       = 0
  Multiplicity = 1
  Basis Set: AUG-CC-PVTZ
    Blend: AUG-CC-PVTZ
  Basis Set: (AUG-CC-PVTZ AUX)
    Blend: AUG-CC-PVTZ-JKFIT

    Orbital Energies [Eh]
    ---------------------

    Doubly Occupied:

       1A    -20.619868     2A    -20.551869     3A    -11.394384
       4A    -11.259006     5A    -11.257082     6A    -11.256997
       7A    -11.254006     8A    -11.248900     9A    -11.248083
      10A     -1.467372    11A     -1.364599    12A     -1.168492
      13A     -1.046917    14A     -1.029848    15A     -0.896759
      16A     -0.843216    17A     -0.801367    18A     -0.730897
      19A     -0.707700    20A     -0.676077    21A     -0.639889
      22A     -0.636865    23A     -0.627936    24A     -0.603905
      25A     -0.586974    26A     -0.527461    27A     -0.518408
      28A     -0.507575    29A     -0.488367    30A     -0.458338
      31A     -0.354831    32A     -0.349750

  @DF-RHF Final Energy:  -418.47378564306774

   => Energetics <=

    Nuclear Repulsion Energy =            404.1844736079310110
    One-Electron Energy =               -1371.0690496043214353
    Two-Electron Energy =                 548.4107903533225681
    Total Energy =                       -418.4737856430677994
  Basis Set: (AUG-CC-PVTZ AUX)
    Blend: AUG-CC-PVTZ-RI
    Molecular point group: c1

    Geometry (in Angstrom), charge = 0, multiplicity = 1:

       Center              X                  Y                   Z               Mass
    ------------   -----------------  -----------------  -----------------  -----------------
         O           -2.261280752361    -1.107511091851    -0.000040913465    15.994914619570
         O           -2.294858752361     1.155267908149    -0.000293913465    15.994914619570
         C           -0.175570752361     0.019184908149    -0.000014913465    12.000000000000
         C            0.550977247639     1.216052908149    -0.000109913465    12.000000000000
         C            0.488978247639    -1.213786091851     0.000185086535    12.000000000000
         C            1.943616247639     1.178646908149    -0.000005913465    12.000000000000
         C            1.883307247639    -1.240634091851     0.000289086535    12.000000000000
         C            2.612149247639    -0.048687091851     0.000194086535    12.000000000000
         C           -1.677227652361     0.114437008149    -0.000133513465    12.000000000000
         H            0.010330247639     2.158346908149    -0.000264913465     1.007825032230
         H           -0.082207752361    -2.136754091851     0.000258086535     1.007825032230
         H            2.509569247639     2.106847908149    -0.000079913465     1.007825032230
         H            2.403541247639    -2.195262091851     0.000445086535     1.007825032230
         H            3.699216247639    -0.076251091851     0.000275086535     1.007825032230
         H           -3.221763752361    -0.915087091851    -0.000129913465     1.007825032230

  Basis Set: AUG-CC-PVTZ
    Blend: AUG-CC-PVTZ
  Basis Set: (AUG-CC-PVTZ AUX)
    Blend: AUG-CC-PVTZ-JKFIT
	 Reference Energy          =    -418.4737856430677425 [Eh]
	 Singles Energy            =      -0.0000000000000000 [Eh]
	 Same-Spin Energy          =      -0.4345076787997462 [Eh]
	 Opposite-Spin Energy      =      -1.3145983565502011 [Eh]
	 Correlation Energy        =      -1.7491060353499472 [Eh]
	 Total Energy              =    -420.2228916784176818 [Eh]

	 ================> DF-SCS-MP2 Energies <==================
	-----------------------------------------------------------
	 SCS Same-Spin Scale       =       0.3333333333333333 [-]
	 SCS Opposite-Spin Scale   =       1.2000000000000000 [-]
	 SCS Same-Spin Energy      =      -0.1448358929332487 [Eh]
	 SCS Opposite-Spin Energy  =      -1.5775180278602412 [Eh]
	 SCS Correlation Energy    =      -1.7223539207934899 [Eh]
	 SCS Total Energy          =    -420.1961395638612089 [Eh]
	-----------------------------------------------------------

  Dipole Moment: [D]
     X:     1.2879      Y:    -1.3191      Z:     0.0002     Total:     1.8435

*** Psi4 exiting successfully. Buy a developer a beer!
