                               Psi4 1.4a3.dev225

  ==> Input File <==

--------------------------------------------------------------------------
#psi4
#
memory 32 gb

molecule  {
0 1
  O       -2.3041980    -1.0991920    -0.0000450
  O       -2.3377760     1.1635870    -0.0002980
  C       -0.2184880     0.0275040    -0.0000190
  C        0.5080600     1.2243720    -0.0001140
  C        0.4460610    -1.2054670     0.0001810
  C        1.9006990     1.1869660    -0.0000100
  C        1.8403900    -1.2323150     0.0002850
  C        2.5692320    -0.0403680     0.0001900
  C       -1.6897470     0.1044299    -0.0001333
  H       -0.0325870     2.1666660    -0.0002690
  H       -0.1251250    -2.1284350     0.0002540
  H        2.4666520     2.1151670    -0.0000840
  H        2.3606240    -2.1869430     0.0004410
  H        3.6562990    -0.0679320     0.0002710
  H       -3.2646810    -0.9067680    -0.0001340
units angstrom
no_reorient  #important for SAPT in psi4, default
symmetry c1  #important for SAPT in psi4, default
}

set PROPERTIES_ORIGIN ["COM"]
properties('MP2/aug-cc-pvtz', properties = ['dipole'])
--------------------------------------------------------------------------

    Molecular point group: c1
  Charge       = 0
  Multiplicity = 1
  Basis Set: AUG-CC-PVTZ
    Blend: AUG-CC-PVTZ
  Basis Set: (AUG-CC-PVTZ AUX)
    Blend: AUG-CC-PVTZ-JKFIT

    Orbital Energies [Eh]
    ---------------------

    Doubly Occupied:

       1A    -20.619968     2A    -20.545554     3A    -11.395378
       4A    -11.260500     5A    -11.260130     6A    -11.258926
       7A    -11.256942     8A    -11.250721     9A    -11.249912
      10A     -1.461557    11A     -1.345480    12A     -1.171790
      13A     -1.052842    14A     -1.032187    15A     -0.903064
      16A     -0.845936    17A     -0.803655    18A     -0.731970
      19A     -0.704630    20A     -0.676856    21A     -0.641197
      22A     -0.632924    23A     -0.626107    24A     -0.605135
      25A     -0.584715    26A     -0.527701    27A     -0.520361
      28A     -0.509415    29A     -0.478134    30A     -0.456155
      31A     -0.357167    32A     -0.351681

  @DF-RHF Final Energy:  -418.47087885037206

   => Energetics <=

    Nuclear Repulsion Energy =            404.2542060225234763
    One-Electron Energy =               -1371.2127927794217612
    Two-Electron Energy =                 548.4877079065262251
    Total Energy =                       -418.4708788503720598
  Basis Set: (AUG-CC-PVTZ AUX)
    Blend: AUG-CC-PVTZ-RI
    Molecular point group: c1

    Geometry (in Angstrom), charge = 0, multiplicity = 1:

       Center              X                  Y                   Z               Mass
    ------------   -----------------  -----------------  -----------------  -----------------
         O           -2.264269808625    -1.105709058062    -0.000041336289    15.994914619570
         O           -2.297847808625     1.157069941938    -0.000294336289    15.994914619570
         C           -0.178559808625     0.020986941938    -0.000015336289    12.000000000000
         C            0.547988191375     1.217854941938    -0.000110336289    12.000000000000
         C            0.485989191375    -1.211984058062     0.000184663711    12.000000000000
         C            1.940627191375     1.180448941938    -0.000006336289    12.000000000000
         C            1.880318191375    -1.238832058062     0.000288663711    12.000000000000
         C            2.609160191375    -0.046885058062     0.000193663711    12.000000000000
         C           -1.649818808625     0.097912841938    -0.000129636289    12.000000000000
         H            0.007341191375     2.160148941938    -0.000265336289     1.007825032230
         H           -0.085196808625    -2.134952058062     0.000257663711     1.007825032230
         H            2.506580191375     2.108649941938    -0.000080336289     1.007825032230
         H            2.400552191375    -2.193460058062     0.000444663711     1.007825032230
         H            3.696227191375    -0.074449058062     0.000274663711     1.007825032230
         H           -3.224752808625    -0.913285058062    -0.000130336289     1.007825032230

  Basis Set: AUG-CC-PVTZ
    Blend: AUG-CC-PVTZ
  Basis Set: (AUG-CC-PVTZ AUX)
    Blend: AUG-CC-PVTZ-JKFIT
	 Reference Energy          =    -418.4708788503720598 [Eh]
	 Singles Energy            =      -0.0000000000000000 [Eh]
	 Same-Spin Energy          =      -0.4352030189324109 [Eh]
	 Opposite-Spin Energy      =      -1.3160076514702697 [Eh]
	 Correlation Energy        =      -1.7512106704026806 [Eh]
	 Total Energy              =    -420.2220895207747162 [Eh]

	 ================> DF-SCS-MP2 Energies <==================
	-----------------------------------------------------------
	 SCS Same-Spin Scale       =       0.3333333333333333 [-]
	 SCS Opposite-Spin Scale   =       1.2000000000000000 [-]
	 SCS Same-Spin Energy      =      -0.1450676729774703 [Eh]
	 SCS Opposite-Spin Energy  =      -1.5792091817643235 [Eh]
	 SCS Correlation Energy    =      -1.7242768547417937 [Eh]
	 SCS Total Energy          =    -420.1951557051138479 [Eh]
	-----------------------------------------------------------

  Dipole Moment: [D]
     X:     1.5498      Y:    -1.4373      Z:     0.0003     Total:     2.1137

*** Psi4 exiting successfully. Buy a developer a beer!
