                               Psi4 1.3.2 release

  ==> Input File <==

--------------------------------------------------------------------------
#psi4
#
memory 32 gb

molecule  {
0 1
  O       -2.3042200    -1.0991630    -0.0003290
  O       -2.3010081     1.1852065     0.0000413
  C       -0.2184710     0.0274960    -0.0000150
  C        0.5080430     1.2243810    -0.0001580
  C        0.4461120    -1.2054740     0.0002260
  C        1.9006900     1.1869520    -0.0000810
  C        1.8404380    -1.2322990     0.0003120
  C        2.5692530    -0.0403490     0.0001580
  C       -1.7002410     0.1214410    -0.0000850
  H       -0.0326500     2.1666470    -0.0003250
  H       -0.1251480    -2.1283920     0.0003360
  H        2.4665660     2.1152060    -0.0002030
  H        2.3606420    -2.1869500     0.0005070
  H        3.6563130    -0.0679050     0.0002230
  H       -3.2647750    -0.9069250    -0.0003290
units angstrom
no_reorient  #important for SAPT in psi4, default
symmetry c1  #important for SAPT in psi4, default
}

set PROPERTIES_ORIGIN ["COM"]
properties('MP2/aug-cc-pvtz', properties = ['dipole'])
--------------------------------------------------------------------------

    Molecular point group: c1
  Charge       = 0
  Multiplicity = 1
  Basis Set: AUG-CC-PVTZ
    Blend: AUG-CC-PVTZ
  Basis Set: (AUG-CC-PVTZ AUX)
    Blend: AUG-CC-PVTZ-JKFIT

    Orbital Energies [Eh]
    ---------------------

    Doubly Occupied:

       1A    -20.620855     2A    -20.550647     3A    -11.395101
       4A    -11.258216     5A    -11.257812     6A    -11.256868
       7A    -11.254309     8A    -11.249062     9A    -11.248182
      10A     -1.461489    11A     -1.359540    12A     -1.169283
      13A     -1.049221    14A     -1.030195    15A     -0.899264
      16A     -0.843925    17A     -0.801141    18A     -0.730686
      19A     -0.706982    20A     -0.675426    21A     -0.639932
      22A     -0.633966    23A     -0.626637    24A     -0.604196
      25A     -0.586865    26A     -0.526903    27A     -0.518973
      28A     -0.507691    29A     -0.485879    30A     -0.458267
      31A     -0.355110    32A     -0.349904

  @DF-RHF Final Energy:  -418.47229697280522

   => Energetics <=

    Nuclear Repulsion Energy =            404.4564016170746186
    One-Electron Energy =               -1371.6323435765007162
    Two-Electron Energy =                 548.7036449866209296
    Total Energy =                       -418.4722969728052249
  Basis Set: (AUG-CC-PVTZ AUX)
    Blend: AUG-CC-PVTZ-RI
    Molecular point group: c1

    Geometry (in Angstrom), charge = 0, multiplicity = 1:

       Center              X                  Y                   Z               Mass
    ------------   -----------------  -----------------  -----------------  -----------------
         O           -2.268085056072    -1.110191030350    -0.000328122383    15.994914619570
         O           -2.264873156072     1.174178469650     0.000042177617    15.994914619570
         C           -0.182336056072     0.016467969650    -0.000014122383    12.000000000000
         C            0.544177943928     1.213352969650    -0.000157122383    12.000000000000
         C            0.482246943928    -1.216502030350     0.000226877617    12.000000000000
         C            1.936824943928     1.175923969650    -0.000080122383    12.000000000000
         C            1.876572943928    -1.243327030350     0.000312877617    12.000000000000
         C            2.605387943928    -0.051377030350     0.000158877617    12.000000000000
         C           -1.664106056072     0.110412969650    -0.000084122383    12.000000000000
         H            0.003484943928     2.155618969650    -0.000324122383     1.007825032230
         H           -0.089013056072    -2.139420030350     0.000336877617     1.007825032230
         H            2.502700943928     2.104177969650    -0.000202122383     1.007825032230
         H            2.396776943928    -2.197978030350     0.000507877617     1.007825032230
         H            3.692447943928    -0.078933030350     0.000223877617     1.007825032230
         H           -3.228640056072    -0.917953030350    -0.000328122383     1.007825032230

  Basis Set: AUG-CC-PVTZ
    Blend: AUG-CC-PVTZ
  Basis Set: (AUG-CC-PVTZ AUX)
    Blend: AUG-CC-PVTZ-JKFIT
	 Reference Energy          =    -418.4722969728052249 [Eh]
	 Singles Energy            =      -0.0000000000000000 [Eh]
	 Same-Spin Energy          =      -0.4349618682833074 [Eh]
	 Opposite-Spin Energy      =      -1.3155474552252411 [Eh]
	 Correlation Energy        =      -1.7505093235085485 [Eh]
	 Total Energy              =    -420.2228062963137631 [Eh]

	 ================> DF-SCS-MP2 Energies <==================
	-----------------------------------------------------------
	 SCS Same-Spin Scale       =       0.3333333333333333 [-]
	 SCS Opposite-Spin Scale   =       1.2000000000000000 [-]
	 SCS Same-Spin Energy      =      -0.1449872894277691 [Eh]
	 SCS Opposite-Spin Energy  =      -1.5786569462702893 [Eh]
	 SCS Correlation Energy    =      -1.7236442356980584 [Eh]
	 SCS Total Energy          =    -420.1959412085032568 [Eh]
	-----------------------------------------------------------

  Dipole Moment: [D]
     X:     1.3158      Y:    -1.3561      Z:    -0.0001     Total:     1.8896

*** Psi4 exiting successfully. Buy a developer a beer!
