                               Psi4 1.4a3.dev225

  ==> Input File <==

--------------------------------------------------------------------------
#psi4
#
memory 32 gb

molecule  {
0 1
  O       -2.3041980    -1.0991920    -0.0000450
  O       -2.3377760     1.1635870    -0.0002980
  C       -0.2184880     0.0275040    -0.0000190
  C        0.5080600     1.2243720    -0.0001140
  C        0.4460610    -1.2054670     0.0001810
  C        1.9006990     1.1869660    -0.0000100
  C        1.8403900    -1.2323150     0.0002850
  C        2.5692320    -0.0403680     0.0001900
  C       -1.7223596     0.0766761    -0.0001327
  H       -0.0325870     2.1666660    -0.0002690
  H       -0.1251250    -2.1284350     0.0002540
  H        2.4666520     2.1151670    -0.0000840
  H        2.3606240    -2.1869430     0.0004410
  H        3.6562990    -0.0679320     0.0002710
  H       -3.2646810    -0.9067680    -0.0001340
units angstrom
no_reorient  #important for SAPT in psi4, default
symmetry c1  #important for SAPT in psi4, default
}

set PROPERTIES_ORIGIN ["COM"]
properties('MP2/aug-cc-pvtz', properties = ['dipole'])
--------------------------------------------------------------------------

    Molecular point group: c1
  Charge       = 0
  Multiplicity = 1
  Basis Set: AUG-CC-PVTZ
    Blend: AUG-CC-PVTZ
  Basis Set: (AUG-CC-PVTZ AUX)
    Blend: AUG-CC-PVTZ-JKFIT

    Orbital Energies [Eh]
    ---------------------

    Doubly Occupied:

       1A    -20.631947     2A    -20.542826     3A    -11.396546
       4A    -11.259257     5A    -11.257063     6A    -11.256912
       7A    -11.254116     8A    -11.248809     9A    -11.248099
      10A     -1.482297    11A     -1.345467    12A     -1.168400
      13A     -1.047298    14A     -1.029699    15A     -0.903260
      16A     -0.842980    17A     -0.809577    18A     -0.734567
      19A     -0.710342    20A     -0.677839    21A     -0.645564
      22A     -0.638806    23A     -0.626107    24A     -0.602860
      25A     -0.581478    26A     -0.524665    27A     -0.519148
      28A     -0.506974    29A     -0.476468    30A     -0.453726
      31A     -0.354446    32A     -0.349477

  @DF-RHF Final Energy:  -418.46936633300237

   => Energetics <=

    Nuclear Repulsion Energy =            404.1561714169894231
    One-Electron Energy =               -1370.9970359795638615
    Two-Electron Energy =                 548.3714982295720120
    Total Energy =                       -418.4693663330024265
  Basis Set: (AUG-CC-PVTZ AUX)
    Blend: AUG-CC-PVTZ-RI
    Molecular point group: c1

    Geometry (in Angstrom), charge = 0, multiplicity = 1:

       Center              X                  Y                   Z               Mass
    ------------   -----------------  -----------------  -----------------  -----------------
         O           -2.261062978669    -1.102979998827    -0.000041395287    15.994914619570
         O           -2.294640978669     1.159799001173    -0.000294395287    15.994914619570
         C           -0.175352978669     0.023716001173    -0.000015395287    12.000000000000
         C            0.551195021331     1.220584001173    -0.000110395287    12.000000000000
         C            0.489196021331    -1.209254998827     0.000184604713    12.000000000000
         C            1.943834021331     1.183178001173    -0.000006395287    12.000000000000
         C            1.883525021331    -1.236102998827     0.000288604713    12.000000000000
         C            2.612367021331    -0.044155998827     0.000193604713    12.000000000000
         C           -1.679224578669     0.072888101173    -0.000129095287    12.000000000000
         H            0.010548021331     2.162878001173    -0.000265395287     1.007825032230
         H           -0.081989978669    -2.132222998827     0.000257604713     1.007825032230
         H            2.509787021331     2.111379001173    -0.000080395287     1.007825032230
         H            2.403759021331    -2.190730998827     0.000444604713     1.007825032230
         H            3.699434021331    -0.071719998827     0.000274604713     1.007825032230
         H           -3.221545978669    -0.910555998827    -0.000130395287     1.007825032230

  Basis Set: AUG-CC-PVTZ
    Blend: AUG-CC-PVTZ
  Basis Set: (AUG-CC-PVTZ AUX)
    Blend: AUG-CC-PVTZ-JKFIT
	 Reference Energy          =    -418.4693663330023696 [Eh]
	 Singles Energy            =      -0.0000000000000000 [Eh]
	 Same-Spin Energy          =      -0.4350215931871620 [Eh]
	 Opposite-Spin Energy      =      -1.3153409549289306 [Eh]
	 Correlation Energy        =      -1.7503625481160925 [Eh]
	 Total Energy              =    -420.2197288811184421 [Eh]

	 ================> DF-SCS-MP2 Energies <==================
	-----------------------------------------------------------
	 SCS Same-Spin Scale       =       0.3333333333333333 [-]
	 SCS Opposite-Spin Scale   =       1.2000000000000000 [-]
	 SCS Same-Spin Energy      =      -0.1450071977290540 [Eh]
	 SCS Opposite-Spin Energy  =      -1.5784091459147167 [Eh]
	 SCS Correlation Energy    =      -1.7234163436437706 [Eh]
	 SCS Total Energy          =    -420.1927826766461180 [Eh]
	-----------------------------------------------------------

  Dipole Moment: [D]
     X:     1.2305      Y:    -1.6600      Z:     0.0003     Total:     2.0664

*** Psi4 exiting successfully. Buy a developer a beer!
