                               Psi4 1.3.2 release

  ==> Input File <==

--------------------------------------------------------------------------
#psi4
#
memory 32 gb

molecule  {
0 1
  O       -2.3042200    -1.0991630    -0.0003290
  O       -2.3377670     1.1635920     0.0000360
  C       -0.2184710     0.0274960    -0.0000150
  C        0.5897637     1.1707864    -0.0001472
  C        0.4461120    -1.2054740     0.0002260
  C        1.9006900     1.1869520    -0.0000810
  C        1.8404380    -1.2322990     0.0003120
  C        2.5692530    -0.0403490     0.0001580
  C       -1.7002410     0.1214410    -0.0000850
  H       -0.0326500     2.1666470    -0.0003250
  H       -0.1251480    -2.1283920     0.0003360
  H        2.4665660     2.1152060    -0.0002030
  H        2.3606420    -2.1869500     0.0005070
  H        3.6563130    -0.0679050     0.0002230
  H       -3.2647750    -0.9069250    -0.0003290
units angstrom
no_reorient  #important for SAPT in psi4, default
symmetry c1  #important for SAPT in psi4, default
}

set PROPERTIES_ORIGIN ["COM"]
properties('MP2/aug-cc-pvtz', properties = ['dipole'])
--------------------------------------------------------------------------

    Molecular point group: c1
  Charge       = 0
  Multiplicity = 1
  Basis Set: AUG-CC-PVTZ
    Blend: AUG-CC-PVTZ
  Basis Set: (AUG-CC-PVTZ AUX)
    Blend: AUG-CC-PVTZ-JKFIT

    Orbital Energies [Eh]
    ---------------------

    Doubly Occupied:

       1A    -20.618229     2A    -20.550653     3A    -11.396667
       4A    -11.260440     5A    -11.260254     6A    -11.257786
       7A    -11.251536     8A    -11.248553     9A    -11.238864
      10A     -1.461758    11A     -1.356585    12A     -1.179410
      13A     -1.052997    14A     -1.036830    15A     -0.902232
      16A     -0.840518    17A     -0.804781    18A     -0.731899
      19A     -0.705627    20A     -0.672631    21A     -0.638993
      22A     -0.635747    23A     -0.633486    24A     -0.596126
      25A     -0.587359    26A     -0.535360    27A     -0.525754
      28A     -0.487750    29A     -0.485378    30A     -0.459176
      31A     -0.362026    32A     -0.352860

  @DF-RHF Final Energy:  -418.46065434018647

   => Energetics <=

    Nuclear Repulsion Energy =            405.2087613369550354
    One-Electron Energy =               -1373.0823009128851027
    Two-Electron Energy =                 549.4128852357436017
    Total Energy =                       -418.4606543401864656
  Basis Set: (AUG-CC-PVTZ AUX)
    Blend: AUG-CC-PVTZ-RI
    Molecular point group: c1

    Geometry (in Angstrom), charge = 0, multiplicity = 1:

       Center              X                  Y                   Z               Mass
    ------------   -----------------  -----------------  -----------------  -----------------
         O           -2.271302880525    -1.102088085593    -0.000328489707    15.994914619570
         O           -2.304849880525     1.160666914407     0.000036510293    15.994914619570
         C           -0.185553880525     0.024570914407    -0.000014489707    12.000000000000
         C            0.622680819475     1.167861314407    -0.000146689707    12.000000000000
         C            0.479029119475    -1.208399085593     0.000226510293    12.000000000000
         C            1.933607119475     1.184026914407    -0.000080489707    12.000000000000
         C            1.873355119475    -1.235224085593     0.000312510293    12.000000000000
         C            2.602170119475    -0.043274085593     0.000158510293    12.000000000000
         C           -1.667323880525     0.118515914407    -0.000084489707    12.000000000000
         H            0.000267119475     2.163721914407    -0.000324489707     1.007825032230
         H           -0.092230880525    -2.131317085593     0.000336510293     1.007825032230
         H            2.499483119475     2.112280914407    -0.000202489707     1.007825032230
         H            2.393559119475    -2.189875085593     0.000507510293     1.007825032230
         H            3.689230119475    -0.070830085593     0.000223510293     1.007825032230
         H           -3.231857880525    -0.909850085593    -0.000328489707     1.007825032230

  Basis Set: AUG-CC-PVTZ
    Blend: AUG-CC-PVTZ
  Basis Set: (AUG-CC-PVTZ AUX)
    Blend: AUG-CC-PVTZ-JKFIT
	 Reference Energy          =    -418.4606543401864656 [Eh]
	 Singles Energy            =      -0.0000000000000000 [Eh]
	 Same-Spin Energy          =      -0.4349896788375011 [Eh]
	 Opposite-Spin Energy      =      -1.3155772851685537 [Eh]
	 Correlation Energy        =      -1.7505669640060546 [Eh]
	 Total Energy              =    -420.2112213041925202 [Eh]

	 ================> DF-SCS-MP2 Energies <==================
	-----------------------------------------------------------
	 SCS Same-Spin Scale       =       0.3333333333333333 [-]
	 SCS Opposite-Spin Scale   =       1.2000000000000000 [-]
	 SCS Same-Spin Energy      =      -0.1449965596125004 [Eh]
	 SCS Opposite-Spin Energy  =      -1.5786927422022643 [Eh]
	 SCS Correlation Energy    =      -1.7236893018147645 [Eh]
	 SCS Total Energy          =    -420.1843436420012381 [Eh]
	-----------------------------------------------------------

  Dipole Moment: [D]
     X:     1.4572      Y:    -1.3690      Z:    -0.0001     Total:     1.9994

*** Psi4 exiting successfully. Buy a developer a beer!
