                               Psi4 1.3.2 release

  ==> Input File <==

--------------------------------------------------------------------------
#psi4
#
memory 32 gb

molecule  {
0 1
  O       -2.3042200    -1.0991630    -0.0003290
  O       -2.3558579     1.1523069     0.0000333
  C       -0.2184710     0.0274960    -0.0000150
  C        0.5080430     1.2243810    -0.0001580
  C        0.4461120    -1.2054740     0.0002260
  C        1.9006900     1.1869520    -0.0000810
  C        1.8404380    -1.2322990     0.0003120
  C        2.5692530    -0.0403490     0.0001580
  C       -1.7002410     0.1214410    -0.0000850
  H       -0.0326500     2.1666470    -0.0003250
  H       -0.1251480    -2.1283920     0.0003360
  H        2.4665660     2.1152060    -0.0002030
  H        2.3606420    -2.1869500     0.0005070
  H        3.6563130    -0.0679050     0.0002230
  H       -3.2647750    -0.9069250    -0.0003290
units angstrom
no_reorient  #important for SAPT in psi4, default
symmetry c1  #important for SAPT in psi4, default
}

set PROPERTIES_ORIGIN ["COM"]
properties('MP2/aug-cc-pvtz', properties = ['dipole'])
--------------------------------------------------------------------------

    Molecular point group: c1
  Charge       = 0
  Multiplicity = 1
  Basis Set: AUG-CC-PVTZ
    Blend: AUG-CC-PVTZ
  Basis Set: (AUG-CC-PVTZ AUX)
    Blend: AUG-CC-PVTZ-JKFIT

    Orbital Energies [Eh]
    ---------------------

    Doubly Occupied:

       1A    -20.615370     2A    -20.549439     3A    -11.394336
       4A    -11.260495     5A    -11.259558     6A    -11.259323
       7A    -11.256632     8A    -11.250592     9A    -11.249768
      10A     -1.460834    11A     -1.354370    12A     -1.171263
      13A     -1.051280    14A     -1.031939    15A     -0.899820
      16A     -0.845504    17A     -0.801043    18A     -0.730690
      19A     -0.704278    20A     -0.676467    21A     -0.641209
      22A     -0.632045    23A     -0.627319    24A     -0.605256
      25A     -0.586925    26A     -0.528587    27A     -0.519609
      28A     -0.509507    29A     -0.483508    30A     -0.457888
      31A     -0.357119    32A     -0.351591

  @DF-RHF Final Energy:  -418.47300286444147

   => Energetics <=

    Nuclear Repulsion Energy =            404.1339683926659632
    One-Electron Energy =               -1370.9668178220017580
    Two-Electron Energy =                 548.3598465648942692
    Total Energy =                       -418.4730028644414688
  Basis Set: (AUG-CC-PVTZ AUX)
    Blend: AUG-CC-PVTZ-RI
    Molecular point group: c1

    Geometry (in Angstrom), charge = 0, multiplicity = 1:

       Center              X                  Y                   Z               Mass
    ------------   -----------------  -----------------  -----------------  -----------------
         O           -2.260896093269    -1.105879000030    -0.000327073853    15.994914619570
         O           -2.312533993269     1.145590899970     0.000035226147    15.994914619570
         C           -0.175147093269     0.020779999970    -0.000013073853    12.000000000000
         C            0.551366906731     1.217664999970    -0.000156073853    12.000000000000
         C            0.489435906731    -1.212190000030     0.000227926147    12.000000000000
         C            1.944013906731     1.180235999970    -0.000079073853    12.000000000000
         C            1.883761906731    -1.239015000030     0.000313926147    12.000000000000
         C            2.612576906731    -0.047065000030     0.000159926147    12.000000000000
         C           -1.656917093269     0.114724999970    -0.000083073853    12.000000000000
         H            0.010673906731     2.159930999970    -0.000323073853     1.007825032230
         H           -0.081824093269    -2.135108000030     0.000337926147     1.007825032230
         H            2.509889906731     2.108489999970    -0.000201073853     1.007825032230
         H            2.403965906731    -2.193666000030     0.000508926147     1.007825032230
         H            3.699636906731    -0.074621000030     0.000224926147     1.007825032230
         H           -3.221451093269    -0.913641000030    -0.000327073853     1.007825032230

  Basis Set: AUG-CC-PVTZ
    Blend: AUG-CC-PVTZ
  Basis Set: (AUG-CC-PVTZ AUX)
    Blend: AUG-CC-PVTZ-JKFIT
	 Reference Energy          =    -418.4730028644414688 [Eh]
	 Singles Energy            =      -0.0000000000000000 [Eh]
	 Same-Spin Energy          =      -0.4347789186019583 [Eh]
	 Opposite-Spin Energy      =      -1.3152288546772746 [Eh]
	 Correlation Energy        =      -1.7500077732792327 [Eh]
	 Total Energy              =    -420.2230106377206766 [Eh]

	 ================> DF-SCS-MP2 Energies <==================
	-----------------------------------------------------------
	 SCS Same-Spin Scale       =       0.3333333333333333 [-]
	 SCS Opposite-Spin Scale   =       1.2000000000000000 [-]
	 SCS Same-Spin Energy      =      -0.1449263062006527 [Eh]
	 SCS Opposite-Spin Energy  =      -1.5782746256127294 [Eh]
	 SCS Correlation Energy    =      -1.7232009318133821 [Eh]
	 SCS Total Energy          =    -420.1962037962548493 [Eh]
	-----------------------------------------------------------

  Dipole Moment: [D]
     X:     1.5460      Y:    -1.2996      Z:    -0.0000     Total:     2.0196

*** Psi4 exiting successfully. Buy a developer a beer!
