                               Psi4 1.3.2 release

  ==> Input File <==

--------------------------------------------------------------------------
#psi4
#
memory 32 gb

molecule  {
0 1
  O       -2.3042200    -1.0991630    -0.0003290
  O       -2.4089108     1.1165818     0.0000249
  C       -0.2184710     0.0274960    -0.0000150
  C        0.5080430     1.2243810    -0.0001580
  C        0.4461120    -1.2054740     0.0002260
  C        1.9006900     1.1869520    -0.0000810
  C        1.8404380    -1.2322990     0.0003120
  C        2.5692530    -0.0403490     0.0001580
  C       -1.7002410     0.1214410    -0.0000850
  H       -0.0326500     2.1666470    -0.0003250
  H       -0.1251480    -2.1283920     0.0003360
  H        2.4665660     2.1152060    -0.0002030
  H        2.3606420    -2.1869500     0.0005070
  H        3.6563130    -0.0679050     0.0002230
  H       -3.2647750    -0.9069250    -0.0003290
units angstrom
no_reorient  #important for SAPT in psi4, default
symmetry c1  #important for SAPT in psi4, default
}

set PROPERTIES_ORIGIN ["COM"]
properties('MP2/aug-cc-pvtz', properties = ['dipole'])
--------------------------------------------------------------------------

    Molecular point group: c1
  Charge       = 0
  Multiplicity = 1
  Basis Set: AUG-CC-PVTZ
    Blend: AUG-CC-PVTZ
  Basis Set: (AUG-CC-PVTZ AUX)
    Blend: AUG-CC-PVTZ-JKFIT

    Orbital Energies [Eh]
    ---------------------

    Doubly Occupied:

       1A    -20.609685     2A    -20.548075     3A    -11.393651
       4A    -11.262988     5A    -11.261452     6A    -11.261222
       7A    -11.258851     8A    -11.252056     9A    -11.251284
      10A     -1.460510    11A     -1.348891    12A     -1.173164
      13A     -1.053261    14A     -1.033612    15A     -0.900436
      16A     -0.847035    17A     -0.800903    18A     -0.730675
      19A     -0.701483    20A     -0.677501    21A     -0.642412
      22A     -0.630225    23A     -0.627918    24A     -0.606405
      25A     -0.586985    26A     -0.530095    27A     -0.520393
      28A     -0.511242    29A     -0.480754    30A     -0.456760
      31A     -0.359069    32A     -0.353186

  @DF-RHF Final Energy:  -418.47203183430298

   => Energetics <=

    Nuclear Repulsion Energy =            403.8712012879067288
    One-Electron Energy =               -1370.4221046427910551
    Two-Electron Energy =                 548.0788715205814015
    Total Energy =                       -418.4720318343029248
  Basis Set: (AUG-CC-PVTZ AUX)
    Blend: AUG-CC-PVTZ-RI
    Molecular point group: c1

    Geometry (in Angstrom), charge = 0, multiplicity = 1:

       Center              X                  Y                   Z               Mass
    ------------   -----------------  -----------------  -----------------  -----------------
         O           -2.253942643582    -1.101196641753    -0.000325972895    15.994914619570
         O           -2.358633443582     1.114548158247     0.000027927105    15.994914619570
         C           -0.168193643582     0.025462358247    -0.000011972895    12.000000000000
         C            0.558320356418     1.222347358247    -0.000154972895    12.000000000000
         C            0.496389356418    -1.207507641753     0.000229027105    12.000000000000
         C            1.950967356418     1.184918358247    -0.000077972895    12.000000000000
         C            1.890715356418    -1.234332641753     0.000315027105    12.000000000000
         C            2.619530356418    -0.042382641753     0.000161027105    12.000000000000
         C           -1.649963643582     0.119407358247    -0.000081972895    12.000000000000
         H            0.017627356418     2.164613358247    -0.000321972895     1.007825032230
         H           -0.074870643582    -2.130425641753     0.000339027105     1.007825032230
         H            2.516843356418     2.113172358247    -0.000199972895     1.007825032230
         H            2.410919356418    -2.188983641753     0.000510027105     1.007825032230
         H            3.706590356418    -0.069938641753     0.000226027105     1.007825032230
         H           -3.214497643582    -0.908958641753    -0.000325972895     1.007825032230

  Basis Set: AUG-CC-PVTZ
    Blend: AUG-CC-PVTZ
  Basis Set: (AUG-CC-PVTZ AUX)
    Blend: AUG-CC-PVTZ-JKFIT
	 Reference Energy          =    -418.4720318343029817 [Eh]
	 Singles Energy            =      -0.0000000000000000 [Eh]
	 Same-Spin Energy          =      -0.4346573921535943 [Eh]
	 Opposite-Spin Energy      =      -1.3150169701758219 [Eh]
	 Correlation Energy        =      -1.7496743623294162 [Eh]
	 Total Energy              =    -420.2217061966323968 [Eh]

	 ================> DF-SCS-MP2 Energies <==================
	-----------------------------------------------------------
	 SCS Same-Spin Scale       =       0.3333333333333333 [-]
	 SCS Opposite-Spin Scale   =       1.2000000000000000 [-]
	 SCS Same-Spin Energy      =      -0.1448857973845314 [Eh]
	 SCS Opposite-Spin Energy  =      -1.5780203642109862 [Eh]
	 SCS Correlation Energy    =      -1.7229061615955177 [Eh]
	 SCS Total Energy          =    -420.1949379958984991 [Eh]
	-----------------------------------------------------------

  Dipole Moment: [D]
     X:     1.7703      Y:    -1.2351      Z:    -0.0000     Total:     2.1585

*** Psi4 exiting successfully. Buy a developer a beer!
