                               Psi4 1.4a3.dev225

  ==> Input File <==

--------------------------------------------------------------------------
#psi4
#
memory 32 gb

molecule  {
0 1
  O       -2.3041980    -1.0991920    -0.0000450
  O       -2.3377760     1.1635870    -0.0002980
  C       -0.2184880     0.0275040    -0.0000190
  C        0.5080600     1.2243720    -0.0001140
  C        0.4460610    -1.2054670     0.0001810
  C        1.9006990     1.1869660    -0.0000100
  C        1.8403900    -1.2323150     0.0002850
  C        2.5692320    -0.0403680     0.0001900
  C       -1.7001850     0.1214900    -0.0001360
  H       -0.0325870     2.1666660    -0.0002690
  H       -0.1251250    -2.1284350     0.0002540
  H        2.4666520     2.1151670    -0.0000840
  H        2.3606240    -2.1869430     0.0004410
  H        3.6562990    -0.0679320     0.0002710
  H       -3.2156552    -0.9165899    -0.0001295
units angstrom
no_reorient  #important for SAPT in psi4, default
symmetry c1  #important for SAPT in psi4, default
}

set PROPERTIES_ORIGIN ["COM"]
properties('MP2/aug-cc-pvtz', properties = ['dipole'])
--------------------------------------------------------------------------

    Molecular point group: c1
  Charge       = 0
  Multiplicity = 1
  Basis Set: AUG-CC-PVTZ
    Blend: AUG-CC-PVTZ
  Basis Set: (AUG-CC-PVTZ AUX)
    Blend: AUG-CC-PVTZ-JKFIT

    Orbital Energies [Eh]
    ---------------------

    Doubly Occupied:

       1A    -20.613823     2A    -20.550817     3A    -11.395530
       4A    -11.260002     5A    -11.259281     6A    -11.258814
       7A    -11.256173     8A    -11.250371     9A    -11.249520
      10A     -1.469227    11A     -1.360923    12A     -1.171052
      13A     -1.051686    14A     -1.031691    15A     -0.904344
      16A     -0.845858    17A     -0.805839    18A     -0.731910
      19A     -0.710648    20A     -0.676904    21A     -0.641929
      22A     -0.634482    23A     -0.627646    24A     -0.605461
      25A     -0.589704    26A     -0.528650    27A     -0.520066
      28A     -0.509216    29A     -0.485668    30A     -0.458994
      31A     -0.356776    32A     -0.351325

  @DF-RHF Final Energy:  -418.47374420936563

   => Energetics <=

    Nuclear Repulsion Energy =            404.5608940553309480
    One-Electron Energy =               -1371.7406161346630142
    Two-Electron Energy =                 548.7059778699665458
    Total Energy =                       -418.4737442093655773
  Basis Set: (AUG-CC-PVTZ AUX)
    Blend: AUG-CC-PVTZ-RI
    Molecular point group: c1

    Geometry (in Angstrom), charge = 0, multiplicity = 1:

       Center              X                  Y                   Z               Mass
    ------------   -----------------  -----------------  -----------------  -----------------
         O           -2.263648302781    -1.107305482060    -0.000041107958    15.994914619570
         O           -2.297226302781     1.155473517940    -0.000294107958    15.994914619570
         C           -0.177938302781     0.019390517940    -0.000015107958    12.000000000000
         C            0.548609697219     1.216258517940    -0.000110107958    12.000000000000
         C            0.486610697219    -1.213580482060     0.000184892042    12.000000000000
         C            1.941248697219     1.178852517940    -0.000006107958    12.000000000000
         C            1.880939697219    -1.240428482060     0.000288892042    12.000000000000
         C            2.609781697219    -0.048481482060     0.000193892042    12.000000000000
         C           -1.659635302781     0.113376517940    -0.000132107958    12.000000000000
         H            0.007962697219     2.158552517940    -0.000265107958     1.007825032230
         H           -0.084575302781    -2.136548482060     0.000257892042     1.007825032230
         H            2.507201697219     2.107053517940    -0.000080107958     1.007825032230
         H            2.401173697219    -2.195056482060     0.000444892042     1.007825032230
         H            3.696848697219    -0.076045482060     0.000274892042     1.007825032230
         H           -3.175105502781    -0.924703382060    -0.000125607958     1.007825032230

  Basis Set: AUG-CC-PVTZ
    Blend: AUG-CC-PVTZ
  Basis Set: (AUG-CC-PVTZ AUX)
    Blend: AUG-CC-PVTZ-JKFIT
	 Reference Energy          =    -418.4737442093656341 [Eh]
	 Singles Energy            =      -0.0000000000000000 [Eh]
	 Same-Spin Energy          =      -0.4341842318515489 [Eh]
	 Opposite-Spin Energy      =      -1.3138467533024256 [Eh]
	 Correlation Energy        =      -1.7480309851539746 [Eh]
	 Total Energy              =    -420.2217751945196369 [Eh]

	 ================> DF-SCS-MP2 Energies <==================
	-----------------------------------------------------------
	 SCS Same-Spin Scale       =       0.3333333333333333 [-]
	 SCS Opposite-Spin Scale   =       1.2000000000000000 [-]
	 SCS Same-Spin Energy      =      -0.1447280772838496 [Eh]
	 SCS Opposite-Spin Energy  =      -1.5766161039629107 [Eh]
	 SCS Correlation Energy    =      -1.7213441812467605 [Eh]
	 SCS Total Energy          =    -420.1950883906123977 [Eh]
	-----------------------------------------------------------

  Dipole Moment: [D]
     X:     1.5416      Y:    -1.3115      Z:     0.0003     Total:     2.0240

*** Psi4 exiting successfully. Buy a developer a beer!
