                               Psi4 1.3.2 release

  ==> Input File <==

--------------------------------------------------------------------------
#psi4
#
memory 32 gb

molecule  {
0 1
  O       -2.3042200    -1.0991630    -0.0003290
  O       -2.3377670     1.1635920     0.0000360
  C       -0.2184710     0.0274960    -0.0000150
  C        0.5080430     1.2243810    -0.0001580
  C        0.4461120    -1.2054740     0.0002260
  C        1.9006900     1.1869520    -0.0000810
  C        1.8404380    -1.2322990     0.0003120
  C        2.5692530    -0.0403490     0.0001580
  C       -1.7002410     0.1214410    -0.0000850
  H       -0.0326500     2.1666470    -0.0003250
  H       -0.1251480    -2.1283920     0.0003360
  H        2.4665660     2.1152060    -0.0002030
  H        2.3606420    -2.1869500     0.0005070
  H        3.6563130    -0.0679050     0.0002230
  H       -3.0686639    -0.9461732    -0.0003290
units angstrom
no_reorient  #important for SAPT in psi4, default
symmetry c1  #important for SAPT in psi4, default
}

set PROPERTIES_ORIGIN ["COM"]
properties('MP2/aug-cc-pvtz', properties = ['dipole'])
--------------------------------------------------------------------------

    Molecular point group: c1
  Charge       = 0
  Multiplicity = 1
  Basis Set: AUG-CC-PVTZ
    Blend: AUG-CC-PVTZ
  Basis Set: (AUG-CC-PVTZ AUX)
    Blend: AUG-CC-PVTZ-JKFIT

    Orbital Energies [Eh]
    ---------------------

    Doubly Occupied:

       1A    -20.600324     2A    -20.553829     3A    -11.398478
       4A    -11.260947     5A    -11.260187     6A    -11.259694
       7A    -11.257122     8A    -11.251231     9A    -11.250359
      10A     -1.506891    11A     -1.375376    12A     -1.172468
      13A     -1.055805    14A     -1.032702    15A     -0.924210
      16A     -0.849214    17A     -0.819791    18A     -0.736031
      19A     -0.723846    20A     -0.679205    21A     -0.644890
      22A     -0.640468    23A     -0.629305    24A     -0.607463
      25A     -0.595849    26A     -0.530268    27A     -0.522397
      28A     -0.510153    29A     -0.489732    30A     -0.461737
      31A     -0.357761    32A     -0.352200

  @DF-RHF Final Energy:  -418.42921685050476

   => Energetics <=

    Nuclear Repulsion Energy =            405.7191833388361033
    One-Electron Energy =               -1373.6769323204603097
    Two-Electron Energy =                 549.5285321311195048
    Total Energy =                       -418.4292168505047584
  Basis Set: (AUG-CC-PVTZ AUX)
    Blend: AUG-CC-PVTZ-RI
    Molecular point group: c1

    Geometry (in Angstrom), charge = 0, multiplicity = 1:

       Center              X                  Y                   Z               Mass
    ------------   -----------------  -----------------  -----------------  -----------------
         O           -2.264886759680    -1.107033970632    -0.000327427732    15.994914619570
         O           -2.298433759680     1.155721029368     0.000037572268    15.994914619570
         C           -0.179137759680     0.019625029368    -0.000013427732    12.000000000000
         C            0.547376240320     1.216510029368    -0.000156427732    12.000000000000
         C            0.485445240320    -1.213344970632     0.000227572268    12.000000000000
         C            1.940023240320     1.179081029368    -0.000079427732    12.000000000000
         C            1.879771240320    -1.240169970632     0.000313572268    12.000000000000
         C            2.608586240320    -0.048219970632     0.000159572268    12.000000000000
         C           -1.660907759680     0.113570029368    -0.000083427732    12.000000000000
         H            0.006683240320     2.158776029368    -0.000323427732     1.007825032230
         H           -0.085814759680    -2.136262970632     0.000337572268     1.007825032230
         H            2.505899240320     2.107335029368    -0.000201427732     1.007825032230
         H            2.399975240320    -2.194820970632     0.000508572268     1.007825032230
         H            3.695646240320    -0.075775970632     0.000224572268     1.007825032230
         H           -3.029330659680    -0.954044170632    -0.000327427732     1.007825032230

  Basis Set: AUG-CC-PVTZ
    Blend: AUG-CC-PVTZ
  Basis Set: (AUG-CC-PVTZ AUX)
    Blend: AUG-CC-PVTZ-JKFIT
	 Reference Energy          =    -418.4292168505047584 [Eh]
	 Singles Energy            =      -0.0000000000000000 [Eh]
	 Same-Spin Energy          =      -0.4323529503901329 [Eh]
	 Opposite-Spin Energy      =      -1.3099640460644113 [Eh]
	 Correlation Energy        =      -1.7423169964545442 [Eh]
	 Total Energy              =    -420.1715338469592780 [Eh]

	 ================> DF-SCS-MP2 Energies <==================
	-----------------------------------------------------------
	 SCS Same-Spin Scale       =       0.3333333333333333 [-]
	 SCS Opposite-Spin Scale   =       1.2000000000000000 [-]
	 SCS Same-Spin Energy      =      -0.1441176501300443 [Eh]
	 SCS Opposite-Spin Energy  =      -1.5719568552772936 [Eh]
	 SCS Correlation Energy    =      -1.7160745054073379 [Eh]
	 SCS Total Energy          =    -420.1452913559120930 [Eh]
	-----------------------------------------------------------

  Dipole Moment: [D]
     X:     1.7562      Y:    -1.2759      Z:    -0.0000     Total:     2.1708

*** Psi4 exiting successfully. Buy a developer a beer!
