                               Psi4 1.3.2 release

  ==> Input File <==

--------------------------------------------------------------------------
#psi4
#
memory 32 gb

molecule  {
0 1
  O       -2.4284992    -1.0293434    -0.0003271
  O       -2.3377670     1.1635920     0.0000360
  C       -0.2184710     0.0274960    -0.0000150
  C        0.5080430     1.2243810    -0.0001580
  C        0.4461120    -1.2054740     0.0002260
  C        1.9006900     1.1869520    -0.0000810
  C        1.8404380    -1.2322990     0.0003120
  C        2.5692530    -0.0403490     0.0001580
  C       -1.7002410     0.1214410    -0.0000850
  H       -0.0326500     2.1666470    -0.0003250
  H       -0.1251480    -2.1283920     0.0003360
  H        2.4665660     2.1152060    -0.0002030
  H        2.3606420    -2.1869500     0.0005070
  H        3.6563130    -0.0679050     0.0002230
  H       -3.2647750    -0.9069250    -0.0003290
units angstrom
no_reorient  #important for SAPT in psi4, default
symmetry c1  #important for SAPT in psi4, default
}

set PROPERTIES_ORIGIN ["COM"]
properties('MP2/aug-cc-pvtz', properties = ['dipole'])
--------------------------------------------------------------------------

    Molecular point group: c1
  Charge       = 0
  Multiplicity = 1
  Basis Set: AUG-CC-PVTZ
    Blend: AUG-CC-PVTZ
  Basis Set: (AUG-CC-PVTZ AUX)
    Blend: AUG-CC-PVTZ-JKFIT

    Orbital Energies [Eh]
    ---------------------

    Doubly Occupied:

       1A    -20.596072     2A    -20.543011     3A    -11.395428
       4A    -11.265685     5A    -11.262953     6A    -11.261975
       7A    -11.259720     8A    -11.252890     9A    -11.252185
      10A     -1.477867    11A     -1.357634    12A     -1.174283
      13A     -1.055487    14A     -1.034540    15A     -0.916995
      16A     -0.850166    17A     -0.822705    18A     -0.740200
      19A     -0.705501    20A     -0.678685    21A     -0.644280
      22A     -0.631548    23A     -0.628802    24A     -0.606538
      25A     -0.587111    26A     -0.529652    27A     -0.522991
      28A     -0.511880    29A     -0.479529    30A     -0.454880
      31A     -0.359544    32A     -0.353895

  @DF-RHF Final Energy:  -418.45730204459244

   => Energetics <=

    Nuclear Repulsion Energy =            404.0094468889601558
    One-Electron Energy =               -1370.5042349967934570
    Two-Electron Energy =                 548.0374860632408627
    Total Energy =                       -418.4573020445924385
  Basis Set: (AUG-CC-PVTZ AUX)
    Blend: AUG-CC-PVTZ-RI
    Molecular point group: c1

    Geometry (in Angstrom), charge = 0, multiplicity = 1:

       Center              X                  Y                   Z               Mass
    ------------   -----------------  -----------------  -----------------  -----------------
         O           -2.371257580921    -1.046689496611    -0.000325776758    15.994914619570
         O           -2.280525380921     1.146245903389     0.000037323242    15.994914619570
         C           -0.161229380921     0.010149903389    -0.000013676758    12.000000000000
         C            0.565284619079     1.207034903389    -0.000156676758    12.000000000000
         C            0.503353619079    -1.222820096611     0.000227323242    12.000000000000
         C            1.957931619079     1.169605903389    -0.000079676758    12.000000000000
         C            1.897679619079    -1.249645096611     0.000313323242    12.000000000000
         C            2.626494619079    -0.057695096611     0.000159323242    12.000000000000
         C           -1.642999380921     0.104094903389    -0.000083676758    12.000000000000
         H            0.024591619079     2.149300903389    -0.000323676758     1.007825032230
         H           -0.067906380921    -2.145738096611     0.000337323242     1.007825032230
         H            2.523807619079     2.097859903389    -0.000201676758     1.007825032230
         H            2.417883619079    -2.204296096611     0.000508323242     1.007825032230
         H            3.713554619079    -0.085251096611     0.000224323242     1.007825032230
         H           -3.207533380921    -0.924271096611    -0.000327676758     1.007825032230

  Basis Set: AUG-CC-PVTZ
    Blend: AUG-CC-PVTZ
  Basis Set: (AUG-CC-PVTZ AUX)
    Blend: AUG-CC-PVTZ-JKFIT
	 Reference Energy          =    -418.4573020445924385 [Eh]
	 Singles Energy            =      -0.0000000000000000 [Eh]
	 Same-Spin Energy          =      -0.4323542084167650 [Eh]
	 Opposite-Spin Energy      =      -1.3103291894956535 [Eh]
	 Correlation Energy        =      -1.7426833979124186 [Eh]
	 Total Energy              =    -420.1999854425048397 [Eh]

	 ================> DF-SCS-MP2 Energies <==================
	-----------------------------------------------------------
	 SCS Same-Spin Scale       =       0.3333333333333333 [-]
	 SCS Opposite-Spin Scale   =       1.2000000000000000 [-]
	 SCS Same-Spin Energy      =      -0.1441180694722550 [Eh]
	 SCS Opposite-Spin Energy  =      -1.5723950273947842 [Eh]
	 SCS Correlation Energy    =      -1.7165130968670392 [Eh]
	 SCS Total Energy          =    -420.1738151414594995 [Eh]
	-----------------------------------------------------------

  Dipole Moment: [D]
     X:     1.8709      Y:    -1.3156      Z:    -0.0000     Total:     2.2871

*** Psi4 exiting successfully. Buy a developer a beer!
