                               Psi4 1.3.2 release

  ==> Input File <==

--------------------------------------------------------------------------
#psi4
#
memory 32 gb

molecule  {
0 1
  O       -2.3042200    -1.0991630    -0.0003290
  O       -2.3377670     1.1635920     0.0000360
  C       -0.2184710     0.0274960    -0.0000150
  C        0.4870438     1.2368781    -0.0001606
  C        0.4461120    -1.2054740     0.0002260
  C        1.9006900     1.1869520    -0.0000810
  C        1.8404380    -1.2322990     0.0003120
  C        2.5692530    -0.0403490     0.0001580
  C       -1.7002410     0.1214410    -0.0000850
  H       -0.0326500     2.1666470    -0.0003250
  H       -0.1251480    -2.1283920     0.0003360
  H        2.4665660     2.1152060    -0.0002030
  H        2.3606420    -2.1869500     0.0005070
  H        3.6563130    -0.0679050     0.0002230
  H       -3.2647750    -0.9069250    -0.0003290
units angstrom
no_reorient  #important for SAPT in psi4, default
symmetry c1  #important for SAPT in psi4, default
}

set PROPERTIES_ORIGIN ["COM"]
properties('MP2/aug-cc-pvtz', properties = ['dipole'])
--------------------------------------------------------------------------

    Molecular point group: c1
  Charge       = 0
  Multiplicity = 1
  Basis Set: AUG-CC-PVTZ
    Blend: AUG-CC-PVTZ
  Basis Set: (AUG-CC-PVTZ AUX)
    Blend: AUG-CC-PVTZ-JKFIT

    Orbital Energies [Eh]
    ---------------------

    Doubly Occupied:

       1A    -20.616966     2A    -20.549628     3A    -11.394068
       4A    -11.259920     5A    -11.258739     6A    -11.258634
       7A    -11.257003     8A    -11.251772     9A    -11.250529
      10A     -1.460830    11A     -1.356004    12A     -1.168824
      13A     -1.050870    14A     -1.029538    15A     -0.899046
      16A     -0.846340    17A     -0.800273    18A     -0.730593
      19A     -0.705170    20A     -0.677510    21A     -0.641615
      22A     -0.632484    23A     -0.625602    24A     -0.606931
      25A     -0.586291    26A     -0.525941    27A     -0.518100
      28A     -0.512531    29A     -0.484083    30A     -0.457764
      31A     -0.357046    32A     -0.348894

  @DF-RHF Final Energy:  -418.47187615175312

   => Energetics <=

    Nuclear Repulsion Energy =            404.0193988641029819
    One-Electron Energy =               -1370.7434707188212997
    Two-Electron Energy =                 548.2521957029651958
    Total Energy =                       -418.4718761517531220
  Basis Set: (AUG-CC-PVTZ AUX)
    Blend: AUG-CC-PVTZ-RI
    Molecular point group: c1

    Geometry (in Angstrom), charge = 0, multiplicity = 1:

       Center              X                  Y                   Z               Mass
    ------------   -----------------  -----------------  -----------------  -----------------
         O           -2.261202328825    -1.108586949327    -0.000327172071    15.994914619570
         O           -2.294749328825     1.154168050673     0.000037827929    15.994914619570
         C           -0.175453328825     0.018072050673    -0.000013172071    12.000000000000
         C            0.530061471175     1.227454150673    -0.000158772071    12.000000000000
         C            0.489129671175    -1.214897949327     0.000227827929    12.000000000000
         C            1.943707671175     1.177528050673    -0.000079172071    12.000000000000
         C            1.883455671175    -1.241722949327     0.000313827929    12.000000000000
         C            2.612270671175    -0.049772949327     0.000159827929    12.000000000000
         C           -1.657223328825     0.112017050673    -0.000083172071    12.000000000000
         H            0.010367671175     2.157223050673    -0.000323172071     1.007825032230
         H           -0.082130328825    -2.137815949327     0.000337827929     1.007825032230
         H            2.509583671175     2.105782050673    -0.000201172071     1.007825032230
         H            2.403659671175    -2.196373949327     0.000508827929     1.007825032230
         H            3.699330671175    -0.077328949327     0.000224827929     1.007825032230
         H           -3.221757328825    -0.916348949327    -0.000327172071     1.007825032230

  Basis Set: AUG-CC-PVTZ
    Blend: AUG-CC-PVTZ
  Basis Set: (AUG-CC-PVTZ AUX)
    Blend: AUG-CC-PVTZ-JKFIT
	 Reference Energy          =    -418.4718761517531220 [Eh]
	 Singles Energy            =      -0.0000000000000000 [Eh]
	 Same-Spin Energy          =      -0.4348402148587459 [Eh]
	 Opposite-Spin Energy      =      -1.3154753655376266 [Eh]
	 Correlation Energy        =      -1.7503155803963724 [Eh]
	 Total Energy              =    -420.2221917321494971 [Eh]

	 ================> DF-SCS-MP2 Energies <==================
	-----------------------------------------------------------
	 SCS Same-Spin Scale       =       0.3333333333333333 [-]
	 SCS Opposite-Spin Scale   =       1.2000000000000000 [-]
	 SCS Same-Spin Energy      =      -0.1449467382862486 [Eh]
	 SCS Opposite-Spin Energy  =      -1.5785704386451518 [Eh]
	 SCS Correlation Energy    =      -1.7235171769314004 [Eh]
	 SCS Total Energy          =    -420.1953933286845313 [Eh]
	-----------------------------------------------------------

  Dipole Moment: [D]
     X:     1.4748      Y:    -1.3130      Z:    -0.0001     Total:     1.9746

*** Psi4 exiting successfully. Buy a developer a beer!
