                               Psi4 1.3.2 release

  ==> Input File <==

--------------------------------------------------------------------------
#psi4
#
memory 32 gb

molecule  {
0 1
  O       -2.2612536    -1.1194980    -0.0003300
  O       -2.3377670     1.1635920     0.0000360
  C       -0.2184710     0.0274960    -0.0000150
  C        0.5080430     1.2243810    -0.0001580
  C        0.4461120    -1.2054740     0.0002260
  C        1.9006900     1.1869520    -0.0000810
  C        1.8404380    -1.2322990     0.0003120
  C        2.5692530    -0.0403490     0.0001580
  C       -1.7002410     0.1214410    -0.0000850
  H       -0.0326500     2.1666470    -0.0003250
  H       -0.1251480    -2.1283920     0.0003360
  H        2.4665660     2.1152060    -0.0002030
  H        2.3606420    -2.1869500     0.0005070
  H        3.6563130    -0.0679050     0.0002230
  H       -3.2647750    -0.9069250    -0.0003290
units angstrom
no_reorient  #important for SAPT in psi4, default
symmetry c1  #important for SAPT in psi4, default
}

set PROPERTIES_ORIGIN ["COM"]
properties('MP2/aug-cc-pvtz', properties = ['dipole'])
--------------------------------------------------------------------------

    Molecular point group: c1
  Charge       = 0
  Multiplicity = 1
  Basis Set: AUG-CC-PVTZ
    Blend: AUG-CC-PVTZ
  Basis Set: (AUG-CC-PVTZ AUX)
    Blend: AUG-CC-PVTZ-JKFIT

    Orbital Energies [Eh]
    ---------------------

    Doubly Occupied:

       1A    -20.623063     2A    -20.552239     3A    -11.394840
       4A    -11.258183     5A    -11.257991     6A    -11.256735
       7A    -11.254582     8A    -11.249166     9A    -11.248288
      10A     -1.457100    11A     -1.356356    12A     -1.169386
      13A     -1.049020    14A     -1.030336    15A     -0.895720
      16A     -0.843642    17A     -0.795192    18A     -0.729604
      19A     -0.702175    20A     -0.675018    21A     -0.639567
      22A     -0.633199    23A     -0.626832    24A     -0.604300
      25A     -0.584611    26A     -0.527570    27A     -0.518170
      28A     -0.507934    29A     -0.485991    30A     -0.458637
      31A     -0.355414    32A     -0.350104

  @DF-RHF Final Energy:  -418.46688497010348

   => Energetics <=

    Nuclear Repulsion Energy =            404.4028817741374269
    One-Electron Energy =               -1371.5576083369487606
    Two-Electron Energy =                 548.6878415927078549
    Total Energy =                       -418.4668849701034787
  Basis Set: (AUG-CC-PVTZ AUX)
    Blend: AUG-CC-PVTZ-RI
    Molecular point group: c1

    Geometry (in Angstrom), charge = 0, multiplicity = 1:

       Center              X                  Y                   Z               Mass
    ------------   -----------------  -----------------  -----------------  -----------------
         O           -2.225932250408    -1.125027862716    -0.000328296665    15.994914619570
         O           -2.302445650408     1.158062137284     0.000037703335    15.994914619570
         C           -0.183149650408     0.021966137284    -0.000013296665    12.000000000000
         C            0.543364349592     1.218851137284    -0.000156296665    12.000000000000
         C            0.481433349592    -1.211003862716     0.000227703335    12.000000000000
         C            1.936011349592     1.181422137284    -0.000079296665    12.000000000000
         C            1.875759349592    -1.237828862716     0.000313703335    12.000000000000
         C            2.604574349592    -0.045878862716     0.000159703335    12.000000000000
         C           -1.664919650408     0.115911137284    -0.000083296665    12.000000000000
         H            0.002671349592     2.161117137284    -0.000323296665     1.007825032230
         H           -0.089826650408    -2.133921862716     0.000337703335     1.007825032230
         H            2.501887349592     2.109676137284    -0.000201296665     1.007825032230
         H            2.395963349592    -2.192479862716     0.000508703335     1.007825032230
         H            3.691634349592    -0.073434862716     0.000224703335     1.007825032230
         H           -3.229453650408    -0.912454862716    -0.000327296665     1.007825032230

  Basis Set: AUG-CC-PVTZ
    Blend: AUG-CC-PVTZ
  Basis Set: (AUG-CC-PVTZ AUX)
    Blend: AUG-CC-PVTZ-JKFIT
	 Reference Energy          =    -418.4668849701034787 [Eh]
	 Singles Energy            =      -0.0000000000000000 [Eh]
	 Same-Spin Energy          =      -0.4358360908025756 [Eh]
	 Opposite-Spin Energy      =      -1.3174241666512829 [Eh]
	 Correlation Energy        =      -1.7532602574538585 [Eh]
	 Total Energy              =    -420.2201452275573388 [Eh]

	 ================> DF-SCS-MP2 Energies <==================
	-----------------------------------------------------------
	 SCS Same-Spin Scale       =       0.3333333333333333 [-]
	 SCS Opposite-Spin Scale   =       1.2000000000000000 [-]
	 SCS Same-Spin Energy      =      -0.1452786969341918 [Eh]
	 SCS Opposite-Spin Energy  =      -1.5809089999815396 [Eh]
	 SCS Correlation Energy    =      -1.7261876969157315 [Eh]
	 SCS Total Energy          =    -420.1930726670192371 [Eh]
	-----------------------------------------------------------

  Dipole Moment: [D]
     X:     1.3472      Y:    -1.3187      Z:    -0.0001     Total:     1.8851

*** Psi4 exiting successfully. Buy a developer a beer!
