                               Psi4 1.3.2 release

  ==> Input File <==

--------------------------------------------------------------------------
#psi4
#
memory 32 gb

molecule  {
0 1
  O       -2.3042200    -1.0991630    -0.0003290
  O       -2.3377670     1.1635920     0.0000360
  C       -0.2184710     0.0274960    -0.0000150
  C        0.5080430     1.2243810    -0.0001580
  C        0.4461120    -1.2054740     0.0002260
  C        1.9006900     1.1869520    -0.0000810
  C        1.8404380    -1.2322990     0.0003120
  C        2.5692530    -0.0403490     0.0001580
  C       -1.7868573     0.1605991    -0.0000810
  H       -0.0326500     2.1666470    -0.0003250
  H       -0.1251480    -2.1283920     0.0003360
  H        2.4665660     2.1152060    -0.0002030
  H        2.3606420    -2.1869500     0.0005070
  H        3.6563130    -0.0679050     0.0002230
  H       -3.2647750    -0.9069250    -0.0003290
units angstrom
no_reorient  #important for SAPT in psi4, default
symmetry c1  #important for SAPT in psi4, default
}

set PROPERTIES_ORIGIN ["COM"]
properties('MP2/aug-cc-pvtz', properties = ['dipole'])
--------------------------------------------------------------------------

    Molecular point group: c1
  Charge       = 0
  Multiplicity = 1
  Basis Set: AUG-CC-PVTZ
    Blend: AUG-CC-PVTZ
  Basis Set: (AUG-CC-PVTZ AUX)
    Blend: AUG-CC-PVTZ-JKFIT

    Orbital Energies [Eh]
    ---------------------

    Doubly Occupied:

       1A    -20.619741     2A    -20.565173     3A    -11.391899
       4A    -11.256530     5A    -11.250794     6A    -11.250619
       7A    -11.247719     8A    -11.244876     9A    -11.244100
      10A     -1.490324    11A     -1.397644    12A     -1.161608
      13A     -1.035013    14A     -1.024794    15A     -0.882735
      16A     -0.837453    17A     -0.796434    18A     -0.733863
      19A     -0.715722    20A     -0.677094    21A     -0.649803
      22A     -0.640715    23A     -0.628386    24A     -0.601765
      25A     -0.586499    26A     -0.529856    27A     -0.517407
      28A     -0.506199    29A     -0.503137    30A     -0.454051
      31A     -0.349179    32A     -0.345496

  @DF-RHF Final Energy:  -418.46517776724050

   => Energetics <=

    Nuclear Repulsion Energy =            404.1135047470501718
    One-Electron Energy =               -1370.8841107902112526
    Two-Electron Energy =                 548.3054282759205762
    Total Energy =                       -418.4651777672404478
  Basis Set: (AUG-CC-PVTZ AUX)
    Blend: AUG-CC-PVTZ-RI
    Molecular point group: c1

    Geometry (in Angstrom), charge = 0, multiplicity = 1:

       Center              X                  Y                   Z               Mass
    ------------   -----------------  -----------------  -----------------  -----------------
         O           -2.254750132989    -1.111208552433    -0.000327821056    15.994914619570
         O           -2.288297132989     1.151546447567     0.000037178944    15.994914619570
         C           -0.169001132989     0.015450447567    -0.000013821056    12.000000000000
         C            0.557512867011     1.212335447567    -0.000156821056    12.000000000000
         C            0.495581867011    -1.217519552433     0.000227178944    12.000000000000
         C            1.950159867011     1.174906447567    -0.000079821056    12.000000000000
         C            1.889907867011    -1.244344552433     0.000313178944    12.000000000000
         C            2.618722867011    -0.052394552433     0.000159178944    12.000000000000
         C           -1.737387432989     0.148553547567    -0.000079821056    12.000000000000
         H            0.016819867011     2.154601447567    -0.000323821056     1.007825032230
         H           -0.075678132989    -2.140437552433     0.000337178944     1.007825032230
         H            2.516035867011     2.103160447567    -0.000201821056     1.007825032230
         H            2.410111867011    -2.198995552433     0.000508178944     1.007825032230
         H            3.705782867011    -0.079950552433     0.000224178944     1.007825032230
         H           -3.215305132989    -0.918970552433    -0.000327821056     1.007825032230

  Basis Set: AUG-CC-PVTZ
    Blend: AUG-CC-PVTZ
  Basis Set: (AUG-CC-PVTZ AUX)
    Blend: AUG-CC-PVTZ-JKFIT
	 Reference Energy          =    -418.4651777672405046 [Eh]
	 Singles Energy            =      -0.0000000000000000 [Eh]
	 Same-Spin Energy          =      -0.4333607922522194 [Eh]
	 Opposite-Spin Energy      =      -1.3122106944933525 [Eh]
	 Correlation Energy        =      -1.7455714867455718 [Eh]
	 Total Energy              =    -420.2107492539860800 [Eh]

	 ================> DF-SCS-MP2 Energies <==================
	-----------------------------------------------------------
	 SCS Same-Spin Scale       =       0.3333333333333333 [-]
	 SCS Opposite-Spin Scale   =       1.2000000000000000 [-]
	 SCS Same-Spin Energy      =      -0.1444535974174065 [Eh]
	 SCS Opposite-Spin Energy  =      -1.5746528333920229 [Eh]
	 SCS Correlation Energy    =      -1.7191064308094293 [Eh]
	 SCS Total Energy          =    -420.1842841980499088 [Eh]
	-----------------------------------------------------------

  Dipole Moment: [D]
     X:     0.6908      Y:    -1.0441      Z:    -0.0000     Total:     1.2520

*** Psi4 exiting successfully. Buy a developer a beer!
