                               Psi4 1.3.2 release

  ==> Input File <==

--------------------------------------------------------------------------
#psi4
#
memory 32 gb

molecule  {
0 1
  O       -2.3042200    -1.0991630    -0.0003290
  O       -2.3377670     1.1635920     0.0000360
  C       -0.2184710     0.0274960    -0.0000150
  C        0.5080430     1.2243810    -0.0001580
  C        0.4461120    -1.2054740     0.0002260
  C        1.9006900     1.1869520    -0.0000810
  C        1.8404380    -1.2322990     0.0003120
  C        2.5692530    -0.0403490     0.0001580
  C       -1.6790305     0.1107142    -0.0000862
  H       -0.0326500     2.1666470    -0.0003250
  H       -0.1251480    -2.1283920     0.0003360
  H        2.4665660     2.1152060    -0.0002030
  H        2.3606420    -2.1869500     0.0005070
  H        3.6563130    -0.0679050     0.0002230
  H       -3.2647750    -0.9069250    -0.0003290
units angstrom
no_reorient  #important for SAPT in psi4, default
symmetry c1  #important for SAPT in psi4, default
}

set PROPERTIES_ORIGIN ["COM"]
properties('MP2/aug-cc-pvtz', properties = ['dipole'])
--------------------------------------------------------------------------

    Molecular point group: c1
  Charge       = 0
  Multiplicity = 1
  Basis Set: AUG-CC-PVTZ
    Blend: AUG-CC-PVTZ
  Basis Set: (AUG-CC-PVTZ AUX)
    Blend: AUG-CC-PVTZ-JKFIT

    Orbital Energies [Eh]
    ---------------------

    Doubly Occupied:

       1A    -20.616735     2A    -20.545830     3A    -11.395163
       4A    -11.261473     5A    -11.261194     6A    -11.259150
       7A    -11.257806     8A    -11.251371     9A    -11.250532
      10A     -1.456282    11A     -1.343692    12A     -1.172965
      13A     -1.054827    14A     -1.033021    15A     -0.903827
      16A     -0.846902    17A     -0.802255    18A     -0.731529
      19A     -0.703004    20A     -0.676537    21A     -0.641880
      22A     -0.629650    23A     -0.625900    24A     -0.605826
      25A     -0.585177    26A     -0.528559    27A     -0.520727
      28A     -0.510204    29A     -0.477755    30A     -0.456224
      31A     -0.358067    32A     -0.352409

  @DF-RHF Final Energy:  -418.47015750680811

   => Energetics <=

    Nuclear Repulsion Energy =            404.2885351353857004
    One-Electron Energy =               -1371.2844376935127002
    Two-Electron Energy =                 548.5257450513188360
    Total Energy =                       -418.4701575068081638
  Basis Set: (AUG-CC-PVTZ AUX)
    Blend: AUG-CC-PVTZ-RI
    Molecular point group: c1

    Geometry (in Angstrom), charge = 0, multiplicity = 1:

       Center              X                  Y                   Z               Mass
    ------------   -----------------  -----------------  -----------------  -----------------
         O           -2.265352851334    -1.106303319741    -0.000327309735    15.994914619570
         O           -2.298899851334     1.156451680259     0.000037690265    15.994914619570
         C           -0.179603851334     0.020355680259    -0.000013309735    12.000000000000
         C            0.546910148666     1.217240680259    -0.000156309735    12.000000000000
         C            0.484979148666    -1.212614319741     0.000227690265    12.000000000000
         C            1.939557148666     1.179811680259    -0.000079309735    12.000000000000
         C            1.879305148666    -1.239439319741     0.000313690265    12.000000000000
         C            2.608120148666    -0.047489319741     0.000159690265    12.000000000000
         C           -1.640163351334     0.103573880259    -0.000084509735    12.000000000000
         H            0.006217148666     2.159506680259    -0.000323309735     1.007825032230
         H           -0.086280851334    -2.135532319741     0.000337690265     1.007825032230
         H            2.505433148666     2.108065680259    -0.000201309735     1.007825032230
         H            2.399509148666    -2.194090319741     0.000508690265     1.007825032230
         H            3.695180148666    -0.075045319741     0.000224690265     1.007825032230
         H           -3.225907851334    -0.914065319741    -0.000327309735     1.007825032230

  Basis Set: AUG-CC-PVTZ
    Blend: AUG-CC-PVTZ
  Basis Set: (AUG-CC-PVTZ AUX)
    Blend: AUG-CC-PVTZ-JKFIT
	 Reference Energy          =    -418.4701575068081070 [Eh]
	 Singles Energy            =      -0.0000000000000000 [Eh]
	 Same-Spin Energy          =      -0.4353266329891543 [Eh]
	 Opposite-Spin Energy      =      -1.3163343578619471 [Eh]
	 Correlation Energy        =      -1.7516609908511014 [Eh]
	 Total Energy              =    -420.2218184976592283 [Eh]

	 ================> DF-SCS-MP2 Energies <==================
	-----------------------------------------------------------
	 SCS Same-Spin Scale       =       0.3333333333333333 [-]
	 SCS Opposite-Spin Scale   =       1.2000000000000000 [-]
	 SCS Same-Spin Energy      =      -0.1451088776630514 [Eh]
	 SCS Opposite-Spin Energy  =      -1.5796012294343365 [Eh]
	 SCS Correlation Energy    =      -1.7247101070973878 [Eh]
	 SCS Total Energy          =    -420.1948676139055010 [Eh]
	-----------------------------------------------------------

  Dipole Moment: [D]
     X:     1.6547      Y:    -1.3852      Z:    -0.0001     Total:     2.1580

*** Psi4 exiting successfully. Buy a developer a beer!
