                               Psi4 1.3.2 release

  ==> Input File <==

--------------------------------------------------------------------------
#psi4
#
memory 32 gb

molecule  {
0 1
  O       -2.3042200    -1.0991630    -0.0003290
  O       -2.3377670     1.1635920     0.0000360
  C       -0.2184710     0.0274960    -0.0000150
  C        0.5288209     1.2115193    -0.0001554
  C        0.4461120    -1.2054740     0.0002260
  C        1.9006900     1.1869520    -0.0000810
  C        1.8404380    -1.2322990     0.0003120
  C        2.5692530    -0.0403490     0.0001580
  C       -1.7002410     0.1214410    -0.0000850
  H       -0.0326500     2.1666470    -0.0003250
  H       -0.1251480    -2.1283920     0.0003360
  H        2.4665660     2.1152060    -0.0002030
  H        2.3606420    -2.1869500     0.0005070
  H        3.6563130    -0.0679050     0.0002230
  H       -3.2647750    -0.9069250    -0.0003290
units angstrom
no_reorient  #important for SAPT in psi4, default
symmetry c1  #important for SAPT in psi4, default
}

set PROPERTIES_ORIGIN ["COM"]
properties('MP2/aug-cc-pvtz', properties = ['dipole'])
--------------------------------------------------------------------------

    Molecular point group: c1
  Charge       = 0
  Multiplicity = 1
  Basis Set: AUG-CC-PVTZ
    Blend: AUG-CC-PVTZ
  Basis Set: (AUG-CC-PVTZ AUX)
    Blend: AUG-CC-PVTZ-JKFIT

    Orbital Energies [Eh]
    ---------------------

    Doubly Occupied:

       1A    -20.617473     2A    -20.550077     3A    -11.395101
       4A    -11.259746     5A    -11.259258     6A    -11.258323
       7A    -11.254743     8A    -11.249666     9A    -11.246677
      10A     -1.461204    11A     -1.356245    12A     -1.172556
      13A     -1.050590    14A     -1.033110    15A     -0.900251
      16A     -0.843705    17A     -0.801961    18A     -0.730874
      19A     -0.705255    20A     -0.674947    21A     -0.640099
      22A     -0.632871    23A     -0.629027    24A     -0.602479
      25A     -0.587427    26A     -0.530116    27A     -0.520773
      28A     -0.504541    29A     -0.484604    30A     -0.458405
      31A     -0.356319    32A     -0.352849

  @DF-RHF Final Energy:  -418.47237989436900

   => Energetics <=

    Nuclear Repulsion Energy =            404.4616490371572581
    One-Electron Energy =               -1371.6255167236508896
    Two-Electron Energy =                 548.6914877921246898
    Total Energy =                       -418.4723798943689417
  Basis Set: (AUG-CC-PVTZ AUX)
    Blend: AUG-CC-PVTZ-RI
    Molecular point group: c1

    Geometry (in Angstrom), charge = 0, multiplicity = 1:

       Center              X                  Y                   Z               Mass
    ------------   -----------------  -----------------  -----------------  -----------------
         O           -2.265310313338    -1.106093392864    -0.000327683392    15.994914619570
         O           -2.298857313338     1.156661607136     0.000037316608    15.994914619570
         C           -0.179561313338     0.020565607136    -0.000013683392    12.000000000000
         C            0.567730586662     1.204588907136    -0.000154083392    12.000000000000
         C            0.485021686662    -1.212404392864     0.000227316608    12.000000000000
         C            1.939599686662     1.180021607136    -0.000079683392    12.000000000000
         C            1.879347686662    -1.239229392864     0.000313316608    12.000000000000
         C            2.608162686662    -0.047279392864     0.000159316608    12.000000000000
         C           -1.661331313338     0.114510607136    -0.000083683392    12.000000000000
         H            0.006259686662     2.159716607136    -0.000323683392     1.007825032230
         H           -0.086238313338    -2.135322392864     0.000337316608     1.007825032230
         H            2.505475686662     2.108275607136    -0.000201683392     1.007825032230
         H            2.399551686662    -2.193880392864     0.000508316608     1.007825032230
         H            3.695222686662    -0.074835392864     0.000224316608     1.007825032230
         H           -3.225865313338    -0.913855392864    -0.000327683392     1.007825032230

  Basis Set: AUG-CC-PVTZ
    Blend: AUG-CC-PVTZ
  Basis Set: (AUG-CC-PVTZ AUX)
    Blend: AUG-CC-PVTZ-JKFIT
	 Reference Energy          =    -418.4723798943689985 [Eh]
	 Singles Energy            =      -0.0000000000000000 [Eh]
	 Same-Spin Energy          =      -0.4348439435992243 [Eh]
	 Opposite-Spin Energy      =      -1.3152602569403937 [Eh]
	 Correlation Energy        =      -1.7501042005396181 [Eh]
	 Total Energy              =    -420.2224840949086229 [Eh]

	 ================> DF-SCS-MP2 Energies <==================
	-----------------------------------------------------------
	 SCS Same-Spin Scale       =       0.3333333333333333 [-]
	 SCS Opposite-Spin Scale   =       1.2000000000000000 [-]
	 SCS Same-Spin Energy      =      -0.1449479811997414 [Eh]
	 SCS Opposite-Spin Energy  =      -1.5783123083284725 [Eh]
	 SCS Correlation Energy    =      -1.7232602895282139 [Eh]
	 SCS Total Energy          =    -420.1956401838972397 [Eh]
	-----------------------------------------------------------

  Dipole Moment: [D]
     X:     1.4655      Y:    -1.3279      Z:    -0.0001     Total:     1.9776

*** Psi4 exiting successfully. Buy a developer a beer!
