                               Psi4 1.3.2 release

  ==> Input File <==

--------------------------------------------------------------------------
#psi4
#
memory 32 gb

molecule  {
0 1
  O       -2.3042200    -1.0991630    -0.0003290
  O       -2.3377670     1.1635920     0.0000360
  C       -0.2184710     0.0274960    -0.0000150
  C        0.5080430     1.2243810    -0.0001580
  C        0.4461120    -1.2054740     0.0002260
  C        1.9006900     1.1869520    -0.0000810
  C        1.8404380    -1.2322990     0.0003120
  C        2.5692530    -0.0403490     0.0001580
  C       -1.6165672     0.0763362    -0.0000902
  H       -0.0326500     2.1666470    -0.0003250
  H       -0.1251480    -2.1283920     0.0003360
  H        2.4665660     2.1152060    -0.0002030
  H        2.3606420    -2.1869500     0.0005070
  H        3.6563130    -0.0679050     0.0002230
  H       -3.2647750    -0.9069250    -0.0003290
units angstrom
no_reorient  #important for SAPT in psi4, default
symmetry c1  #important for SAPT in psi4, default
}

set PROPERTIES_ORIGIN ["COM"]
properties('MP2/aug-cc-pvtz', properties = ['dipole'])
--------------------------------------------------------------------------

    Molecular point group: c1
  Charge       = 0
  Multiplicity = 1
  Basis Set: AUG-CC-PVTZ
    Blend: AUG-CC-PVTZ
  Basis Set: (AUG-CC-PVTZ AUX)
    Blend: AUG-CC-PVTZ-JKFIT

    Orbital Energies [Eh]
    ---------------------

    Doubly Occupied:

       1A    -20.615231     2A    -20.532778     3A    -11.395870
       4A    -11.268327     5A    -11.268009     6A    -11.265019
       7A    -11.257806     8A    -11.255286     9A    -11.254506
      10A     -1.445436    11A     -1.304559    12A     -1.180321
      13A     -1.068202    14A     -1.038140    15A     -0.916069
      16A     -0.852839    17A     -0.805724    18A     -0.736404
      19A     -0.700036    20A     -0.676340    21A     -0.646196
      22A     -0.625424    23A     -0.622821    24A     -0.609304
      25A     -0.572610    26A     -0.532012    27A     -0.524896
      28A     -0.513190    29A     -0.458367    30A     -0.445321
      31A     -0.362209    32A     -0.356494

  @DF-RHF Final Energy:  -418.45143018136690

   => Energetics <=

    Nuclear Repulsion Energy =            404.5098983064382310
    One-Electron Energy =               -1371.7111658196506596
    Two-Electron Energy =                 548.7498373318454696
    Total Energy =                       -418.4514301813669590
  Basis Set: (AUG-CC-PVTZ AUX)
    Blend: AUG-CC-PVTZ-RI
    Molecular point group: c1

    Geometry (in Angstrom), charge = 0, multiplicity = 1:

       Center              X                  Y                   Z               Mass
    ------------   -----------------  -----------------  -----------------  -----------------
         O           -2.271494930824    -1.102922896217    -0.000326916411    15.994914619570
         O           -2.305041930824     1.159832103783     0.000038083589    15.994914619570
         C           -0.185745930824     0.023736103783    -0.000012916411    12.000000000000
         C            0.540768069176     1.220621103783    -0.000155916411    12.000000000000
         C            0.478837069176    -1.209233896217     0.000228083589    12.000000000000
         C            1.933415069176     1.183192103783    -0.000078916411    12.000000000000
         C            1.873163069176    -1.236058896217     0.000314083589    12.000000000000
         C            2.601978069176    -0.044108896217     0.000160083589    12.000000000000
         C           -1.583842130824     0.072576303783    -0.000088116411    12.000000000000
         H            0.000075069176     2.162887103783    -0.000322916411     1.007825032230
         H           -0.092422930824    -2.132151896217     0.000338083589     1.007825032230
         H            2.499291069176     2.111446103783    -0.000200916411     1.007825032230
         H            2.393367069176    -2.190709896217     0.000509083589     1.007825032230
         H            3.689038069176    -0.071664896217     0.000225083589     1.007825032230
         H           -3.232049930824    -0.910684896217    -0.000326916411     1.007825032230

  Basis Set: AUG-CC-PVTZ
    Blend: AUG-CC-PVTZ
  Basis Set: (AUG-CC-PVTZ AUX)
    Blend: AUG-CC-PVTZ-JKFIT
	 Reference Energy          =    -418.4514301813669022 [Eh]
	 Singles Energy            =      -0.0000000000000000 [Eh]
	 Same-Spin Energy          =      -0.4370225181150956 [Eh]
	 Opposite-Spin Energy      =      -1.3197780228291582 [Eh]
	 Correlation Energy        =      -1.7568005409442538 [Eh]
	 Total Energy              =    -420.2082307223111570 [Eh]

	 ================> DF-SCS-MP2 Energies <==================
	-----------------------------------------------------------
	 SCS Same-Spin Scale       =       0.3333333333333333 [-]
	 SCS Opposite-Spin Scale   =       1.2000000000000000 [-]
	 SCS Same-Spin Energy      =      -0.1456741727050319 [Eh]
	 SCS Opposite-Spin Energy  =      -1.5837336273949898 [Eh]
	 SCS Correlation Energy    =      -1.7294078001000217 [Eh]
	 SCS Total Energy          =    -420.1808379814669365 [Eh]
	-----------------------------------------------------------

  Dipole Moment: [D]
     X:     2.1897      Y:    -1.5740      Z:    -0.0001     Total:     2.6967

*** Psi4 exiting successfully. Buy a developer a beer!
