                               Psi4 1.4a3.dev225

  ==> Input File <==

--------------------------------------------------------------------------
#psi4
#
memory 32 gb

molecule  {
0 1
  O       -2.3041980    -1.0991920    -0.0000450
  O       -2.3377760     1.1635870    -0.0002980
  C       -0.2184880     0.0275040    -0.0000190
  C        0.5080600     1.2243720    -0.0001140
  C        0.4460610    -1.2054670     0.0001810
  C        1.9006990     1.1869660    -0.0000100
  C        1.8403900    -1.2323150     0.0002850
  C        2.5692320    -0.0403680     0.0001900
  C       -1.6913151     0.1394156    -0.0001373
  H       -0.0325870     2.1666660    -0.0002690
  H       -0.1251250    -2.1284350     0.0002540
  H        2.4666520     2.1151670    -0.0000840
  H        2.3606240    -2.1869430     0.0004410
  H        3.6562990    -0.0679320     0.0002710
  H       -3.2646810    -0.9067680    -0.0001340
units angstrom
no_reorient  #important for SAPT in psi4, default
symmetry c1  #important for SAPT in psi4, default
}

set PROPERTIES_ORIGIN ["COM"]
properties('MP2/aug-cc-pvtz', properties = ['dipole'])
--------------------------------------------------------------------------

    Molecular point group: c1
  Charge       = 0
  Multiplicity = 1
  Basis Set: AUG-CC-PVTZ
    Blend: AUG-CC-PVTZ
  Basis Set: (AUG-CC-PVTZ AUX)
    Blend: AUG-CC-PVTZ-JKFIT

    Orbital Energies [Eh]
    ---------------------

    Doubly Occupied:

       1A    -20.611217     2A    -20.552612     3A    -11.393852
       4A    -11.260366     5A    -11.259789     6A    -11.258886
       7A    -11.256605     8A    -11.250633     9A    -11.249736
      10A     -1.455840    11A     -1.357704    12A     -1.171554
      13A     -1.052062    14A     -1.032047    15A     -0.898978
      16A     -0.845764    17A     -0.797973    18A     -0.729439
      19A     -0.703550    20A     -0.675575    21A     -0.641487
      22A     -0.628827    23A     -0.627313    24A     -0.605685
      25A     -0.588427    26A     -0.529286    27A     -0.519220
      28A     -0.509717    29A     -0.486860    30A     -0.459043
      31A     -0.357336    32A     -0.351669

  @DF-RHF Final Energy:  -418.47263191797737

   => Energetics <=

    Nuclear Repulsion Energy =            404.2788565606137468
    One-Electron Energy =               -1371.2648692926863987
    Two-Electron Energy =                 548.5133808140952851
    Total Energy =                       -418.4726319179773100
  Basis Set: (AUG-CC-PVTZ AUX)
    Blend: AUG-CC-PVTZ-RI
    Molecular point group: c1

    Geometry (in Angstrom), charge = 0, multiplicity = 1:

       Center              X                  Y                   Z               Mass
    ------------   -----------------  -----------------  -----------------  -----------------
         O           -2.264115615765    -1.109149237342    -0.000040942965    15.994914619570
         O           -2.297693615765     1.153629762658    -0.000293942965    15.994914619570
         C           -0.178405615765     0.017546762658    -0.000014942965    12.000000000000
         C            0.548142384235     1.214414762658    -0.000109942965    12.000000000000
         C            0.486143384235    -1.215424237342     0.000185057035    12.000000000000
         C            1.940781384235     1.177008762658    -0.000005942965    12.000000000000
         C            1.880472384235    -1.242272237342     0.000289057035    12.000000000000
         C            2.609314384235    -0.050325237342     0.000194057035    12.000000000000
         C           -1.651232715765     0.129458362658    -0.000133242965    12.000000000000
         H            0.007495384235     2.156708762658    -0.000264942965     1.007825032230
         H           -0.085042615765    -2.138392237342     0.000258057035     1.007825032230
         H            2.506734384235     2.105209762658    -0.000079942965     1.007825032230
         H            2.400706384235    -2.196900237342     0.000445057035     1.007825032230
         H            3.696381384235    -0.077889237342     0.000275057035     1.007825032230
         H           -3.224598615765    -0.916725237342    -0.000129942965     1.007825032230

  Basis Set: AUG-CC-PVTZ
    Blend: AUG-CC-PVTZ
  Basis Set: (AUG-CC-PVTZ AUX)
    Blend: AUG-CC-PVTZ-JKFIT
	 Reference Energy          =    -418.4726319179773668 [Eh]
	 Singles Energy            =      -0.0000000000000000 [Eh]
	 Same-Spin Energy          =      -0.4347966980667931 [Eh]
	 Opposite-Spin Energy      =      -1.3153847623205650 [Eh]
	 Correlation Energy        =      -1.7501814603873580 [Eh]
	 Total Energy              =    -420.2228133783647195 [Eh]

	 ================> DF-SCS-MP2 Energies <==================
	-----------------------------------------------------------
	 SCS Same-Spin Scale       =       0.3333333333333333 [-]
	 SCS Opposite-Spin Scale   =       1.2000000000000000 [-]
	 SCS Same-Spin Energy      =      -0.1449322326889310 [Eh]
	 SCS Opposite-Spin Energy  =      -1.5784617147846780 [Eh]
	 SCS Correlation Energy    =      -1.7233939474736091 [Eh]
	 SCS Total Energy          =    -420.1960258654509630 [Eh]
	-----------------------------------------------------------

  Dipole Moment: [D]
     X:     1.5717      Y:    -1.1810      Z:     0.0002     Total:     1.9659

*** Psi4 exiting successfully. Buy a developer a beer!
