                               Psi4 1.3.2 release

  ==> Input File <==

--------------------------------------------------------------------------
#psi4
#
memory 32 gb

molecule  {
0 1
  O       -2.3042200    -1.0991630    -0.0003290
  O       -2.3377670     1.1635920     0.0000360
  C       -0.2184710     0.0274960    -0.0000150
  C        0.5080430     1.2243810    -0.0001580
  C        0.4461120    -1.2054740     0.0002260
  C        1.9006900     1.1869520    -0.0000810
  C        1.8404380    -1.2322990     0.0003120
  C        2.5692530    -0.0403490     0.0001580
  C       -1.5958728    -0.0491676    -0.0001048
  H       -0.0326500     2.1666470    -0.0003250
  H       -0.1251480    -2.1283920     0.0003360
  H        2.4665660     2.1152060    -0.0002030
  H        2.3606420    -2.1869500     0.0005070
  H        3.6563130    -0.0679050     0.0002230
  H       -3.2647750    -0.9069250    -0.0003290
units angstrom
no_reorient  #important for SAPT in psi4, default
symmetry c1  #important for SAPT in psi4, default
}

set PROPERTIES_ORIGIN ["COM"]
properties('MP2/aug-cc-pvtz', properties = ['dipole'])
--------------------------------------------------------------------------

    Molecular point group: c1
  Charge       = 0
  Multiplicity = 1
  Basis Set: AUG-CC-PVTZ
    Blend: AUG-CC-PVTZ
  Basis Set: (AUG-CC-PVTZ AUX)
    Blend: AUG-CC-PVTZ-JKFIT

    Orbital Energies [Eh]
    ---------------------

    Doubly Occupied:

       1A    -20.640757     2A    -20.504502     3A    -11.396894
       4A    -11.271440     5A    -11.270176     6A    -11.268074
       7A    -11.258537     8A    -11.256457     9A    -11.256192
      10A     -1.495074    11A     -1.241075    12A     -1.180930
      13A     -1.073762    14A     -1.039546    15A     -0.930579
      16A     -0.855604    17A     -0.831158    18A     -0.751367
      19A     -0.709680    20A     -0.688938    21A     -0.650347
      22A     -0.649219    23A     -0.628656    24A     -0.610432
      25A     -0.547429    26A     -0.528961    27A     -0.528558
      28A     -0.495020    29A     -0.426959    30A     -0.418383
      31A     -0.361623    32A     -0.355048

  @DF-RHF Final Energy:  -418.40776979758829

   => Energetics <=

    Nuclear Repulsion Energy =            404.7788249552748994
    One-Electron Energy =               -1372.1304306444933445
    Two-Electron Energy =                 548.9438358916301013
    Total Energy =                       -418.4077697975883439
  Basis Set: (AUG-CC-PVTZ AUX)
    Blend: AUG-CC-PVTZ-RI
    Molecular point group: c1

    Geometry (in Angstrom), charge = 0, multiplicity = 1:

       Center              X                  Y                   Z               Mass
    ------------   -----------------  -----------------  -----------------  -----------------
         O           -2.273529832115    -1.090581980577    -0.000325480778    15.994914619570
         O           -2.307076832115     1.172173019423     0.000039519222    15.994914619570
         C           -0.187780832115     0.036077019423    -0.000011480778    12.000000000000
         C            0.538733167885     1.232962019423    -0.000154480778    12.000000000000
         C            0.476802167885    -1.196892980577     0.000229519222    12.000000000000
         C            1.931380167885     1.195533019423    -0.000077480778    12.000000000000
         C            1.871128167885    -1.223717980577     0.000315519222    12.000000000000
         C            2.599943167885    -0.031767980577     0.000161519222    12.000000000000
         C           -1.565182632115    -0.040586580577    -0.000101280778    12.000000000000
         H           -0.001959832115     2.175228019423    -0.000321480778     1.007825032230
         H           -0.094457832115    -2.119810980577     0.000339519222     1.007825032230
         H            2.497256167885     2.123787019423    -0.000199480778     1.007825032230
         H            2.391332167885    -2.178368980577     0.000510519222     1.007825032230
         H            3.687003167885    -0.059323980577     0.000226519222     1.007825032230
         H           -3.234084832115    -0.898343980577    -0.000325480778     1.007825032230

  Basis Set: AUG-CC-PVTZ
    Blend: AUG-CC-PVTZ
  Basis Set: (AUG-CC-PVTZ AUX)
    Blend: AUG-CC-PVTZ-JKFIT
	 Reference Energy          =    -418.4077697975882870 [Eh]
	 Singles Energy            =      -0.0000000000000000 [Eh]
	 Same-Spin Energy          =      -0.4388151738689445 [Eh]
	 Opposite-Spin Energy      =      -1.3226472921433086 [Eh]
	 Correlation Energy        =      -1.7614624660122531 [Eh]
	 Total Energy              =    -420.1692322636005201 [Eh]

	 ================> DF-SCS-MP2 Energies <==================
	-----------------------------------------------------------
	 SCS Same-Spin Scale       =       0.3333333333333333 [-]
	 SCS Opposite-Spin Scale   =       1.2000000000000000 [-]
	 SCS Same-Spin Energy      =      -0.1462717246229815 [Eh]
	 SCS Opposite-Spin Energy  =      -1.5871767505719703 [Eh]
	 SCS Correlation Energy    =      -1.7334484751949517 [Eh]
	 SCS Total Energy          =    -420.1412182727832487 [Eh]
	-----------------------------------------------------------

  Dipole Moment: [D]
     X:     2.2333      Y:    -2.3925      Z:    -0.0002     Total:     3.2729

*** Psi4 exiting successfully. Buy a developer a beer!
