                               Psi4 1.4a3.dev225

  ==> Input File <==

--------------------------------------------------------------------------
#psi4
#
memory 32 gb

molecule  {
0 1
  O       -2.3041980    -1.0991920    -0.0000450
  O       -2.3377760     1.1635870    -0.0002980
  C       -0.2184880     0.0275040    -0.0000190
  C        0.5080600     1.2243720    -0.0001140
  C        0.4460610    -1.2054670     0.0001810
  C        1.9006990     1.1869660    -0.0000100
  C        1.8403900    -1.2323150     0.0002850
  C        2.5692320    -0.0403680     0.0001900
  C       -1.7001850     0.1214900    -0.0001360
  H       -0.0325870     2.1666660    -0.0002690
  H       -0.1251250    -2.1284350     0.0002540
  H        2.4666520     2.1151670    -0.0000840
  H        2.3606240    -2.1869430     0.0004410
  H        3.6562990    -0.0679320     0.0002710
  H       -3.2450707    -0.9106967    -0.0001322
units angstrom
no_reorient  #important for SAPT in psi4, default
symmetry c1  #important for SAPT in psi4, default
}

set PROPERTIES_ORIGIN ["COM"]
properties('MP2/aug-cc-pvtz', properties = ['dipole'])
--------------------------------------------------------------------------

    Molecular point group: c1
  Charge       = 0
  Multiplicity = 1
  Basis Set: AUG-CC-PVTZ
    Blend: AUG-CC-PVTZ
  Basis Set: (AUG-CC-PVTZ AUX)
    Blend: AUG-CC-PVTZ-JKFIT

    Orbital Energies [Eh]
    ---------------------

    Doubly Occupied:

       1A    -20.615917     2A    -20.550245     3A    -11.394959
       4A    -11.259829     5A    -11.259106     6A    -11.258652
       7A    -11.255994     8A    -11.250203     9A    -11.249358
      10A     -1.464089    11A     -1.358026    12A     -1.170790
      13A     -1.051028    14A     -1.031498    15A     -0.901411
      16A     -0.845322    17A     -0.802949    18A     -0.731167
      19A     -0.707418    20A     -0.676434    21A     -0.641263
      22A     -0.633378    23A     -0.627318    24A     -0.605116
      25A     -0.588088    26A     -0.528296    27A     -0.519649
      28A     -0.509035    29A     -0.484874    30A     -0.458458
      31A     -0.356586    32A     -0.351156

  @DF-RHF Final Energy:  -418.47387218690255

   => Energetics <=

    Nuclear Repulsion Energy =            404.3627706212784574
    One-Electron Energy =               -1371.3980637791917161
    Two-Electron Energy =                 548.5614209710106479
    Total Energy =                       -418.4738721869025539
  Basis Set: (AUG-CC-PVTZ AUX)
    Blend: AUG-CC-PVTZ-RI
    Molecular point group: c1

    Geometry (in Angstrom), charge = 0, multiplicity = 1:

       Center              X                  Y                   Z               Mass
    ------------   -----------------  -----------------  -----------------  -----------------
         O           -2.263405378661    -1.107354150294    -0.000041085660    15.994914619570
         O           -2.296983378661     1.155424849706    -0.000294085660    15.994914619570
         C           -0.177695378661     0.019341849706    -0.000015085660    12.000000000000
         C            0.548852621339     1.216209849706    -0.000110085660    12.000000000000
         C            0.486853621339    -1.213629150294     0.000184914340    12.000000000000
         C            1.941491621339     1.178803849706    -0.000006085660    12.000000000000
         C            1.881182621339    -1.240477150294     0.000288914340    12.000000000000
         C            2.610024621339    -0.048530150294     0.000193914340    12.000000000000
         C           -1.659392378661     0.113327849706    -0.000132085660    12.000000000000
         H            0.008205621339     2.158503849706    -0.000265085660     1.007825032230
         H           -0.084332378661    -2.136597150294     0.000257914340     1.007825032230
         H            2.507444621339     2.107004849706    -0.000080085660     1.007825032230
         H            2.401416621339    -2.195105150294     0.000444914340     1.007825032230
         H            3.697091621339    -0.076094150294     0.000274914340     1.007825032230
         H           -3.204278078661    -0.918858850294    -0.000128285660     1.007825032230

  Basis Set: AUG-CC-PVTZ
    Blend: AUG-CC-PVTZ
  Basis Set: (AUG-CC-PVTZ AUX)
    Blend: AUG-CC-PVTZ-JKFIT
	 Reference Energy          =    -418.4738721869025539 [Eh]
	 Singles Energy            =      -0.0000000000000000 [Eh]
	 Same-Spin Energy          =      -0.4345733514390681 [Eh]
	 Opposite-Spin Energy      =      -1.3147246530784598 [Eh]
	 Correlation Energy        =      -1.7492980045175277 [Eh]
	 Total Energy              =    -420.2231701914200812 [Eh]

	 ================> DF-SCS-MP2 Energies <==================
	-----------------------------------------------------------
	 SCS Same-Spin Scale       =       0.3333333333333333 [-]
	 SCS Opposite-Spin Scale   =       1.2000000000000000 [-]
	 SCS Same-Spin Energy      =      -0.1448577838130227 [Eh]
	 SCS Opposite-Spin Energy  =      -1.5776695836941517 [Eh]
	 SCS Correlation Energy    =      -1.7225273675071744 [Eh]
	 SCS Total Energy          =    -420.1963995544097088 [Eh]
	-----------------------------------------------------------

  Dipole Moment: [D]
     X:     1.4990      Y:    -1.3160      Z:     0.0003     Total:     1.9947

*** Psi4 exiting successfully. Buy a developer a beer!
