                               Psi4 1.4a3.dev225

  ==> Input File <==

--------------------------------------------------------------------------
#psi4
#
memory 32 gb

molecule  {
0 1
  O       -2.3041980    -1.0991920    -0.0000450
  O       -2.3377760     1.1635870    -0.0002980
  C       -0.2184880     0.0275040    -0.0000190
  C        0.5080600     1.2243720    -0.0001140
  C        0.4460610    -1.2054670     0.0001810
  C        1.9006990     1.1869660    -0.0000100
  C        1.8403900    -1.2323150     0.0002850
  C        2.5692320    -0.0403680     0.0001900
  C       -1.7106230     0.1385501    -0.0001387
  H       -0.0325870     2.1666660    -0.0002690
  H       -0.1251250    -2.1284350     0.0002540
  H        2.4666520     2.1151670    -0.0000840
  H        2.3606240    -2.1869430     0.0004410
  H        3.6562990    -0.0679320     0.0002710
  H       -3.2646810    -0.9067680    -0.0001340
units angstrom
no_reorient  #important for SAPT in psi4, default
symmetry c1  #important for SAPT in psi4, default
}

set PROPERTIES_ORIGIN ["COM"]
properties('MP2/aug-cc-pvtz', properties = ['dipole'])
--------------------------------------------------------------------------

    Molecular point group: c1
  Charge       = 0
  Multiplicity = 1
  Basis Set: AUG-CC-PVTZ
    Blend: AUG-CC-PVTZ
  Basis Set: (AUG-CC-PVTZ AUX)
    Blend: AUG-CC-PVTZ-JKFIT

    Orbital Energies [Eh]
    ---------------------

    Doubly Occupied:

       1A    -20.614325     2A    -20.554143     3A    -11.393673
       4A    -11.259253     5A    -11.257900     6A    -11.257828
       7A    -11.254802     8A    -11.249465     9A    -11.248599
      10A     -1.462421    11A     -1.365214    12A     -1.169457
      13A     -1.048429    14A     -1.030558    15A     -0.896150
      16A     -0.844053    17A     -0.798554    18A     -0.729766
      19A     -0.706124    20A     -0.675639    21A     -0.640699
      22A     -0.633080    23A     -0.628150    24A     -0.604699
      25A     -0.588215    26A     -0.528614    27A     -0.518388
      28A     -0.508368    29A     -0.490315    30A     -0.459305
      31A     -0.355718    32A     -0.350397

  @DF-RHF Final Energy:  -418.47369867914438

   => Energetics <=

    Nuclear Repulsion Energy =            404.2277843432927398
    One-Electron Energy =               -1371.1583596657003454
    Two-Electron Energy =                 548.4568766432631719
    Total Energy =                       -418.4736986791443769
  Basis Set: (AUG-CC-PVTZ AUX)
    Blend: AUG-CC-PVTZ-RI
    Molecular point group: c1

    Geometry (in Angstrom), charge = 0, multiplicity = 1:

       Center              X                  Y                   Z               Mass
    ------------   -----------------  -----------------  -----------------  -----------------
         O           -2.262217050422    -1.109064131852    -0.000040805301    15.994914619570
         O           -2.295795050422     1.153714868148    -0.000293805301    15.994914619570
         C           -0.176507050422     0.017631868148    -0.000014805301    12.000000000000
         C            0.550040949578     1.214499868148    -0.000109805301    12.000000000000
         C            0.488041949578    -1.215339131852     0.000185194699    12.000000000000
         C            1.942679949578     1.177093868148    -0.000005805301    12.000000000000
         C            1.882370949578    -1.242187131852     0.000289194699    12.000000000000
         C            2.611212949578    -0.050240131852     0.000194194699    12.000000000000
         C           -1.668642050422     0.128677968148    -0.000134505301    12.000000000000
         H            0.009393949578     2.156793868148    -0.000264805301     1.007825032230
         H           -0.083144050422    -2.138307131852     0.000258194699     1.007825032230
         H            2.508632949578     2.105294868148    -0.000079805301     1.007825032230
         H            2.402604949578    -2.196815131852     0.000445194699     1.007825032230
         H            3.698279949578    -0.077804131852     0.000275194699     1.007825032230
         H           -3.222700050422    -0.916640131852    -0.000129805301     1.007825032230

  Basis Set: AUG-CC-PVTZ
    Blend: AUG-CC-PVTZ
  Basis Set: (AUG-CC-PVTZ AUX)
    Blend: AUG-CC-PVTZ-JKFIT
	 Reference Energy          =    -418.4736986791443769 [Eh]
	 Singles Energy            =      -0.0000000000000000 [Eh]
	 Same-Spin Energy          =      -0.4344805381932485 [Eh]
	 Opposite-Spin Energy      =      -1.3146700408051661 [Eh]
	 Correlation Energy        =      -1.7491505789984148 [Eh]
	 Total Energy              =    -420.2228492581427872 [Eh]

	 ================> DF-SCS-MP2 Energies <==================
	-----------------------------------------------------------
	 SCS Same-Spin Scale       =       0.3333333333333333 [-]
	 SCS Opposite-Spin Scale   =       1.2000000000000000 [-]
	 SCS Same-Spin Energy      =      -0.1448268460644161 [Eh]
	 SCS Opposite-Spin Energy  =      -1.5776040489661993 [Eh]
	 SCS Correlation Energy    =      -1.7224308950306155 [Eh]
	 SCS Total Energy          =    -420.1961295741750178 [Eh]
	-----------------------------------------------------------

  Dipole Moment: [D]
     X:     1.3902      Y:    -1.1961      Z:     0.0002     Total:     1.8340

*** Psi4 exiting successfully. Buy a developer a beer!
