                               Psi4 1.3.2 release

  ==> Input File <==

--------------------------------------------------------------------------
#psi4
#
memory 32 gb

molecule  {
0 1
  O       -2.3878938    -1.0540582    -0.0003280
  O       -2.3377670     1.1635920     0.0000360
  C       -0.2184710     0.0274960    -0.0000150
  C        0.5080430     1.2243810    -0.0001580
  C        0.4461120    -1.2054740     0.0002260
  C        1.9006900     1.1869520    -0.0000810
  C        1.8404380    -1.2322990     0.0003120
  C        2.5692530    -0.0403490     0.0001580
  C       -1.7002410     0.1214410    -0.0000850
  H       -0.0326500     2.1666470    -0.0003250
  H       -0.1251480    -2.1283920     0.0003360
  H        2.4665660     2.1152060    -0.0002030
  H        2.3606420    -2.1869500     0.0005070
  H        3.6563130    -0.0679050     0.0002230
  H       -3.2647750    -0.9069250    -0.0003290
units angstrom
no_reorient  #important for SAPT in psi4, default
symmetry c1  #important for SAPT in psi4, default
}

set PROPERTIES_ORIGIN ["COM"]
properties('MP2/aug-cc-pvtz', properties = ['dipole'])
--------------------------------------------------------------------------

    Molecular point group: c1
  Charge       = 0
  Multiplicity = 1
  Basis Set: AUG-CC-PVTZ
    Blend: AUG-CC-PVTZ
  Basis Set: (AUG-CC-PVTZ AUX)
    Blend: AUG-CC-PVTZ-JKFIT

    Orbital Energies [Eh]
    ---------------------

    Doubly Occupied:

       1A    -20.603703     2A    -20.545249     3A    -11.394852
       4A    -11.263529     5A    -11.261598     6A    -11.260970
       7A    -11.258433     8A    -11.251951     9A    -11.251196
      10A     -1.471345    11A     -1.356761    12A     -1.173062
      13A     -1.053839    14A     -1.033468    15A     -0.910100
      16A     -0.848169    17A     -0.815246    18A     -0.736467
      19A     -0.706536    20A     -0.678012    21A     -0.643172
      22A     -0.631862    23A     -0.628076    24A     -0.605926
      25A     -0.588068    26A     -0.529099    27A     -0.521791
      28A     -0.510888    29A     -0.481124    30A     -0.456229
      31A     -0.358521    32A     -0.352935

  @DF-RHF Final Energy:  -418.46946792183957

   => Energetics <=

    Nuclear Repulsion Energy =            404.0372632260604178
    One-Electron Energy =               -1370.6491032537335286
    Two-Electron Energy =                 548.1423721058336014
    Total Energy =                       -418.4694679218395095
  Basis Set: (AUG-CC-PVTZ AUX)
    Blend: AUG-CC-PVTZ-RI
    Molecular point group: c1

    Geometry (in Angstrom), charge = 0, multiplicity = 1:

       Center              X                  Y                   Z               Mass
    ------------   -----------------  -----------------  -----------------  -----------------
         O           -2.335974182281    -1.068165018111    -0.000326558798    15.994914619570
         O           -2.285847382281     1.149485181889     0.000037441202    15.994914619570
         C           -0.166551382281     0.013389181889    -0.000013558798    12.000000000000
         C            0.559962617719     1.210274181889    -0.000156558798    12.000000000000
         C            0.498031617719    -1.219580818111     0.000227441202    12.000000000000
         C            1.952609617719     1.172845181889    -0.000079558798    12.000000000000
         C            1.892357617719    -1.246405818111     0.000313441202    12.000000000000
         C            2.621172617719    -0.054455818111     0.000159441202    12.000000000000
         C           -1.648321382281     0.107334181889    -0.000083558798    12.000000000000
         H            0.019269617719     2.152540181889    -0.000323558798     1.007825032230
         H           -0.073228382281    -2.142498818111     0.000337441202     1.007825032230
         H            2.518485617719     2.101099181889    -0.000201558798     1.007825032230
         H            2.412561617719    -2.201056818111     0.000508441202     1.007825032230
         H            3.708232617719    -0.082011818111     0.000224441202     1.007825032230
         H           -3.212855382281    -0.921031818111    -0.000327558798     1.007825032230

  Basis Set: AUG-CC-PVTZ
    Blend: AUG-CC-PVTZ
  Basis Set: (AUG-CC-PVTZ AUX)
    Blend: AUG-CC-PVTZ-JKFIT
	 Reference Energy          =    -418.4694679218395663 [Eh]
	 Singles Energy            =      -0.0000000000000000 [Eh]
	 Same-Spin Energy          =      -0.4330818506486047 [Eh]
	 Opposite-Spin Energy      =      -1.3117631658109727 [Eh]
	 Correlation Energy        =      -1.7448450164595775 [Eh]
	 Total Energy              =    -420.2143129382991447 [Eh]

	 ================> DF-SCS-MP2 Energies <==================
	-----------------------------------------------------------
	 SCS Same-Spin Scale       =       0.3333333333333333 [-]
	 SCS Opposite-Spin Scale   =       1.2000000000000000 [-]
	 SCS Same-Spin Energy      =      -0.1443606168828682 [Eh]
	 SCS Opposite-Spin Energy  =      -1.5741157989731673 [Eh]
	 SCS Correlation Energy    =      -1.7184764158560355 [Eh]
	 SCS Total Energy          =    -420.1879443376956260 [Eh]
	-----------------------------------------------------------

  Dipole Moment: [D]
     X:     1.7322      Y:    -1.3173      Z:    -0.0000     Total:     2.1762

*** Psi4 exiting successfully. Buy a developer a beer!
