                               Psi4 1.3.2 release

  ==> Input File <==

--------------------------------------------------------------------------
#psi4
#
memory 32 gb

molecule  {
0 1
  O       -2.3042200    -1.0991630    -0.0003290
  O       -2.3377670     1.1635920     0.0000360
  C       -0.2184710     0.0274960    -0.0000150
  C        0.5080430     1.2243810    -0.0001580
  C        0.4461120    -1.2054740     0.0002260
  C        1.9006900     1.1869520    -0.0000810
  C        1.8404380    -1.2322990     0.0003120
  C        2.5692530    -0.0403490     0.0001580
  C       -1.8000406     0.1277683    -0.0000897
  H       -0.0326500     2.1666470    -0.0003250
  H       -0.1251480    -2.1283920     0.0003360
  H        2.4665660     2.1152060    -0.0002030
  H        2.3606420    -2.1869500     0.0005070
  H        3.6563130    -0.0679050     0.0002230
  H       -3.2647750    -0.9069250    -0.0003290
units angstrom
no_reorient  #important for SAPT in psi4, default
symmetry c1  #important for SAPT in psi4, default
}

set PROPERTIES_ORIGIN ["COM"]
properties('MP2/aug-cc-pvtz', properties = ['dipole'])
--------------------------------------------------------------------------

    Molecular point group: c1
  Charge       = 0
  Multiplicity = 1
  Basis Set: AUG-CC-PVTZ
    Blend: AUG-CC-PVTZ
  Basis Set: (AUG-CC-PVTZ AUX)
    Blend: AUG-CC-PVTZ-JKFIT

    Orbital Energies [Eh]
    ---------------------

    Doubly Occupied:

       1A    -20.630555     2A    -20.559987     3A    -11.394272
       4A    -11.256118     5A    -11.249713     6A    -11.249590
       7A    -11.246771     8A    -11.244164     9A    -11.243448
      10A     -1.492535    11A     -1.398551    12A     -1.160502
      13A     -1.033500    14A     -1.023893    15A     -0.886898
      16A     -0.836246    17A     -0.801939    18A     -0.736516
      19A     -0.715630    20A     -0.677556    21A     -0.654781
      22A     -0.638230    23A     -0.627928    24A     -0.600374
      25A     -0.585037    26A     -0.527503    27A     -0.516822
      28A     -0.502264    29A     -0.502123    30A     -0.452002
      31A     -0.348057    32A     -0.344649

  @DF-RHF Final Energy:  -418.46604519650327

   => Energetics <=

    Nuclear Repulsion Energy =            404.0125714312592891
    One-Electron Energy =               -1370.6809271616257320
    Two-Electron Energy =                 548.2023105338631694
    Total Energy =                       -418.4660451965032735
  Basis Set: (AUG-CC-PVTZ AUX)
    Blend: AUG-CC-PVTZ-RI
    Molecular point group: c1

    Geometry (in Angstrom), charge = 0, multiplicity = 1:

       Center              X                  Y                   Z               Mass
    ------------   -----------------  -----------------  -----------------  -----------------
         O           -2.253453805761    -1.107980266650    -0.000326965576    15.994914619570
         O           -2.287000805761     1.154774733350     0.000038034424    15.994914619570
         C           -0.167704805761     0.018678733350    -0.000012965576    12.000000000000
         C            0.558809194239     1.215563733350    -0.000155965576    12.000000000000
         C            0.496878194239    -1.214291266650     0.000228034424    12.000000000000
         C            1.951456194239     1.178134733350    -0.000078965576    12.000000000000
         C            1.891204194239    -1.241116266650     0.000314034424    12.000000000000
         C            2.620019194239    -0.049166266650     0.000160034424    12.000000000000
         C           -1.749274405761     0.118951033350    -0.000087665576    12.000000000000
         H            0.018116194239     2.157829733350    -0.000322965576     1.007825032230
         H           -0.074381805761    -2.137209266650     0.000338034424     1.007825032230
         H            2.517332194239     2.106388733350    -0.000200965576     1.007825032230
         H            2.411408194239    -2.195767266650     0.000509034424     1.007825032230
         H            3.707079194239    -0.076722266650     0.000225034424     1.007825032230
         H           -3.214008805761    -0.915742266650    -0.000326965576     1.007825032230

  Basis Set: AUG-CC-PVTZ
    Blend: AUG-CC-PVTZ
  Basis Set: (AUG-CC-PVTZ AUX)
    Blend: AUG-CC-PVTZ-JKFIT
	 Reference Energy          =    -418.4660451965032735 [Eh]
	 Singles Energy            =      -0.0000000000000000 [Eh]
	 Same-Spin Energy          =      -0.4336482102277504 [Eh]
	 Opposite-Spin Energy      =      -1.3125428967093460 [Eh]
	 Correlation Energy        =      -1.7461911069370963 [Eh]
	 Total Energy              =    -420.2122363034403634 [Eh]

	 ================> DF-SCS-MP2 Energies <==================
	-----------------------------------------------------------
	 SCS Same-Spin Scale       =       0.3333333333333333 [-]
	 SCS Opposite-Spin Scale   =       1.2000000000000000 [-]
	 SCS Same-Spin Energy      =      -0.1445494034092501 [Eh]
	 SCS Opposite-Spin Energy  =      -1.5750514760512151 [Eh]
	 SCS Correlation Energy    =      -1.7196008794604651 [Eh]
	 SCS Total Energy          =    -420.1856460759637457 [Eh]
	-----------------------------------------------------------

  Dipole Moment: [D]
     X:     0.5536      Y:    -1.3062      Z:    -0.0001     Total:     1.4187

*** Psi4 exiting successfully. Buy a developer a beer!
