                               Psi4 1.3.2 release

  ==> Input File <==

--------------------------------------------------------------------------
#psi4
#
memory 32 gb

molecule  {
0 1
  O       -2.3042200    -1.0991630    -0.0003290
  O       -2.3377670     1.1635920     0.0000360
  C       -0.2184710     0.0274960    -0.0000150
  C        0.5080430     1.2243810    -0.0001580
  C        0.4461120    -1.2054740     0.0002260
  C        1.9006900     1.1869520    -0.0000810
  C        1.8404380    -1.2322990     0.0003120
  C        2.5692530    -0.0403490     0.0001580
  C       -1.7216355     0.1317960    -0.0000839
  H       -0.0326500     2.1666470    -0.0003250
  H       -0.1251480    -2.1283920     0.0003360
  H        2.4665660     2.1152060    -0.0002030
  H        2.3606420    -2.1869500     0.0005070
  H        3.6563130    -0.0679050     0.0002230
  H       -3.2647750    -0.9069250    -0.0003290
units angstrom
no_reorient  #important for SAPT in psi4, default
symmetry c1  #important for SAPT in psi4, default
}

set PROPERTIES_ORIGIN ["COM"]
properties('MP2/aug-cc-pvtz', properties = ['dipole'])
--------------------------------------------------------------------------

    Molecular point group: c1
  Charge       = 0
  Multiplicity = 1
  Basis Set: AUG-CC-PVTZ
    Blend: AUG-CC-PVTZ
  Basis Set: (AUG-CC-PVTZ AUX)
    Blend: AUG-CC-PVTZ-JKFIT

    Orbital Energies [Eh]
    ---------------------

    Doubly Occupied:

       1A    -20.617734     2A    -20.553771     3A    -11.393910
       4A    -11.258952     5A    -11.256929     6A    -11.256814
       7A    -11.253810     8A    -11.248808     9A    -11.247971
      10A     -1.466610    11A     -1.367926    12A     -1.168308
      13A     -1.046511    14A     -1.029725    15A     -0.895397
      16A     -0.843086    17A     -0.799906    18A     -0.730396
      19A     -0.707672    20A     -0.675836    21A     -0.640097
      22A     -0.636152    23A     -0.628313    24A     -0.604019
      25A     -0.587596    26A     -0.527956    27A     -0.518107
      28A     -0.507546    29A     -0.490807    30A     -0.458864
      31A     -0.354754    32A     -0.349668

  @DF-RHF Final Energy:  -418.47391620354927

   => Energetics <=

    Nuclear Repulsion Energy =            404.1908012756770745
    One-Electron Energy =               -1371.0815336771395323
    Two-Electron Energy =                 548.4168161979131355
    Total Energy =                       -418.4739162035492654
  Basis Set: (AUG-CC-PVTZ AUX)
    Blend: AUG-CC-PVTZ-RI
    Molecular point group: c1

    Geometry (in Angstrom), charge = 0, multiplicity = 1:

       Center              X                  Y                   Z               Mass
    ------------   -----------------  -----------------  -----------------  -----------------
         O           -2.261163458576    -1.108376314466    -0.000327535896    15.994914619570
         O           -2.294710458576     1.154378685534     0.000037464104    15.994914619570
         C           -0.175414458576     0.018282685534    -0.000013535896    12.000000000000
         C            0.551099541424     1.215167685534    -0.000156535896    12.000000000000
         C            0.489168541424    -1.214687314466     0.000227464104    12.000000000000
         C            1.943746541424     1.177738685534    -0.000079535896    12.000000000000
         C            1.883494541424    -1.241512314466     0.000313464104    12.000000000000
         C            2.612309541424    -0.049562314466     0.000159464104    12.000000000000
         C           -1.678578958576     0.122582685534    -0.000082435896    12.000000000000
         H            0.010406541424     2.157433685534    -0.000323535896     1.007825032230
         H           -0.082091458576    -2.137605314466     0.000337464104     1.007825032230
         H            2.509622541424     2.105992685534    -0.000201535896     1.007825032230
         H            2.403698541424    -2.196163314466     0.000508464104     1.007825032230
         H            3.699369541424    -0.077118314466     0.000224464104     1.007825032230
         H           -3.221718458576    -0.916138314466    -0.000327535896     1.007825032230

  Basis Set: AUG-CC-PVTZ
    Blend: AUG-CC-PVTZ
  Basis Set: (AUG-CC-PVTZ AUX)
    Blend: AUG-CC-PVTZ-JKFIT
	 Reference Energy          =    -418.4739162035492654 [Eh]
	 Singles Energy            =      -0.0000000000000000 [Eh]
	 Same-Spin Energy          =      -0.4343857196917106 [Eh]
	 Opposite-Spin Energy      =      -1.3143981984862005 [Eh]
	 Correlation Energy        =      -1.7487839181779110 [Eh]
	 Total Energy              =    -420.2227001217272004 [Eh]

	 ================> DF-SCS-MP2 Energies <==================
	-----------------------------------------------------------
	 SCS Same-Spin Scale       =       0.3333333333333333 [-]
	 SCS Opposite-Spin Scale   =       1.2000000000000000 [-]
	 SCS Same-Spin Energy      =      -0.1447952398972369 [Eh]
	 SCS Opposite-Spin Energy  =      -1.5772778381834407 [Eh]
	 SCS Correlation Energy    =      -1.7220730780806774 [Eh]
	 SCS Total Energy          =    -420.1959892816299202 [Eh]
	-----------------------------------------------------------

  Dipole Moment: [D]
     X:     1.2815      Y:    -1.2520      Z:    -0.0001     Total:     1.7916

*** Psi4 exiting successfully. Buy a developer a beer!
