                               Psi4 1.3.2 release

  ==> Input File <==

--------------------------------------------------------------------------
#psi4
#
memory 32 gb

molecule  {
0 1
  O       -2.3042200    -1.0991630    -0.0003290
  O       -2.4432090     1.0912434     0.0000191
  C       -0.2184710     0.0274960    -0.0000150
  C        0.5080430     1.2243810    -0.0001580
  C        0.4461120    -1.2054740     0.0002260
  C        1.9006900     1.1869520    -0.0000810
  C        1.8404380    -1.2322990     0.0003120
  C        2.5692530    -0.0403490     0.0001580
  C       -1.7002410     0.1214410    -0.0000850
  H       -0.0326500     2.1666470    -0.0003250
  H       -0.1251480    -2.1283920     0.0003360
  H        2.4665660     2.1152060    -0.0002030
  H        2.3606420    -2.1869500     0.0005070
  H        3.6563130    -0.0679050     0.0002230
  H       -3.2647750    -0.9069250    -0.0003290
units angstrom
no_reorient  #important for SAPT in psi4, default
symmetry c1  #important for SAPT in psi4, default
}

set PROPERTIES_ORIGIN ["COM"]
properties('MP2/aug-cc-pvtz', properties = ['dipole'])
--------------------------------------------------------------------------

    Molecular point group: c1
  Charge       = 0
  Multiplicity = 1
  Basis Set: AUG-CC-PVTZ
    Blend: AUG-CC-PVTZ
  Basis Set: (AUG-CC-PVTZ AUX)
    Blend: AUG-CC-PVTZ-JKFIT

    Orbital Energies [Eh]
    ---------------------

    Doubly Occupied:

       1A    -20.605777     2A    -20.547076     3A    -11.393237
       4A    -11.264719     5A    -11.262725     6A    -11.262304
       7A    -11.260273     8A    -11.252995     9A    -11.252256
      10A     -1.460497    11A     -1.345042    12A     -1.174388
      13A     -1.054538    14A     -1.034687    15A     -0.900879
      16A     -0.848027    17A     -0.800798    18A     -0.730649
      19A     -0.699566    20A     -0.678176    21A     -0.643181
      22A     -0.629076    23A     -0.628251    24A     -0.607199
      25A     -0.587073    26A     -0.531013    27A     -0.520973
      28A     -0.512353    29A     -0.478719    30A     -0.455567
      31A     -0.360336    32A     -0.354202

  @DF-RHF Final Energy:  -418.47043557934677

   => Energetics <=

    Nuclear Repulsion Energy =            403.7290425667669069
    One-Electron Energy =               -1370.1258511849400747
    Two-Electron Energy =                 547.9263730388264548
    Total Energy =                       -418.4704355793467130
  Basis Set: (AUG-CC-PVTZ AUX)
    Blend: AUG-CC-PVTZ-RI
    Molecular point group: c1

    Geometry (in Angstrom), charge = 0, multiplicity = 1:

       Center              X                  Y                   Z               Mass
    ------------   -----------------  -----------------  -----------------  -----------------
         O           -2.249447303872    -1.097875630281    -0.000325212711    15.994914619570
         O           -2.388436303872     1.092530769719     0.000022887289    15.994914619570
         C           -0.163698303872     0.028783369719    -0.000011212711    12.000000000000
         C            0.562815696128     1.225668369719    -0.000154212711    12.000000000000
         C            0.500884696128    -1.204186630281     0.000229787289    12.000000000000
         C            1.955462696128     1.188239369719    -0.000077212711    12.000000000000
         C            1.895210696128    -1.231011630281     0.000315787289    12.000000000000
         C            2.624025696128    -0.039061630281     0.000161787289    12.000000000000
         C           -1.645468303872     0.122728369719    -0.000081212711    12.000000000000
         H            0.022122696128     2.167934369719    -0.000321212711     1.007825032230
         H           -0.070375303872    -2.127104630281     0.000339787289     1.007825032230
         H            2.521338696128     2.116493369719    -0.000199212711     1.007825032230
         H            2.415414696128    -2.185662630281     0.000510787289     1.007825032230
         H            3.711085696128    -0.066617630281     0.000226787289     1.007825032230
         H           -3.210002303872    -0.905637630281    -0.000325212711     1.007825032230

  Basis Set: AUG-CC-PVTZ
    Blend: AUG-CC-PVTZ
  Basis Set: (AUG-CC-PVTZ AUX)
    Blend: AUG-CC-PVTZ-JKFIT
	 Reference Energy          =    -418.4704355793467698 [Eh]
	 Singles Energy            =      -0.0000000000000000 [Eh]
	 Same-Spin Energy          =      -0.4346105373799122 [Eh]
	 Opposite-Spin Energy      =      -1.3149352505033705 [Eh]
	 Correlation Energy        =      -1.7495457878832827 [Eh]
	 Total Energy              =    -420.2199813672300479 [Eh]

	 ================> DF-SCS-MP2 Energies <==================
	-----------------------------------------------------------
	 SCS Same-Spin Scale       =       0.3333333333333333 [-]
	 SCS Opposite-Spin Scale   =       1.2000000000000000 [-]
	 SCS Same-Spin Energy      =      -0.1448701791266374 [Eh]
	 SCS Opposite-Spin Energy  =      -1.5779223006040446 [Eh]
	 SCS Correlation Energy    =      -1.7227924797306819 [Eh]
	 SCS Total Energy          =    -420.1932280590774553 [Eh]
	-----------------------------------------------------------

  Dipole Moment: [D]
     X:     1.9164      Y:    -1.1878      Z:    -0.0000     Total:     2.2546

*** Psi4 exiting successfully. Buy a developer a beer!
