                               Psi4 1.3.2 release

  ==> Input File <==

--------------------------------------------------------------------------
#psi4
#
memory 32 gb

molecule  {
0 1
  O       -2.3042200    -1.0991630    -0.0003290
  O       -2.3377670     1.1635920     0.0000360
  C       -0.2184710     0.0274960    -0.0000150
  C        0.5080430     1.2243810    -0.0001580
  C        0.4461120    -1.2054740     0.0002260
  C        1.9006900     1.1869520    -0.0000810
  C        1.8404380    -1.2322990     0.0003120
  C        2.5692530    -0.0403490     0.0001580
  C       -1.6004414     0.1151137    -0.0000803
  H       -0.0326500     2.1666470    -0.0003250
  H       -0.1251480    -2.1283920     0.0003360
  H        2.4665660     2.1152060    -0.0002030
  H        2.3606420    -2.1869500     0.0005070
  H        3.6563130    -0.0679050     0.0002230
  H       -3.2647750    -0.9069250    -0.0003290
units angstrom
no_reorient  #important for SAPT in psi4, default
symmetry c1  #important for SAPT in psi4, default
}

set PROPERTIES_ORIGIN ["COM"]
properties('MP2/aug-cc-pvtz', properties = ['dipole'])
--------------------------------------------------------------------------

    Molecular point group: c1
  Charge       = 0
  Multiplicity = 1
  Basis Set: AUG-CC-PVTZ
    Blend: AUG-CC-PVTZ
  Basis Set: (AUG-CC-PVTZ AUX)
    Blend: AUG-CC-PVTZ-JKFIT

    Orbital Energies [Eh]
    ---------------------

    Doubly Occupied:

       1A    -20.603159     2A    -20.538806     3A    -11.394811
       4A    -11.270021     5A    -11.269851     6A    -11.266603
       7A    -11.257451     8A    -11.256405     9A    -11.255475
      10A     -1.428310    11A     -1.313794    12A     -1.182499
      13A     -1.071433    14A     -1.039551    15A     -0.915914
      16A     -0.854302    17A     -0.799156    18A     -0.732173
      19A     -0.697615    20A     -0.672428    21A     -0.646364
      22A     -0.624726    23A     -0.613702    24A     -0.610602
      25A     -0.578436    26A     -0.534447    27A     -0.524008
      28A     -0.515369    29A     -0.464590    30A     -0.447952
      31A     -0.364070    32A     -0.357913

  @DF-RHF Final Energy:  -418.45104080199076

   => Energetics <=

    Nuclear Repulsion Energy =            404.5706825373604829
    One-Electron Energy =               -1371.8395801798112643
    Two-Electron Energy =                 548.8178568404600810
    Total Energy =                       -418.4510408019907572
  Basis Set: (AUG-CC-PVTZ AUX)
    Blend: AUG-CC-PVTZ-RI
    Molecular point group: c1

    Geometry (in Angstrom), charge = 0, multiplicity = 1:

       Center              X                  Y                   Z               Mass
    ------------   -----------------  -----------------  -----------------  -----------------
         O           -2.273080597054    -1.106735927028    -0.000327889888    15.994914619570
         O           -2.306627597054     1.156019072972     0.000037110112    15.994914619570
         C           -0.187331597054     0.019923072972    -0.000013889888    12.000000000000
         C            0.539182402946     1.216808072972    -0.000156889888    12.000000000000
         C            0.477251402946    -1.213046927028     0.000227110112    12.000000000000
         C            1.931829402946     1.179379072972    -0.000079889888    12.000000000000
         C            1.871577402946    -1.239871927028     0.000313110112    12.000000000000
         C            2.600392402946    -0.047921927028     0.000159110112    12.000000000000
         C           -1.569301997054     0.107540772972    -0.000079189888    12.000000000000
         H           -0.001510597054     2.159074072972    -0.000323889888     1.007825032230
         H           -0.094008597054    -2.135964927028     0.000337110112     1.007825032230
         H            2.497705402946     2.107633072972    -0.000201889888     1.007825032230
         H            2.391781402946    -2.194522927028     0.000508110112     1.007825032230
         H            3.687452402946    -0.075477927028     0.000224110112     1.007825032230
         H           -3.233635597054    -0.914497927028    -0.000327889888     1.007825032230

  Basis Set: AUG-CC-PVTZ
    Blend: AUG-CC-PVTZ
  Basis Set: (AUG-CC-PVTZ AUX)
    Blend: AUG-CC-PVTZ-JKFIT
	 Reference Energy          =    -418.4510408019907572 [Eh]
	 Singles Energy            =      -0.0000000000000000 [Eh]
	 Same-Spin Energy          =      -0.4370234064424755 [Eh]
	 Opposite-Spin Energy      =      -1.3200776510155428 [Eh]
	 Correlation Energy        =      -1.7571010574580184 [Eh]
	 Total Energy              =    -420.2081418594488014 [Eh]

	 ================> DF-SCS-MP2 Energies <==================
	-----------------------------------------------------------
	 SCS Same-Spin Scale       =       0.3333333333333333 [-]
	 SCS Opposite-Spin Scale   =       1.2000000000000000 [-]
	 SCS Same-Spin Energy      =      -0.1456744688141585 [Eh]
	 SCS Opposite-Spin Energy  =      -1.5840931812186512 [Eh]
	 SCS Correlation Energy    =      -1.7297676500328096 [Eh]
	 SCS Total Energy          =    -420.1808084520235411 [Eh]
	-----------------------------------------------------------

  Dipole Moment: [D]
     X:     2.4007      Y:    -1.2949      Z:     0.0000     Total:     2.7276

*** Psi4 exiting successfully. Buy a developer a beer!
