                               Psi4 1.3.2 release

  ==> Input File <==

--------------------------------------------------------------------------
#psi4
#
memory 32 gb

molecule  {
0 1
  O       -2.3042200    -1.0991630    -0.0003290
  O       -2.3377670     1.1635920     0.0000360
  C       -0.2184710     0.0274960    -0.0000150
  C        0.5080430     1.2243810    -0.0001580
  C        0.4461120    -1.2054740     0.0002260
  C        1.9006900     1.1869520    -0.0000810
  C        1.8404380    -1.2322990     0.0003120
  C        2.5692530    -0.0403490     0.0001580
  C       -1.7002410     0.1214410    -0.0000850
  H       -0.0326500     2.1666470    -0.0003250
  H       -0.1251480    -2.1283920     0.0003360
  H        2.4665660     2.1152060    -0.0002030
  H        2.3606420    -2.1869500     0.0005070
  H        3.6563130    -0.0679050     0.0002230
  H       -3.2647750    -0.9069250    -0.0003290
units angstrom
no_reorient  #important for SAPT in psi4, default
symmetry c1  #important for SAPT in psi4, default
}

set PROPERTIES_ORIGIN ["COM"]
properties('MP2/aug-cc-pvtz', properties = ['dipole'])
--------------------------------------------------------------------------

    Molecular point group: c1
  Charge       = 0
  Multiplicity = 1
  Basis Set: AUG-CC-PVTZ
    Blend: AUG-CC-PVTZ
  Basis Set: (AUG-CC-PVTZ AUX)
    Blend: AUG-CC-PVTZ-JKFIT

    Orbital Energies [Eh]
    ---------------------

    Doubly Occupied:

       1A    -20.617220     2A    -20.549858     3A    -11.394582
       4A    -11.259712     5A    -11.258982     6A    -11.258542
       7A    -11.255870     8A    -11.250089     9A    -11.249247
      10A     -1.461018    11A     -1.356125    12A     -1.170612
      13A     -1.050603    14A     -1.031366    15A     -0.899627
      16A     -0.844983    17A     -0.801081    18A     -0.730690
      19A     -0.705189    20A     -0.676120    21A     -0.640793
      22A     -0.632674    23A     -0.627099    24A     -0.604890
      25A     -0.586910    26A     -0.528046    27A     -0.519377
      28A     -0.508911    29A     -0.484343    30A     -0.458095
      31A     -0.356455    32A     -0.351039

  @DF-RHF Final Energy:  -418.47295303067148

   => Energetics <=

    Nuclear Repulsion Energy =            404.2347957228097357
    One-Electron Energy =               -1371.1751994899200326
    Two-Electron Energy =                 548.4674507364388774
    Total Energy =                       -418.4729530306714196
  Basis Set: (AUG-CC-PVTZ AUX)
    Blend: AUG-CC-PVTZ-RI
    Molecular point group: c1

    Geometry (in Angstrom), charge = 0, multiplicity = 1:

       Center              X                  Y                   Z               Mass
    ------------   -----------------  -----------------  -----------------  -----------------
         O           -2.263267201408    -1.107358096839    -0.000327427732    15.994914619570
         O           -2.296814201408     1.155396903161     0.000037572268    15.994914619570
         C           -0.177518201408     0.019300903161    -0.000013427732    12.000000000000
         C            0.548995798592     1.216185903161    -0.000156427732    12.000000000000
         C            0.487064798592    -1.213669096839     0.000227572268    12.000000000000
         C            1.941642798592     1.178756903161    -0.000079427732    12.000000000000
         C            1.881390798592    -1.240494096839     0.000313572268    12.000000000000
         C            2.610205798592    -0.048544096839     0.000159572268    12.000000000000
         C           -1.659288201408     0.113245903161    -0.000083427732    12.000000000000
         H            0.008302798592     2.158451903161    -0.000323427732     1.007825032230
         H           -0.084195201408    -2.136587096839     0.000337572268     1.007825032230
         H            2.507518798592     2.107010903161    -0.000201427732     1.007825032230
         H            2.401594798592    -2.195145096839     0.000508572268     1.007825032230
         H            3.697265798592    -0.076100096839     0.000224572268     1.007825032230
         H           -3.223822201408    -0.915120096839    -0.000327427732     1.007825032230

  Basis Set: AUG-CC-PVTZ
    Blend: AUG-CC-PVTZ
  Basis Set: (AUG-CC-PVTZ AUX)
    Blend: AUG-CC-PVTZ-JKFIT
	 Reference Energy          =    -418.4729530306714764 [Eh]
	 Singles Energy            =      -0.0000000000000000 [Eh]
	 Same-Spin Energy          =      -0.4348330553673356 [Eh]
	 Opposite-Spin Energy      =      -1.3153231884181307 [Eh]
	 Correlation Energy        =      -1.7501562437854663 [Eh]
	 Total Energy              =    -420.2231092744569310 [Eh]

	 ================> DF-SCS-MP2 Energies <==================
	-----------------------------------------------------------
	 SCS Same-Spin Scale       =       0.3333333333333333 [-]
	 SCS Opposite-Spin Scale   =       1.2000000000000000 [-]
	 SCS Same-Spin Energy      =      -0.1449443517891119 [Eh]
	 SCS Opposite-Spin Energy  =      -1.5783878261017568 [Eh]
	 SCS Correlation Energy    =      -1.7233321778908686 [Eh]
	 SCS Total Energy          =    -420.1962852085623581 [Eh]
	-----------------------------------------------------------

  Dipole Moment: [D]
     X:     1.4699      Y:    -1.3193      Z:    -0.0001     Total:     1.9751

*** Psi4 exiting successfully. Buy a developer a beer!
