                               Psi4 1.4a3.dev225

  ==> Input File <==

--------------------------------------------------------------------------
#psi4
#
memory 32 gb

molecule  {
0 1
  O       -2.3041980    -1.0991920    -0.0000450
  O       -2.3377760     1.1635870    -0.0002980
  C       -0.2184880     0.0275040    -0.0000190
  C        0.5080600     1.2243720    -0.0001140
  C        0.4460610    -1.2054670     0.0001810
  C        1.9006990     1.1869660    -0.0000100
  C        1.8403900    -1.2323150     0.0002850
  C        2.5692320    -0.0403680     0.0001900
  C       -1.6802251     0.1202239    -0.0001344
  H       -0.0325870     2.1666660    -0.0002690
  H       -0.1251250    -2.1284350     0.0002540
  H        2.4666520     2.1151670    -0.0000840
  H        2.3606240    -2.1869430     0.0004410
  H        3.6562990    -0.0679320     0.0002710
  H       -3.2646810    -0.9067680    -0.0001340
units angstrom
no_reorient  #important for SAPT in psi4, default
symmetry c1  #important for SAPT in psi4, default
}

set PROPERTIES_ORIGIN ["COM"]
properties('MP2/aug-cc-pvtz', properties = ['dipole'])
--------------------------------------------------------------------------

    Molecular point group: c1
  Charge       = 0
  Multiplicity = 1
  Basis Set: AUG-CC-PVTZ
    Blend: AUG-CC-PVTZ
  Basis Set: (AUG-CC-PVTZ AUX)
    Blend: AUG-CC-PVTZ-JKFIT

    Orbital Energies [Eh]
    ---------------------

    Doubly Occupied:

       1A    -20.614501     2A    -20.547833     3A    -11.394777
       4A    -11.261361     5A    -11.261023     6A    -11.259110
       7A    -11.257671     8A    -11.251301     9A    -11.250439
      10A     -1.454574    11A     -1.347656    12A     -1.172820
      13A     -1.054466    14A     -1.032926    15A     -0.902646
      16A     -0.846783    17A     -0.800715    18A     -0.730756
      19A     -0.702739    20A     -0.676130    21A     -0.641862
      22A     -0.628568    23A     -0.626200    24A     -0.605923
      25A     -0.586443    26A     -0.528908    27A     -0.520378
      28A     -0.510252    29A     -0.480315    30A     -0.457192
      31A     -0.358064    32A     -0.352360

  @DF-RHF Final Energy:  -418.47096369558636

   => Energetics <=

    Nuclear Repulsion Energy =            404.2914932516555382
    One-Electron Energy =               -1371.2915303891036274
    Two-Electron Energy =                 548.5290734418617831
    Total Energy =                       -418.4709636955863061
  Basis Set: (AUG-CC-PVTZ AUX)
    Blend: AUG-CC-PVTZ-RI
    Molecular point group: c1

    Geometry (in Angstrom), charge = 0, multiplicity = 1:

       Center              X                  Y                   Z               Mass
    ------------   -----------------  -----------------  -----------------  -----------------
         O           -2.265206106686    -1.107262098063    -0.000041228125    15.994914619570
         O           -2.298784106686     1.155516901937    -0.000294228125    15.994914619570
         C           -0.179496106686     0.019433901937    -0.000015228125    12.000000000000
         C            0.547051893314     1.216301901937    -0.000110228125    12.000000000000
         C            0.485052893314    -1.213537098063     0.000184771875    12.000000000000
         C            1.939690893314     1.178895901937    -0.000006228125    12.000000000000
         C            1.879381893314    -1.240385098063     0.000288771875    12.000000000000
         C            2.608223893314    -0.048438098063     0.000193771875    12.000000000000
         C           -1.641233206686     0.112153801937    -0.000130628125    12.000000000000
         H            0.006404893314     2.158595901937    -0.000265228125     1.007825032230
         H           -0.086133106686    -2.136505098063     0.000257771875     1.007825032230
         H            2.505643893314     2.107096901937    -0.000080228125     1.007825032230
         H            2.399615893314    -2.195013098063     0.000444771875     1.007825032230
         H            3.695290893314    -0.076002098063     0.000274771875     1.007825032230
         H           -3.225689106686    -0.914838098063    -0.000130228125     1.007825032230

  Basis Set: AUG-CC-PVTZ
    Blend: AUG-CC-PVTZ
  Basis Set: (AUG-CC-PVTZ AUX)
    Blend: AUG-CC-PVTZ-JKFIT
	 Reference Energy          =    -418.4709636955863630 [Eh]
	 Singles Energy            =      -0.0000000000000000 [Eh]
	 Same-Spin Energy          =      -0.4352011484240889 [Eh]
	 Opposite-Spin Energy      =      -1.3161330021230846 [Eh]
	 Correlation Energy        =      -1.7513341505471736 [Eh]
	 Total Energy              =    -420.2222978461335288 [Eh]

	 ================> DF-SCS-MP2 Energies <==================
	-----------------------------------------------------------
	 SCS Same-Spin Scale       =       0.3333333333333333 [-]
	 SCS Opposite-Spin Scale   =       1.2000000000000000 [-]
	 SCS Same-Spin Energy      =      -0.1450670494746963 [Eh]
	 SCS Opposite-Spin Energy  =      -1.5793596025477015 [Eh]
	 SCS Correlation Energy    =      -1.7244266520223979 [Eh]
	 SCS Total Energy          =    -420.1953903476087362 [Eh]
	-----------------------------------------------------------

  Dipole Moment: [D]
     X:     1.6545      Y:    -1.3167      Z:     0.0003     Total:     2.1145

*** Psi4 exiting successfully. Buy a developer a beer!
