                               Psi4 1.4a3.dev225

  ==> Input File <==

--------------------------------------------------------------------------
#psi4
#
memory 32 gb

molecule  {
0 1
  O       -2.3041980    -1.0991920    -0.0000450
  O       -2.3377760     1.1635870    -0.0002980
  C       -0.2184880     0.0275040    -0.0000190
  C        0.5080600     1.2243720    -0.0001140
  C        0.4460610    -1.2054670     0.0001810
  C        1.9006990     1.1869660    -0.0000100
  C        1.8403900    -1.2323150     0.0002850
  C        2.5692320    -0.0403680     0.0001900
  C       -1.7500847     0.1246552    -0.0001399
  H       -0.0325870     2.1666660    -0.0002690
  H       -0.1251250    -2.1284350     0.0002540
  H        2.4666520     2.1151670    -0.0000840
  H        2.3606240    -2.1869430     0.0004410
  H        3.6562990    -0.0679320     0.0002710
  H       -3.2646810    -0.9067680    -0.0001340
units angstrom
no_reorient  #important for SAPT in psi4, default
symmetry c1  #important for SAPT in psi4, default
}

set PROPERTIES_ORIGIN ["COM"]
properties('MP2/aug-cc-pvtz', properties = ['dipole'])
--------------------------------------------------------------------------

    Molecular point group: c1
  Charge       = 0
  Multiplicity = 1
  Basis Set: AUG-CC-PVTZ
    Blend: AUG-CC-PVTZ
  Basis Set: (AUG-CC-PVTZ AUX)
    Blend: AUG-CC-PVTZ-JKFIT

    Orbital Energies [Eh]
    ---------------------

    Doubly Occupied:

       1A    -20.623845     2A    -20.554851     3A    -11.394160
       4A    -11.258232     5A    -11.254311     6A    -11.254165
       7A    -11.251244     8A    -11.247129     9A    -11.246348
      10A     -1.476853    11A     -1.377318    12A     -1.165415
      13A     -1.041644    14A     -1.027601    15A     -0.892744
      16A     -0.840589    17A     -0.801707    18A     -0.731990
      19A     -0.711200    20A     -0.676240    21A     -0.643381
      22A     -0.638908    23A     -0.628684    24A     -0.602488
      25A     -0.586496    26A     -0.527070    27A     -0.517131
      28A     -0.505551    29A     -0.494236    30A     -0.457342
      31A     -0.352340    32A     -0.347833

  @DF-RHF Final Energy:  -418.47292489734889

   => Energetics <=

    Nuclear Repulsion Energy =            404.1149065647799148
    One-Electron Energy =               -1370.9175769633454820
    Two-Electron Energy =                 548.3297455012167347
    Total Energy =                       -418.4729248973488893
  Basis Set: (AUG-CC-PVTZ AUX)
    Blend: AUG-CC-PVTZ-RI
    Molecular point group: c1

    Geometry (in Angstrom), charge = 0, multiplicity = 1:

       Center              X                  Y                   Z               Mass
    ------------   -----------------  -----------------  -----------------  -----------------
         O           -2.258336741533    -1.107697832276    -0.000040687304    15.994914619570
         O           -2.291914741533     1.155081167724    -0.000293687304    15.994914619570
         C           -0.172626741533     0.018998167724    -0.000014687304    12.000000000000
         C            0.553921258467     1.215866167724    -0.000109687304    12.000000000000
         C            0.491922258467    -1.213972832276     0.000185312696    12.000000000000
         C            1.946560258467     1.178460167724    -0.000005687304    12.000000000000
         C            1.886251258467    -1.240820832276     0.000289312696    12.000000000000
         C            2.615093258467    -0.048873832276     0.000194312696    12.000000000000
         C           -1.704223441533     0.116149367724    -0.000135587304    12.000000000000
         H            0.013274258467     2.158160167724    -0.000264687304     1.007825032230
         H           -0.079263741533    -2.136940832276     0.000258312696     1.007825032230
         H            2.512513258467     2.106661167724    -0.000079687304     1.007825032230
         H            2.406485258467    -2.195448832276     0.000445312696     1.007825032230
         H            3.702160258467    -0.076437832276     0.000275312696     1.007825032230
         H           -3.218819741533    -0.915273832276    -0.000129687304     1.007825032230

  Basis Set: AUG-CC-PVTZ
    Blend: AUG-CC-PVTZ
  Basis Set: (AUG-CC-PVTZ AUX)
    Blend: AUG-CC-PVTZ-JKFIT
	 Reference Energy          =    -418.4729248973488893 [Eh]
	 Singles Energy            =      -0.0000000000000000 [Eh]
	 Same-Spin Energy          =      -0.4341000593523625 [Eh]
	 Opposite-Spin Energy      =      -1.3136653377967527 [Eh]
	 Correlation Energy        =      -1.7477653971491152 [Eh]
	 Total Energy              =    -420.2206902944980129 [Eh]

	 ================> DF-SCS-MP2 Energies <==================
	-----------------------------------------------------------
	 SCS Same-Spin Scale       =       0.3333333333333333 [-]
	 SCS Opposite-Spin Scale   =       1.2000000000000000 [-]
	 SCS Same-Spin Energy      =      -0.1447000197841208 [Eh]
	 SCS Opposite-Spin Energy  =      -1.5763984053561031 [Eh]
	 SCS Correlation Energy    =      -1.7210984251402239 [Eh]
	 SCS Total Energy          =    -420.1940233224891017 [Eh]
	-----------------------------------------------------------

  Dipole Moment: [D]
     X:     1.0139      Y:    -1.3169      Z:     0.0002     Total:     1.6620

*** Psi4 exiting successfully. Buy a developer a beer!
