                               Psi4 1.3.2 release

  ==> Input File <==

--------------------------------------------------------------------------
#psi4
#
memory 32 gb

molecule  {
0 1
  O       -2.3042200    -1.0991630    -0.0003290
  O       -2.3377670     1.1635920     0.0000360
  C       -0.2184710     0.0274960    -0.0000150
  C        0.5080430     1.2243810    -0.0001580
  C        0.4461120    -1.2054740     0.0002260
  C        1.9006900     1.1869520    -0.0000810
  C        1.8404380    -1.2322990     0.0003120
  C        2.5692530    -0.0403490     0.0001580
  C       -1.8046092     0.2920496    -0.0000652
  H       -0.0326500     2.1666470    -0.0003250
  H       -0.1251480    -2.1283920     0.0003360
  H        2.4665660     2.1152060    -0.0002030
  H        2.3606420    -2.1869500     0.0005070
  H        3.6563130    -0.0679050     0.0002230
  H       -3.2647750    -0.9069250    -0.0003290
units angstrom
no_reorient  #important for SAPT in psi4, default
symmetry c1  #important for SAPT in psi4, default
}

set PROPERTIES_ORIGIN ["COM"]
properties('MP2/aug-cc-pvtz', properties = ['dipole'])
--------------------------------------------------------------------------

    Molecular point group: c1
  Charge       = 0
  Multiplicity = 1
  Basis Set: AUG-CC-PVTZ
    Blend: AUG-CC-PVTZ
  Basis Set: (AUG-CC-PVTZ AUX)
    Blend: AUG-CC-PVTZ-JKFIT

    Orbital Energies [Eh]
    ---------------------

    Doubly Occupied:

       1A    -20.592183     2A    -20.582868     3A    -11.381810
       4A    -11.256816     5A    -11.249122     6A    -11.248707
       7A    -11.246050     8A    -11.243879     9A    -11.243056
      10A     -1.579798    11A     -1.359202    12A     -1.159702
      13A     -1.031419    14A     -1.023082    15A     -0.865760
      16A     -0.835971    17A     -0.783454    18A     -0.748947
      19A     -0.730275    20A     -0.688406    21A     -0.682723
      22A     -0.642127    23A     -0.626264    24A     -0.601249
      25A     -0.582634    26A     -0.535935    27A     -0.515015
      28A     -0.507188    29A     -0.503002    30A     -0.437997
      31A     -0.348111    32A     -0.344301

  @DF-RHF Final Energy:  -418.39234853460499

   => Energetics <=

    Nuclear Repulsion Energy =            404.7710615188074144
    One-Electron Energy =               -1371.9727141456905883
    Two-Electron Energy =                 548.8093040922782393
    Total Energy =                       -418.3923485346049347
  Basis Set: (AUG-CC-PVTZ AUX)
    Blend: AUG-CC-PVTZ-RI
    Molecular point group: c1

    Geometry (in Angstrom), charge = 0, multiplicity = 1:

       Center              X                  Y                   Z               Mass
    ------------   -----------------  -----------------  -----------------  -----------------
         O           -2.253004570701    -1.124134213101    -0.000329374686    15.994914619570
         O           -2.286551570701     1.138620786899     0.000035625314    15.994914619570
         C           -0.167255570701     0.002524786899    -0.000015374686    12.000000000000
         C            0.559258429299     1.199409786899    -0.000158374686    12.000000000000
         C            0.497327429299    -1.230445213101     0.000225625314    12.000000000000
         C            1.951905429299     1.161980786899    -0.000081374686    12.000000000000
         C            1.891653429299    -1.257270213101     0.000311625314    12.000000000000
         C            2.620468429299    -0.065320213101     0.000157625314    12.000000000000
         C           -1.753393770701     0.267078386899    -0.000065574686    12.000000000000
         H            0.018565429299     2.141675786899    -0.000325374686     1.007825032230
         H           -0.073932570701    -2.153363213101     0.000335625314     1.007825032230
         H            2.517781429299     2.090234786899    -0.000203374686     1.007825032230
         H            2.411857429299    -2.211921213101     0.000506625314     1.007825032230
         H            3.707528429299    -0.092876213101     0.000222625314     1.007825032230
         H           -3.213559570701    -0.931896213101    -0.000329374686     1.007825032230

  Basis Set: AUG-CC-PVTZ
    Blend: AUG-CC-PVTZ
  Basis Set: (AUG-CC-PVTZ AUX)
    Blend: AUG-CC-PVTZ-JKFIT
	 Reference Energy          =    -418.3923485346049915 [Eh]
	 Singles Energy            =      -0.0000000000000000 [Eh]
	 Same-Spin Energy          =      -0.4320956038928772 [Eh]
	 Opposite-Spin Energy      =      -1.3102378675807955 [Eh]
	 Correlation Energy        =      -1.7423334714736727 [Eh]
	 Total Energy              =    -420.1346820060786627 [Eh]

	 ================> DF-SCS-MP2 Energies <==================
	-----------------------------------------------------------
	 SCS Same-Spin Scale       =       0.3333333333333333 [-]
	 SCS Opposite-Spin Scale   =       1.2000000000000000 [-]
	 SCS Same-Spin Energy      =      -0.1440318679642924 [Eh]
	 SCS Opposite-Spin Energy  =      -1.5722854410969547 [Eh]
	 SCS Correlation Energy    =      -1.7163173090612471 [Eh]
	 SCS Total Energy          =    -420.1086658436662447 [Eh]
	-----------------------------------------------------------

  Dipole Moment: [D]
     X:     0.6168      Y:     0.0743      Z:     0.0002     Total:     0.6213

*** Psi4 exiting successfully. Buy a developer a beer!
