                               Psi4 1.4a3.dev225

  ==> Input File <==

--------------------------------------------------------------------------
#psi4
#
memory 32 gb

molecule  {
0 1
  O       -2.3041980    -1.0991920    -0.0000450
  O       -2.3377760     1.1635870    -0.0002980
  C       -0.2184880     0.0275040    -0.0000190
  C        0.5080600     1.2243720    -0.0001140
  C        0.4460610    -1.2054670     0.0001810
  C        1.9006990     1.1869660    -0.0000100
  C        1.8403900    -1.2323150     0.0002850
  C        2.5692320    -0.0403680     0.0001900
  C       -1.6502853     0.1183248    -0.0001321
  H       -0.0325870     2.1666660    -0.0002690
  H       -0.1251250    -2.1284350     0.0002540
  H        2.4666520     2.1151670    -0.0000840
  H        2.3606240    -2.1869430     0.0004410
  H        3.6562990    -0.0679320     0.0002710
  H       -3.2646810    -0.9067680    -0.0001340
units angstrom
no_reorient  #important for SAPT in psi4, default
symmetry c1  #important for SAPT in psi4, default
}

set PROPERTIES_ORIGIN ["COM"]
properties('MP2/aug-cc-pvtz', properties = ['dipole'])
--------------------------------------------------------------------------

    Molecular point group: c1
  Charge       = 0
  Multiplicity = 1
  Basis Set: AUG-CC-PVTZ
    Blend: AUG-CC-PVTZ
  Basis Set: (AUG-CC-PVTZ AUX)
    Blend: AUG-CC-PVTZ-JKFIT

    Orbital Energies [Eh]
    ---------------------

    Doubly Occupied:

       1A    -20.610367     2A    -20.544650     3A    -11.394985
       4A    -11.264380     5A    -11.264222     6A    -11.261184
       7A    -11.258503     8A    -11.253156     9A    -11.252266
      10A     -1.444832    11A     -1.334954    12A     -1.176276
      13A     -1.060540    14A     -1.035324    15A     -0.907418
      16A     -0.849530    17A     -0.800130    18A     -0.731183
      19A     -0.699641    20A     -0.675694    21A     -0.643594
      22A     -0.625106    23A     -0.622681    24A     -0.607555
      25A     -0.584658    26A     -0.530636    27A     -0.521851
      28A     -0.512232    29A     -0.474302    30A     -0.454683
      31A     -0.360408    32A     -0.354382

  @DF-RHF Final Energy:  -418.46577327350701

   => Energetics <=

    Nuclear Repulsion Energy =            404.3849834521924436
    One-Electron Energy =               -1371.4788637077897420
    Two-Electron Energy =                 548.6281069820902303
    Total Energy =                       -418.4657732735070113
  Basis Set: (AUG-CC-PVTZ AUX)
    Blend: AUG-CC-PVTZ-RI
    Molecular point group: c1

    Geometry (in Angstrom), charge = 0, multiplicity = 1:

       Center              X                  Y                   Z               Mass
    ------------   -----------------  -----------------  -----------------  -----------------
         O           -2.268150117514    -1.107075357638    -0.000041454286    15.994914619570
         O           -2.301728117514     1.155703642362    -0.000294454286    15.994914619570
         C           -0.182440117514     0.019620642362    -0.000015454286    12.000000000000
         C            0.544107882486     1.216488642362    -0.000110454286    12.000000000000
         C            0.482108882486    -1.213350357638     0.000184545714    12.000000000000
         C            1.936746882486     1.179082642362    -0.000006454286    12.000000000000
         C            1.876437882486    -1.240198357638     0.000288545714    12.000000000000
         C            2.605279882486    -0.048251357638     0.000193545714    12.000000000000
         C           -1.614237417514     0.110441442362    -0.000128554286    12.000000000000
         H            0.003460882486     2.158782642362    -0.000265454286     1.007825032230
         H           -0.089077117514    -2.136318357638     0.000257545714     1.007825032230
         H            2.502699882486     2.107283642362    -0.000080454286     1.007825032230
         H            2.396671882486    -2.194826357638     0.000444545714     1.007825032230
         H            3.692346882486    -0.075815357638     0.000274545714     1.007825032230
         H           -3.228633117514    -0.914651357638    -0.000130454286     1.007825032230

  Basis Set: AUG-CC-PVTZ
    Blend: AUG-CC-PVTZ
  Basis Set: (AUG-CC-PVTZ AUX)
    Blend: AUG-CC-PVTZ-JKFIT
	 Reference Energy          =    -418.4657732735070113 [Eh]
	 Singles Energy            =      -0.0000000000000000 [Eh]
	 Same-Spin Energy          =      -0.4358238652211925 [Eh]
	 Opposite-Spin Energy      =      -1.3174871845513016 [Eh]
	 Correlation Energy        =      -1.7533110497724942 [Eh]
	 Total Energy              =    -420.2190843232795032 [Eh]

	 ================> DF-SCS-MP2 Energies <==================
	-----------------------------------------------------------
	 SCS Same-Spin Scale       =       0.3333333333333333 [-]
	 SCS Opposite-Spin Scale   =       1.2000000000000000 [-]
	 SCS Same-Spin Energy      =      -0.1452746217403975 [Eh]
	 SCS Opposite-Spin Energy  =      -1.5809846214615619 [Eh]
	 SCS Correlation Energy    =      -1.7262592432019594 [Eh]
	 SCS Total Energy          =    -420.1920325167089914 [Eh]
	-----------------------------------------------------------

  Dipole Moment: [D]
     X:     1.9320      Y:    -1.3109      Z:     0.0003     Total:     2.3348

*** Psi4 exiting successfully. Buy a developer a beer!
