                               Psi4 1.3.2 release

  ==> Input File <==

--------------------------------------------------------------------------
#psi4
#
memory 32 gb

molecule  {
0 1
  O       -2.2176037    -1.1383211    -0.0003288
  O       -2.3377670     1.1635920     0.0000360
  C       -0.2184710     0.0274960    -0.0000150
  C        0.5080430     1.2243810    -0.0001580
  C        0.4461120    -1.2054740     0.0002260
  C        1.9006900     1.1869520    -0.0000810
  C        1.8404380    -1.2322990     0.0003120
  C        2.5692530    -0.0403490     0.0001580
  C       -1.7002410     0.1214410    -0.0000850
  H       -0.0326500     2.1666470    -0.0003250
  H       -0.1251480    -2.1283920     0.0003360
  H        2.4665660     2.1152060    -0.0002030
  H        2.3606420    -2.1869500     0.0005070
  H        3.6563130    -0.0679050     0.0002230
  H       -3.2647750    -0.9069250    -0.0003290
units angstrom
no_reorient  #important for SAPT in psi4, default
symmetry c1  #important for SAPT in psi4, default
}

set PROPERTIES_ORIGIN ["COM"]
properties('MP2/aug-cc-pvtz', properties = ['dipole'])
--------------------------------------------------------------------------

    Molecular point group: c1
  Charge       = 0
  Multiplicity = 1
  Basis Set: AUG-CC-PVTZ
    Blend: AUG-CC-PVTZ
  Basis Set: (AUG-CC-PVTZ AUX)
    Blend: AUG-CC-PVTZ-JKFIT

    Orbital Energies [Eh]
    ---------------------

    Doubly Occupied:

       1A    -20.628303     2A    -20.554672     3A    -11.395329
       4A    -11.257021     5A    -11.256768     6A    -11.254889
       7A    -11.253270     8A    -11.248246     9A    -11.247338
      10A     -1.453915    11A     -1.356936    12A     -1.168159
      13A     -1.047459    14A     -1.029321    15A     -0.892484
      16A     -0.842416    17A     -0.790311    18A     -0.729637
      19A     -0.698129    20A     -0.673864    21A     -0.638377
      22A     -0.633815    23A     -0.626636    24A     -0.603574
      25A     -0.581066    26A     -0.527138    27A     -0.516966
      28A     -0.506971    29A     -0.487676    30A     -0.458921
      31A     -0.354367    32A     -0.349178

  @DF-RHF Final Energy:  -418.45698276033693

   => Energetics <=

    Nuclear Repulsion Energy =            404.6160909764276425
    One-Electron Energy =               -1372.0198434494923276
    Two-Electron Energy =                 548.9467697127278143
    Total Energy =                       -418.4569827603369276
  Basis Set: (AUG-CC-PVTZ AUX)
    Blend: AUG-CC-PVTZ-RI
    Molecular point group: c1

    Geometry (in Angstrom), charge = 0, multiplicity = 1:

       Center              X                  Y                   Z               Mass
    ------------   -----------------  -----------------  -----------------  -----------------
         O           -2.188003383255    -1.141383887800    -0.000327253945    15.994914619570
         O           -2.308166683255     1.160529212200     0.000037546055    15.994914619570
         C           -0.188870683255     0.024433212200    -0.000013453945    12.000000000000
         C            0.537643316745     1.221318212200    -0.000156453945    12.000000000000
         C            0.475712316745    -1.208536787800     0.000227546055    12.000000000000
         C            1.930290316745     1.183889212200    -0.000079453945    12.000000000000
         C            1.870038316745    -1.235361787800     0.000313546055    12.000000000000
         C            2.598853316745    -0.043411787800     0.000159546055    12.000000000000
         C           -1.670640683255     0.118378212200    -0.000083453945    12.000000000000
         H           -0.003049683255     2.163584212200    -0.000323453945     1.007825032230
         H           -0.095547683255    -2.131454787800     0.000337546055     1.007825032230
         H            2.496166316745     2.112143212200    -0.000201453945     1.007825032230
         H            2.390242316745    -2.190012787800     0.000508546055     1.007825032230
         H            3.685913316745    -0.070967787800     0.000224546055     1.007825032230
         H           -3.235174683255    -0.909987787800    -0.000327453945     1.007825032230

  Basis Set: AUG-CC-PVTZ
    Blend: AUG-CC-PVTZ
  Basis Set: (AUG-CC-PVTZ AUX)
    Blend: AUG-CC-PVTZ-JKFIT
	 Reference Energy          =    -418.4569827603369276 [Eh]
	 Singles Energy            =      -0.0000000000000000 [Eh]
	 Same-Spin Energy          =      -0.4369152860399131 [Eh]
	 Opposite-Spin Energy      =      -1.3197290594389415 [Eh]
	 Correlation Energy        =      -1.7566443454788545 [Eh]
	 Total Energy              =    -420.2136271058157604 [Eh]

	 ================> DF-SCS-MP2 Energies <==================
	-----------------------------------------------------------
	 SCS Same-Spin Scale       =       0.3333333333333333 [-]
	 SCS Opposite-Spin Scale   =       1.2000000000000000 [-]
	 SCS Same-Spin Energy      =      -0.1456384286799710 [Eh]
	 SCS Opposite-Spin Energy  =      -1.5836748713267297 [Eh]
	 SCS Correlation Energy    =      -1.7293133000067007 [Eh]
	 SCS Total Energy          =    -420.1862960603436363 [Eh]
	-----------------------------------------------------------

  Dipole Moment: [D]
     X:     1.2306      Y:    -1.3165      Z:    -0.0001     Total:     1.8022

*** Psi4 exiting successfully. Buy a developer a beer!
