                               Psi4 1.3.2 release

  ==> Input File <==

--------------------------------------------------------------------------
#psi4
#
memory 32 gb

molecule  {
0 1
  O       -2.3254305    -1.0884362    -0.0003289
  O       -2.3377670     1.1635920     0.0000360
  C       -0.2184710     0.0274960    -0.0000150
  C        0.5080430     1.2243810    -0.0001580
  C        0.4461120    -1.2054740     0.0002260
  C        1.9006900     1.1869520    -0.0000810
  C        1.8404380    -1.2322990     0.0003120
  C        2.5692530    -0.0403490     0.0001580
  C       -1.7002410     0.1214410    -0.0000850
  H       -0.0326500     2.1666470    -0.0003250
  H       -0.1251480    -2.1283920     0.0003360
  H        2.4665660     2.1152060    -0.0002030
  H        2.3606420    -2.1869500     0.0005070
  H        3.6563130    -0.0679050     0.0002230
  H       -3.2647750    -0.9069250    -0.0003290
units angstrom
no_reorient  #important for SAPT in psi4, default
symmetry c1  #important for SAPT in psi4, default
}

set PROPERTIES_ORIGIN ["COM"]
properties('MP2/aug-cc-pvtz', properties = ['dipole'])
--------------------------------------------------------------------------

    Molecular point group: c1
  Charge       = 0
  Multiplicity = 1
  Basis Set: AUG-CC-PVTZ
    Blend: AUG-CC-PVTZ
  Basis Set: (AUG-CC-PVTZ AUX)
    Blend: AUG-CC-PVTZ-JKFIT

    Orbital Energies [Eh]
    ---------------------

    Doubly Occupied:

       1A    -20.614068     2A    -20.548688     3A    -11.394547
       4A    -11.260571     5A    -11.259485     6A    -11.259371
       7A    -11.256510     8A    -11.250553     9A    -11.249731
      10A     -1.463275    11A     -1.356145    12A     -1.171225
      13A     -1.051403    14A     -1.031886    15A     -0.901881
      16A     -0.845706    17A     -0.804377    18A     -0.731739
      19A     -0.706106    20A     -0.676640    21A     -0.641403
      22A     -0.632444    23A     -0.627282    24A     -0.605150
      25A     -0.587615    26A     -0.528299    27A     -0.519981
      28A     -0.509403    29A     -0.483530    30A     -0.457728
      31A     -0.356974    32A     -0.351510

  @DF-RHF Final Energy:  -418.47425288228027

   => Energetics <=

    Nuclear Repulsion Energy =            404.1679239935510282
    One-Electron Energy =               -1371.0138997801464029
    Two-Electron Energy =                 548.3717229043149928
    Total Energy =                       -418.4742528822803251
  Basis Set: (AUG-CC-PVTZ AUX)
    Blend: AUG-CC-PVTZ-RI
    Molecular point group: c1

    Geometry (in Angstrom), charge = 0, multiplicity = 1:

       Center              X                  Y                   Z               Mass
    ------------   -----------------  -----------------  -----------------  -----------------
         O           -2.281697718700    -1.098037219307    -0.000327340838    15.994914619570
         O           -2.294034218700     1.153990980693     0.000037559162    15.994914619570
         C           -0.174738218700     0.017894980693    -0.000013440838    12.000000000000
         C            0.551775781300     1.214779980693    -0.000156440838    12.000000000000
         C            0.489844781300    -1.215075019307     0.000227559162    12.000000000000
         C            1.944422781300     1.177350980693    -0.000079440838    12.000000000000
         C            1.884170781300    -1.241900019307     0.000313559162    12.000000000000
         C            2.612985781300    -0.049950019307     0.000159559162    12.000000000000
         C           -1.656508218700     0.111839980693    -0.000083440838    12.000000000000
         H            0.011082781300     2.157045980693    -0.000323440838     1.007825032230
         H           -0.081415218700    -2.137993019307     0.000337559162     1.007825032230
         H            2.510298781300     2.105604980693    -0.000201440838     1.007825032230
         H            2.404374781300    -2.196551019307     0.000508559162     1.007825032230
         H            3.700045781300    -0.077506019307     0.000224559162     1.007825032230
         H           -3.221042218700    -0.916526019307    -0.000327440838     1.007825032230

  Basis Set: AUG-CC-PVTZ
    Blend: AUG-CC-PVTZ
  Basis Set: (AUG-CC-PVTZ AUX)
    Blend: AUG-CC-PVTZ-JKFIT
	 Reference Energy          =    -418.4742528822802683 [Eh]
	 Singles Energy            =      -0.0000000000000000 [Eh]
	 Same-Spin Energy          =      -0.4343617468471964 [Eh]
	 Opposite-Spin Energy      =      -1.3143510783501053 [Eh]
	 Correlation Energy        =      -1.7487128251973019 [Eh]
	 Total Energy              =    -420.2229657074775560 [Eh]

	 ================> DF-SCS-MP2 Energies <==================
	-----------------------------------------------------------
	 SCS Same-Spin Scale       =       0.3333333333333333 [-]
	 SCS Opposite-Spin Scale   =       1.2000000000000000 [-]
	 SCS Same-Spin Energy      =      -0.1447872489490655 [Eh]
	 SCS Opposite-Spin Energy  =      -1.5772212940201265 [Eh]
	 SCS Correlation Energy    =      -1.7220085429691920 [Eh]
	 SCS Total Energy          =    -420.1962614252494745 [Eh]
	-----------------------------------------------------------

  Dipole Moment: [D]
     X:     1.5334      Y:    -1.3192      Z:    -0.0001     Total:     2.0228

*** Psi4 exiting successfully. Buy a developer a beer!
