                               Psi4 1.3.2 release

  ==> Input File <==

--------------------------------------------------------------------------
#psi4
#
memory 32 gb

molecule  {
0 1
  O       -2.3042200    -1.0991630    -0.0003290
  O       -2.3377670     1.1635920     0.0000360
  C       -0.2184710     0.0274960    -0.0000150
  C        0.5080430     1.2243810    -0.0001580
  C        0.4461120    -1.2054740     0.0002260
  C        1.9006900     1.1869520    -0.0000810
  C        1.8404380    -1.2322990     0.0003120
  C        2.5692530    -0.0403490     0.0001580
  C       -1.7002410     0.1214410    -0.0000850
  H       -0.0326500     2.1666470    -0.0003250
  H       -0.1251480    -2.1283920     0.0003360
  H        2.4665660     2.1152060    -0.0002030
  H        2.3606420    -2.1869500     0.0005070
  H        3.6563130    -0.0679050     0.0002230
  H       -3.4608861    -0.8676768    -0.0003290
units angstrom
no_reorient  #important for SAPT in psi4, default
symmetry c1  #important for SAPT in psi4, default
}

set PROPERTIES_ORIGIN ["COM"]
properties('MP2/aug-cc-pvtz', properties = ['dipole'])
--------------------------------------------------------------------------

    Molecular point group: c1
  Charge       = 0
  Multiplicity = 1
  Basis Set: AUG-CC-PVTZ
    Blend: AUG-CC-PVTZ
  Basis Set: (AUG-CC-PVTZ AUX)
    Blend: AUG-CC-PVTZ-JKFIT

    Orbital Energies [Eh]
    ---------------------

    Doubly Occupied:

       1A    -20.625547     2A    -20.546410     3A    -11.390987
       4A    -11.258760     5A    -11.257900     6A    -11.257535
       7A    -11.254794     8A    -11.249030     9A    -11.248249
      10A     -1.440284    11A     -1.339551    12A     -1.169084
      13A     -1.047353    14A     -1.030197    15A     -0.887607
      16A     -0.842426    17A     -0.785769    18A     -0.726390
      19A     -0.683155    20A     -0.672639    21A     -0.635480
      22A     -0.626191    23A     -0.624880    24A     -0.603032
      25A     -0.570968    26A     -0.525010    27A     -0.517021
      28A     -0.507788    29A     -0.479392    30A     -0.454625
      31A     -0.355285    32A     -0.349983

  @DF-RHF Final Energy:  -418.43777519090310

   => Energetics <=

    Nuclear Repulsion Energy =            403.1401738224719793
    One-Electron Energy =               -1369.2292569375049425
    Two-Electron Energy =                 547.6513079241299238
    Total Energy =                       -418.4377751909030394
  Basis Set: (AUG-CC-PVTZ AUX)
    Blend: AUG-CC-PVTZ-RI
    Molecular point group: c1

    Geometry (in Angstrom), charge = 0, multiplicity = 1:

       Center              X                  Y                   Z               Mass
    ------------   -----------------  -----------------  -----------------  -----------------
         O           -2.261647643135    -1.107682223046    -0.000327427732    15.994914619570
         O           -2.295194643135     1.155072776954     0.000037572268    15.994914619570
         C           -0.175898643135     0.018976776954    -0.000013427732    12.000000000000
         C            0.550615356865     1.215861776954    -0.000156427732    12.000000000000
         C            0.488684356865    -1.213993223046     0.000227572268    12.000000000000
         C            1.943262356865     1.178432776954    -0.000079427732    12.000000000000
         C            1.883010356865    -1.240818223046     0.000313572268    12.000000000000
         C            2.611825356865    -0.048868223046     0.000159572268    12.000000000000
         C           -1.657668643135     0.112921776954    -0.000083427732    12.000000000000
         H            0.009922356865     2.158127776954    -0.000323427732     1.007825032230
         H           -0.082575643135    -2.136911223046     0.000337572268     1.007825032230
         H            2.509138356865     2.106686776954    -0.000201427732     1.007825032230
         H            2.403214356865    -2.195469223046     0.000508572268     1.007825032230
         H            3.698885356865    -0.076424223046     0.000224572268     1.007825032230
         H           -3.418313743135    -0.876196023046    -0.000327427732     1.007825032230

  Basis Set: AUG-CC-PVTZ
    Blend: AUG-CC-PVTZ
  Basis Set: (AUG-CC-PVTZ AUX)
    Blend: AUG-CC-PVTZ-JKFIT
	 Reference Energy          =    -418.4377751909030962 [Eh]
	 Singles Energy            =      -0.0000000000000000 [Eh]
	 Same-Spin Energy          =      -0.4374118150949018 [Eh]
	 Opposite-Spin Energy      =      -1.3219227069680288 [Eh]
	 Correlation Energy        =      -1.7593345220629306 [Eh]
	 Total Energy              =    -420.1971097129660393 [Eh]

	 ================> DF-SCS-MP2 Energies <==================
	-----------------------------------------------------------
	 SCS Same-Spin Scale       =       0.3333333333333333 [-]
	 SCS Opposite-Spin Scale   =       1.2000000000000000 [-]
	 SCS Same-Spin Energy      =      -0.1458039383649672 [Eh]
	 SCS Opposite-Spin Energy  =      -1.5863072483616345 [Eh]
	 SCS Correlation Energy    =      -1.7321111867266017 [Eh]
	 SCS Total Energy          =    -420.1698863776297230 [Eh]
	-----------------------------------------------------------

  Dipole Moment: [D]
     X:     1.2052      Y:    -1.3251      Z:    -0.0001     Total:     1.7912

*** Psi4 exiting successfully. Buy a developer a beer!
