                               Psi4 1.3.2 release

  ==> Input File <==

--------------------------------------------------------------------------
#psi4
#
memory 32 gb

molecule  {
0 1
  O       -2.3042200    -1.0991630    -0.0003290
  O       -2.3377670     1.1635920     0.0000360
  C       -0.2184710     0.0274960    -0.0000150
  C        0.5080430     1.2243810    -0.0001580
  C        0.4461120    -1.2054740     0.0002260
  C        1.9006900     1.1869520    -0.0000810
  C        1.8404380    -1.2322990     0.0003120
  C        2.5692530    -0.0403490     0.0001580
  C       -1.5759618     0.0516214    -0.0000932
  H       -0.0326500     2.1666470    -0.0003250
  H       -0.1251480    -2.1283920     0.0003360
  H        2.4665660     2.1152060    -0.0002030
  H        2.3606420    -2.1869500     0.0005070
  H        3.6563130    -0.0679050     0.0002230
  H       -3.2647750    -0.9069250    -0.0003290
units angstrom
no_reorient  #important for SAPT in psi4, default
symmetry c1  #important for SAPT in psi4, default
}

set PROPERTIES_ORIGIN ["COM"]
properties('MP2/aug-cc-pvtz', properties = ['dipole'])
--------------------------------------------------------------------------

    Molecular point group: c1
  Charge       = 0
  Multiplicity = 1
  Basis Set: AUG-CC-PVTZ
    Blend: AUG-CC-PVTZ
  Basis Set: (AUG-CC-PVTZ AUX)
    Blend: AUG-CC-PVTZ-JKFIT

    Orbital Energies [Eh]
    ---------------------

    Doubly Occupied:

       1A    -20.614002     2A    -20.523093     3A    -11.395079
       4A    -11.273546     5A    -11.272735     6A    -11.269889
       7A    -11.258008     8A    -11.257306     9A    -11.256379
      10A     -1.439725    11A     -1.278593    12A     -1.185284
      13A     -1.077515    14A     -1.041725    15A     -0.923810
      16A     -0.856972    17A     -0.807944    18A     -0.740971
      19A     -0.701786    20A     -0.674037    21A     -0.649131
      22A     -0.627516    23A     -0.619760    24A     -0.612178
      25A     -0.560739    26A     -0.535009    27A     -0.527630
      28A     -0.513101    29A     -0.446774    30A     -0.434990
      31A     -0.364241    32A     -0.358981

  @DF-RHF Final Energy:  -418.43093775623481

   => Energetics <=

    Nuclear Repulsion Energy =            404.7076103497001327
    One-Electron Energy =               -1372.0801970749957945
    Two-Electron Energy =                 548.9416489690607932
    Total Energy =                       -418.4309377562348118
  Basis Set: (AUG-CC-PVTZ AUX)
    Blend: AUG-CC-PVTZ-RI
    Molecular point group: c1

    Geometry (in Angstrom), charge = 0, multiplicity = 1:

       Center              X                  Y                   Z               Mass
    ------------   -----------------  -----------------  -----------------  -----------------
         O           -2.275487700891    -1.100492664926    -0.000326621417    15.994914619570
         O           -2.309034700891     1.162262335074     0.000038378583    15.994914619570
         C           -0.189738700891     0.026166335074    -0.000012621417    12.000000000000
         C            0.536775299109     1.223051335074    -0.000155621417    12.000000000000
         C            0.474844299109    -1.206803664926     0.000228378583    12.000000000000
         C            1.929422299109     1.185622335074    -0.000078621417    12.000000000000
         C            1.869170299109    -1.233628664926     0.000314378583    12.000000000000
         C            2.597985299109    -0.041678664926     0.000160378583    12.000000000000
         C           -1.547229500891     0.050291735074    -0.000090821417    12.000000000000
         H           -0.003917700891     2.165317335074    -0.000322621417     1.007825032230
         H           -0.096415700891    -2.129721664926     0.000338378583     1.007825032230
         H            2.495298299109     2.113876335074    -0.000200621417     1.007825032230
         H            2.389374299109    -2.188279664926     0.000509378583     1.007825032230
         H            3.685045299109    -0.069234664926     0.000225378583     1.007825032230
         H           -3.236042700891    -0.908254664926    -0.000326621417     1.007825032230

  Basis Set: AUG-CC-PVTZ
    Blend: AUG-CC-PVTZ
  Basis Set: (AUG-CC-PVTZ AUX)
    Blend: AUG-CC-PVTZ-JKFIT
	 Reference Energy          =    -418.4309377562348118 [Eh]
	 Singles Energy            =      -0.0000000000000000 [Eh]
	 Same-Spin Energy          =      -0.4382513725865795 [Eh]
	 Opposite-Spin Energy      =      -1.3222818858781225 [Eh]
	 Correlation Energy        =      -1.7605332584647020 [Eh]
	 Total Energy              =    -420.1914710146995162 [Eh]

	 ================> DF-SCS-MP2 Energies <==================
	-----------------------------------------------------------
	 SCS Same-Spin Scale       =       0.3333333333333333 [-]
	 SCS Opposite-Spin Scale   =       1.2000000000000000 [-]
	 SCS Same-Spin Energy      =      -0.1460837908621932 [Eh]
	 SCS Opposite-Spin Energy  =      -1.5867382630537470 [Eh]
	 SCS Correlation Energy    =      -1.7328220539159402 [Eh]
	 SCS Total Energy          =    -420.1637598101507365 [Eh]
	-----------------------------------------------------------

  Dipole Moment: [D]
     X:     2.5319      Y:    -1.6933      Z:    -0.0001     Total:     3.0459

*** Psi4 exiting successfully. Buy a developer a beer!
