                               Psi4 1.3.2 release

  ==> Input File <==

--------------------------------------------------------------------------
#psi4
#
memory 32 gb

molecule  {
0 1
  F        0.5410600    -0.7777490     1.0898900
  F        1.5293390     0.8326780    -0.0000030
  F        0.5410580    -0.7777560    -1.0898850
  C       -0.8336750     0.8117280    -0.0000020
  C        0.4581053     0.0470446     0.0442091
  C       -2.0681590    -0.0830600     0.0000000
  H       -0.8083160     1.4567020     0.8826630
  H       -0.8083160     1.4566980    -0.8826690
  H       -2.0827900    -0.7209110     0.8859100
  H       -2.9744360     0.5262000    -0.0000010
  H       -2.0827900    -0.7209140    -0.8859060
units angstrom
no_reorient  #important for SAPT in psi4, default
symmetry c1  #important for SAPT in psi4, default
}

set PROPERTIES_ORIGIN ["COM"]
properties('MP2/aug-cc-pvtz', properties = ['dipole'])
--------------------------------------------------------------------------

    Molecular point group: c1
  Charge       = 0
  Multiplicity = 1
  Basis Set: AUG-CC-PVTZ
    Blend: AUG-CC-PVTZ
  Basis Set: (AUG-CC-PVTZ AUX)
    Blend: AUG-CC-PVTZ-JKFIT

    Orbital Energies [Eh]
    ---------------------

    Doubly Occupied:

       1A    -26.342362     2A    -26.340626     3A    -26.311449
       4A    -11.501309     5A    -11.261746     6A    -11.238606
       7A     -1.720211     8A     -1.640321     9A     -1.602383
      10A     -1.098130    11A     -0.964800    12A     -0.882653
      13A     -0.818375    14A     -0.809201    15A     -0.763844
      16A     -0.708961    17A     -0.699200    18A     -0.668323
      19A     -0.650028    20A     -0.637196    21A     -0.621107
      22A     -0.599582    23A     -0.546343    24A     -0.526518
      25A     -0.520554

  @DF-RHF Final Energy:  -415.01552619652642

   => Energetics <=

    Nuclear Repulsion Energy =            271.5640360227868086
    One-Electron Energy =               -1114.2114717144468159
    Two-Electron Energy =                 427.6319094951335842
    Total Energy =                       -415.0155261965264231
  Basis Set: (AUG-CC-PVTZ AUX)
    Blend: AUG-CC-PVTZ-RI
    Molecular point group: c1

    Geometry (in Angstrom), charge = 0, multiplicity = 1:

       Center              X                  Y                   Z               Mass
    ------------   -----------------  -----------------  -----------------  -----------------
         F            0.424125463582    -0.753159656708     1.084478424808    18.998403162730
         F            1.412404463582     0.857267343292    -0.005414575192    18.998403162730
         F            0.424123463582    -0.753166656708    -1.095296575192    18.998403162730
         C           -0.950609536418     0.836317343292    -0.005413575192    12.000000000000
         C            0.341170763582     0.071633943292     0.038797524808    12.000000000000
         C           -2.185093536418    -0.058470656708    -0.005411575192    12.000000000000
         H           -0.925250536418     1.481291343292     0.877251424808     1.007825032230
         H           -0.925250536418     1.481287343292    -0.888080575192     1.007825032230
         H           -2.199724536418    -0.696321656708     0.880498424808     1.007825032230
         H           -3.091370536418     0.550789343292    -0.005412575192     1.007825032230
         H           -2.199724536418    -0.696324656708    -0.891317575192     1.007825032230

  Basis Set: AUG-CC-PVTZ
    Blend: AUG-CC-PVTZ
  Basis Set: (AUG-CC-PVTZ AUX)
    Blend: AUG-CC-PVTZ-JKFIT
	 Reference Energy          =    -415.0155261965264231 [Eh]
	 Singles Energy            =      -0.0000000000000000 [Eh]
	 Same-Spin Energy          =      -0.3415148179174208 [Eh]
	 Opposite-Spin Energy      =      -1.0481145402719307 [Eh]
	 Correlation Energy        =      -1.3896293581893515 [Eh]
	 Total Energy              =    -416.4051555547157477 [Eh]

	 ================> DF-SCS-MP2 Energies <==================
	-----------------------------------------------------------
	 SCS Same-Spin Scale       =       0.3333333333333333 [-]
	 SCS Opposite-Spin Scale   =       1.2000000000000000 [-]
	 SCS Same-Spin Energy      =      -0.1138382726391403 [Eh]
	 SCS Opposite-Spin Energy  =      -1.2577374483263168 [Eh]
	 SCS Correlation Energy    =      -1.3715757209654571 [Eh]
	 SCS Total Energy          =    -416.3871019174918615 [Eh]
	-----------------------------------------------------------

  Dipole Moment: [D]
     X:    -2.0905      Y:     1.3075      Z:     0.3323     Total:     2.4880

*** Psi4 exiting successfully. Buy a developer a beer!
