                               Psi4 1.4a3.dev225

  ==> Input File <==

--------------------------------------------------------------------------
#psi4
#
memory 32 gb

molecule  {
0 1
  F        0.5410600    -0.7777490     1.0898900
  F        1.5293390     0.8326780    -0.0000030
  F        0.5410580    -0.7777560    -1.0898850
  C       -0.8336750     0.8117280    -0.0000020
  C        0.4270745     0.0331200    -0.0000000
  C       -2.0681590    -0.0830600     0.0000000
  H       -0.8083160     1.4567020     0.8826630
  H       -0.8083160     1.4566980    -0.8826690
  H       -2.0827900    -0.7209110     0.8859100
  H       -2.9744360     0.5262000    -0.0000010
  H       -2.0827900    -0.7209140    -0.8859060
units angstrom
no_reorient  #important for SAPT in psi4, default
symmetry c1  #important for SAPT in psi4, default
}

set PROPERTIES_ORIGIN ["COM"]
properties('MP2/aug-cc-pvtz', properties = ['dipole'])
--------------------------------------------------------------------------

    Molecular point group: c1
  Charge       = 0
  Multiplicity = 1
  Basis Set: AUG-CC-PVTZ
    Blend: AUG-CC-PVTZ
  Basis Set: (AUG-CC-PVTZ AUX)
    Blend: AUG-CC-PVTZ-JKFIT

    Orbital Energies [Eh]
    ---------------------

    Doubly Occupied:

       1A    -26.329930     2A    -26.329684     3A    -26.329662
       4A    -11.501612     5A    -11.262699     6A    -11.240525
       7A     -1.710445     8A     -1.619418     9A     -1.619096
      10A     -1.104727    11A     -0.963773    12A     -0.881410
      13A     -0.809183    14A     -0.806850    15A     -0.760651
      16A     -0.704531    17A     -0.700150    18A     -0.657371
      19A     -0.653778    20A     -0.640105    21A     -0.622808
      22A     -0.606718    23A     -0.546987    24A     -0.531243
      25A     -0.524539

  @DF-RHF Final Energy:  -415.01649538343162

   => Energetics <=

    Nuclear Repulsion Energy =            271.5331266597680155
    One-Electron Energy =               -1114.1834523648481081
    Two-Electron Energy =                 427.6338303216485315
    Total Energy =                       -415.0164953834316179
  Basis Set: (AUG-CC-PVTZ AUX)
    Blend: AUG-CC-PVTZ-RI
    Molecular point group: c1

    Geometry (in Angstrom), charge = 0, multiplicity = 1:

       Center              X                  Y                   Z               Mass
    ------------   -----------------  -----------------  -----------------  -----------------
         F            0.427923822609    -0.751455200808     1.089889888066    18.998403162730
         F            1.416202822609     0.858971799192    -0.000003111934    18.998403162730
         F            0.427921822609    -0.751462200808    -1.089885111934    18.998403162730
         C           -0.946811177391     0.838021799192    -0.000002111934    12.000000000000
         C            0.313938322609     0.059413799192    -0.000000111934    12.000000000000
         C           -2.181295177391    -0.056766200808    -0.000000111934    12.000000000000
         H           -0.921452177391     1.482995799192     0.882662888066     1.007825032230
         H           -0.921452177391     1.482991799192    -0.882669111934     1.007825032230
         H           -2.195926177391    -0.694617200808     0.885909888066     1.007825032230
         H           -3.087572177391     0.552493799192    -0.000001111934     1.007825032230
         H           -2.195926177391    -0.694620200808    -0.885906111934     1.007825032230

  Basis Set: AUG-CC-PVTZ
    Blend: AUG-CC-PVTZ
  Basis Set: (AUG-CC-PVTZ AUX)
    Blend: AUG-CC-PVTZ-JKFIT
	 Reference Energy          =    -415.0164953834316179 [Eh]
	 Singles Energy            =      -0.0000000000000000 [Eh]
	 Same-Spin Energy          =      -0.3417353349369805 [Eh]
	 Opposite-Spin Energy      =      -1.0486965275929068 [Eh]
	 Correlation Energy        =      -1.3904318625298873 [Eh]
	 Total Energy              =    -416.4069272459615263 [Eh]

	 ================> DF-SCS-MP2 Energies <==================
	-----------------------------------------------------------
	 SCS Same-Spin Scale       =       0.3333333333333333 [-]
	 SCS Opposite-Spin Scale   =       1.2000000000000000 [-]
	 SCS Same-Spin Energy      =      -0.1139117783123268 [Eh]
	 SCS Opposite-Spin Energy  =      -1.2584358331114880 [Eh]
	 SCS Correlation Energy    =      -1.3723476114238149 [Eh]
	 SCS Total Energy          =    -416.3888429948554517 [Eh]
	-----------------------------------------------------------

  Dipole Moment: [D]
     X:    -2.3322      Y:     1.1940      Z:    -0.0000     Total:     2.6201

*** Psi4 exiting successfully. Buy a developer a beer!
