                               Psi4 1.3.2 release

  ==> Input File <==

--------------------------------------------------------------------------
#psi4
#
memory 32 gb

molecule  {
0 1
  F        0.5410600    -0.7777490     1.0898900
  F        1.5293390     0.8326780    -0.0000030
  F        0.5410580    -0.7777560    -1.0898850
  C       -0.8336750     0.8117280    -0.0000020
  C        0.4708524     0.0676851    -0.0000001
  C       -2.0681590    -0.0830600     0.0000000
  H       -0.8083160     1.4567020     0.8826630
  H       -0.8083160     1.4566980    -0.8826690
  H       -2.0827900    -0.7209110     0.8859100
  H       -2.9744360     0.5262000    -0.0000010
  H       -2.0827900    -0.7209140    -0.8859060
units angstrom
no_reorient  #important for SAPT in psi4, default
symmetry c1  #important for SAPT in psi4, default
}

set PROPERTIES_ORIGIN ["COM"]
properties('MP2/aug-cc-pvtz', properties = ['dipole'])
--------------------------------------------------------------------------

    Molecular point group: c1
  Charge       = 0
  Multiplicity = 1
  Basis Set: AUG-CC-PVTZ
    Blend: AUG-CC-PVTZ
  Basis Set: (AUG-CC-PVTZ AUX)
    Blend: AUG-CC-PVTZ-JKFIT

    Orbital Energies [Eh]
    ---------------------

    Doubly Occupied:

       1A    -26.351739     2A    -26.321384     3A    -26.321363
       4A    -11.501335     5A    -11.261787     6A    -11.238328
       7A     -1.723097     8A     -1.633562     9A     -1.606558
      10A     -1.097631    11A     -0.965600    12A     -0.882512
      13A     -0.816876    14A     -0.811515    15A     -0.763697
      16A     -0.706049    17A     -0.701973    18A     -0.662913
      19A     -0.655982    20A     -0.636491    21A     -0.619169
      22A     -0.598900    23A     -0.548055    24A     -0.523853
      25A     -0.521863

  @DF-RHF Final Energy:  -415.01523624843054

   => Energetics <=

    Nuclear Repulsion Energy =            271.5218502753235725
    One-Electron Energy =               -1114.1297135453301053
    Two-Electron Energy =                 427.5926270215759928
    Total Energy =                       -415.0152362484305399
  Basis Set: (AUG-CC-PVTZ AUX)
    Blend: AUG-CC-PVTZ-RI
    Molecular point group: c1

    Geometry (in Angstrom), charge = 0, multiplicity = 1:

       Center              X                  Y                   Z               Mass
    ------------   -----------------  -----------------  -----------------  -----------------
         F            0.422565140858    -0.755686179694     1.089889900307    18.998403162730
         F            1.410844140858     0.854740820306    -0.000003099693    18.998403162730
         F            0.422563140858    -0.755693179694    -1.089885099693    18.998403162730
         C           -0.952169859142     0.833790820306    -0.000002099693    12.000000000000
         C            0.352357540858     0.089747920306    -0.000000199693    12.000000000000
         C           -2.186653859142    -0.060997179694    -0.000000099693    12.000000000000
         H           -0.926810859142     1.478764820306     0.882662900307     1.007825032230
         H           -0.926810859142     1.478760820306    -0.882669099693     1.007825032230
         H           -2.201284859142    -0.698848179694     0.885909900307     1.007825032230
         H           -3.092930859142     0.548262820306    -0.000001099693     1.007825032230
         H           -2.201284859142    -0.698851179694    -0.885906099693     1.007825032230

  Basis Set: AUG-CC-PVTZ
    Blend: AUG-CC-PVTZ
  Basis Set: (AUG-CC-PVTZ AUX)
    Blend: AUG-CC-PVTZ-JKFIT
	 Reference Energy          =    -415.0152362484305399 [Eh]
	 Singles Energy            =      -0.0000000000000000 [Eh]
	 Same-Spin Energy          =      -0.3415130953683672 [Eh]
	 Opposite-Spin Energy      =      -1.0481250280047254 [Eh]
	 Correlation Energy        =      -1.3896381233730926 [Eh]
	 Total Energy              =    -416.4048743718036576 [Eh]

	 ================> DF-SCS-MP2 Energies <==================
	-----------------------------------------------------------
	 SCS Same-Spin Scale       =       0.3333333333333333 [-]
	 SCS Opposite-Spin Scale   =       1.2000000000000000 [-]
	 SCS Same-Spin Energy      =      -0.1138376984561224 [Eh]
	 SCS Opposite-Spin Energy  =      -1.2577500336056704 [Eh]
	 SCS Correlation Energy    =      -1.3715877320617929 [Eh]
	 SCS Total Energy          =    -416.3868239804923519 [Eh]
	-----------------------------------------------------------

  Dipole Moment: [D]
     X:    -1.9871      Y:     1.4634      Z:    -0.0000     Total:     2.4678

*** Psi4 exiting successfully. Buy a developer a beer!
