                               Psi4 1.4a3.dev225

  ==> Input File <==

--------------------------------------------------------------------------
#psi4
#
memory 32 gb

molecule  {
0 1
  F        0.5410600    -0.7777490     1.0898900
  F        1.5293390     0.8326780    -0.0000030
  F        0.5410580    -0.7777560    -1.0898850
  C       -0.8336750     0.8117280    -0.0000020
  C        0.4611075     0.0121020     0.0000000
  C       -2.0681590    -0.0830600     0.0000000
  H       -0.8083160     1.4567020     0.8826630
  H       -0.8083160     1.4566980    -0.8826690
  H       -2.0827900    -0.7209110     0.8859100
  H       -2.9744360     0.5262000    -0.0000010
  H       -2.0827900    -0.7209140    -0.8859060
units angstrom
no_reorient  #important for SAPT in psi4, default
symmetry c1  #important for SAPT in psi4, default
}

set PROPERTIES_ORIGIN ["COM"]
properties('MP2/aug-cc-pvtz', properties = ['dipole'])
--------------------------------------------------------------------------

    Molecular point group: c1
  Charge       = 0
  Multiplicity = 1
  Basis Set: AUG-CC-PVTZ
    Blend: AUG-CC-PVTZ
  Basis Set: (AUG-CC-PVTZ AUX)
    Blend: AUG-CC-PVTZ-JKFIT

    Orbital Energies [Eh]
    ---------------------

    Doubly Occupied:

       1A    -26.333633     2A    -26.333456     3A    -26.333433
       4A    -11.499855     5A    -11.259956     6A    -11.237205
       7A     -1.719439     8A     -1.628008     9A     -1.627726
      10A     -1.092447    11A     -0.963170    12A     -0.881119
      13A     -0.816935    14A     -0.814789    15A     -0.764200
      16A     -0.708270    17A     -0.704681    18A     -0.663896
      19A     -0.660596    20A     -0.644925    21A     -0.620686
      22A     -0.599923    23A     -0.541759    24A     -0.520667
      25A     -0.520572

  @DF-RHF Final Energy:  -415.01869539597607

   => Energetics <=

    Nuclear Repulsion Energy =            271.7052779184250539
    One-Electron Energy =               -1114.4652574288099913
    Two-Electron Energy =                 427.7412841144088702
    Total Energy =                       -415.0186953959760672
  Basis Set: (AUG-CC-PVTZ AUX)
    Blend: AUG-CC-PVTZ-RI
    Molecular point group: c1

    Geometry (in Angstrom), charge = 0, multiplicity = 1:

       Center              X                  Y                   Z               Mass
    ------------   -----------------  -----------------  -----------------  -----------------
         F            0.423757976006    -0.748882469521     1.089889888066    18.998403162730
         F            1.412036976006     0.861544530479    -0.000003111934    18.998403162730
         F            0.423755976006    -0.748889469521    -1.089885111934    18.998403162730
         C           -0.950977023994     0.840594530479    -0.000002111934    12.000000000000
         C            0.343805476006     0.040968530479    -0.000000111934    12.000000000000
         C           -2.185461023994    -0.054193469521    -0.000000111934    12.000000000000
         H           -0.925618023994     1.485568530479     0.882662888066     1.007825032230
         H           -0.925618023994     1.485564530479    -0.882669111934     1.007825032230
         H           -2.200092023994    -0.692044469521     0.885909888066     1.007825032230
         H           -3.091738023994     0.555066530479    -0.000001111934     1.007825032230
         H           -2.200092023994    -0.692047469521    -0.885906111934     1.007825032230

  Basis Set: AUG-CC-PVTZ
    Blend: AUG-CC-PVTZ
  Basis Set: (AUG-CC-PVTZ AUX)
    Blend: AUG-CC-PVTZ-JKFIT
	 Reference Energy          =    -415.0186953959760672 [Eh]
	 Singles Energy            =      -0.0000000000000000 [Eh]
	 Same-Spin Energy          =      -0.3411600564115888 [Eh]
	 Opposite-Spin Energy      =      -1.0472949259532722 [Eh]
	 Correlation Energy        =      -1.3884549823648611 [Eh]
	 Total Energy              =    -416.4071503783409298 [Eh]

	 ================> DF-SCS-MP2 Energies <==================
	-----------------------------------------------------------
	 SCS Same-Spin Scale       =       0.3333333333333333 [-]
	 SCS Opposite-Spin Scale   =       1.2000000000000000 [-]
	 SCS Same-Spin Energy      =      -0.1137200188038629 [Eh]
	 SCS Opposite-Spin Energy  =      -1.2567539111439265 [Eh]
	 SCS Correlation Energy    =      -1.3704739299477895 [Eh]
	 SCS Total Energy          =    -416.3891693259238309 [Eh]
	-----------------------------------------------------------

  Dipole Moment: [D]
     X:    -2.0722      Y:     1.0595      Z:    -0.0000     Total:     2.3274

*** Psi4 exiting successfully. Buy a developer a beer!
