                               Psi4 1.3.2 release

  ==> Input File <==

--------------------------------------------------------------------------
#psi4
#
memory 32 gb

molecule  {
0 1
  F        0.6663154    -0.8201176     1.0383950
  F        1.5293390     0.8326780    -0.0000030
  F        0.5410580    -0.7777560    -1.0898850
  C       -0.8336750     0.8117280    -0.0000020
  C        0.4440910     0.0226110     0.0000000
  C       -2.0681590    -0.0830600     0.0000000
  H       -0.8083160     1.4567020     0.8826630
  H       -0.8083160     1.4566980    -0.8826690
  H       -2.0827900    -0.7209110     0.8859100
  H       -2.9744360     0.5262000    -0.0000010
  H       -2.0827900    -0.7209140    -0.8859060
units angstrom
no_reorient  #important for SAPT in psi4, default
symmetry c1  #important for SAPT in psi4, default
}

set PROPERTIES_ORIGIN ["COM"]
properties('MP2/aug-cc-pvtz', properties = ['dipole'])
--------------------------------------------------------------------------

    Molecular point group: c1
  Charge       = 0
  Multiplicity = 1
  Basis Set: AUG-CC-PVTZ
    Blend: AUG-CC-PVTZ
  Basis Set: (AUG-CC-PVTZ AUX)
    Blend: AUG-CC-PVTZ-JKFIT

    Orbital Energies [Eh]
    ---------------------

    Doubly Occupied:

       1A    -26.327566     2A    -26.326805     3A    -26.326584
       4A    -11.499839     5A    -11.266573     6A    -11.241415
       7A     -1.715395     8A     -1.620440     9A     -1.615902
      10A     -1.101131    11A     -0.963162    12A     -0.883656
      13A     -0.810063    14A     -0.805757    15A     -0.763795
      16A     -0.704274    17A     -0.698241    18A     -0.654711
      19A     -0.650398    20A     -0.635659    21A     -0.625011
      22A     -0.608165    23A     -0.546960    24A     -0.531000
      25A     -0.525470

  @DF-RHF Final Energy:  -415.01635975787832

   => Energetics <=

    Nuclear Repulsion Energy =            271.5193233788648399
    One-Electron Energy =               -1114.1754215228145313
    Two-Electron Energy =                 427.6397383860714285
    Total Energy =                       -415.0163597578783197
  Basis Set: (AUG-CC-PVTZ AUX)
    Blend: AUG-CC-PVTZ-RI
    Molecular point group: c1

    Geometry (in Angstrom), charge = 0, multiplicity = 1:

       Center              X                  Y                   Z               Mass
    ------------   -----------------  -----------------  -----------------  -----------------
         F            0.526822634412    -0.784326681788     1.048374277169    18.998403162730
         F            1.389846234412     0.868468918212     0.009976277169    18.998403162730
         F            0.401565234412    -0.741965081788    -1.079905722831    18.998403162730
         C           -0.973167765588     0.847518918212     0.009977277169    12.000000000000
         C            0.304598234412     0.058401918212     0.009979277169    12.000000000000
         C           -2.207651765588    -0.047269081788     0.009979277169    12.000000000000
         H           -0.947808765588     1.492492918212     0.892642277169     1.007825032230
         H           -0.947808765588     1.492488918212    -0.872689722831     1.007825032230
         H           -2.222282765588    -0.685120081788     0.895889277169     1.007825032230
         H           -3.113928765588     0.561990918212     0.009978277169     1.007825032230
         H           -2.222282765588    -0.685123081788    -0.875926722831     1.007825032230

  Basis Set: AUG-CC-PVTZ
    Blend: AUG-CC-PVTZ
  Basis Set: (AUG-CC-PVTZ AUX)
    Blend: AUG-CC-PVTZ-JKFIT
	 Reference Energy          =    -415.0163597578783197 [Eh]
	 Singles Energy            =      -0.0000000000000000 [Eh]
	 Same-Spin Energy          =      -0.3412877084876899 [Eh]
	 Opposite-Spin Energy      =      -1.0475724217336135 [Eh]
	 Correlation Energy        =      -1.3888601302213033 [Eh]
	 Total Energy              =    -416.4052198880996229 [Eh]

	 ================> DF-SCS-MP2 Energies <==================
	-----------------------------------------------------------
	 SCS Same-Spin Scale       =       0.3333333333333333 [-]
	 SCS Opposite-Spin Scale   =       1.2000000000000000 [-]
	 SCS Same-Spin Energy      =      -0.1137625694958966 [Eh]
	 SCS Opposite-Spin Energy  =      -1.2570869060803362 [Eh]
	 SCS Correlation Energy    =      -1.3708494755762328 [Eh]
	 SCS Total Energy          =    -416.3872092334545414 [Eh]
	-----------------------------------------------------------

  Dipole Moment: [D]
     X:    -2.4363      Y:     1.2313      Z:     0.0304     Total:     2.7300

*** Psi4 exiting successfully. Buy a developer a beer!
