                               Psi4 1.3.2 release

  ==> Input File <==

--------------------------------------------------------------------------
#psi4
#
memory 32 gb

molecule  {
0 1
  F        0.4568808    -0.7445989     1.1176156
  F        1.5293390     0.8326780    -0.0000030
  F        0.5410580    -0.7777560    -1.0898850
  C       -0.8336750     0.8117280    -0.0000020
  C        0.4440910     0.0226110     0.0000000
  C       -2.0681590    -0.0830600     0.0000000
  H       -0.8083160     1.4567020     0.8826630
  H       -0.8083160     1.4566980    -0.8826690
  H       -2.0827900    -0.7209110     0.8859100
  H       -2.9744360     0.5262000    -0.0000010
  H       -2.0827900    -0.7209140    -0.8859060
units angstrom
no_reorient  #important for SAPT in psi4, default
symmetry c1  #important for SAPT in psi4, default
}

set PROPERTIES_ORIGIN ["COM"]
properties('MP2/aug-cc-pvtz', properties = ['dipole'])
--------------------------------------------------------------------------

    Molecular point group: c1
  Charge       = 0
  Multiplicity = 1
  Basis Set: AUG-CC-PVTZ
    Blend: AUG-CC-PVTZ
  Basis Set: (AUG-CC-PVTZ AUX)
    Blend: AUG-CC-PVTZ-JKFIT

    Orbital Energies [Eh]
    ---------------------

    Doubly Occupied:

       1A    -26.334989     2A    -26.334765     3A    -26.333670
       4A    -11.501238     5A    -11.257832     6A    -11.237010
       7A     -1.715028     8A     -1.628177     9A     -1.625776
      10A     -1.096574    11A     -0.963561    12A     -0.879812
      13A     -0.816437    14A     -0.812438    15A     -0.761546
      16A     -0.710125    17A     -0.703040    18A     -0.665431
      19A     -0.660951    20A     -0.646499    21A     -0.619400
      22A     -0.599038    23A     -0.542428    24A     -0.523028
      25A     -0.520047

  @DF-RHF Final Energy:  -415.01606566771341

   => Energetics <=

    Nuclear Repulsion Energy =            271.8174932924308678
    One-Electron Energy =               -1114.6894409568346873
    Two-Electron Energy =                 427.8558819966904139
    Total Energy =                       -415.0160656677134057
  Basis Set: (AUG-CC-PVTZ AUX)
    Blend: AUG-CC-PVTZ-RI
    Molecular point group: c1

    Geometry (in Angstrom), charge = 0, multiplicity = 1:

       Center              X                  Y                   Z               Mass
    ------------   -----------------  -----------------  -----------------  -----------------
         F            0.357975069365    -0.723443004447     1.112242450869    18.998403162730
         F            1.430433269365     0.853833895553    -0.005376149131    18.998403162730
         F            0.442152269365    -0.756600104447    -1.095258149131    18.998403162730
         C           -0.932580730635     0.832883895553    -0.005375149131    12.000000000000
         C            0.345185269365     0.043766895553    -0.005373149131    12.000000000000
         C           -2.167064730635    -0.061904104447    -0.005373149131    12.000000000000
         H           -0.907221730635     1.477857895553     0.877289850869     1.007825032230
         H           -0.907221730635     1.477853895553    -0.888042149131     1.007825032230
         H           -2.181695730635    -0.699755104447     0.880536850869     1.007825032230
         H           -3.073341730635     0.547355895553    -0.005374149131     1.007825032230
         H           -2.181695730635    -0.699758104447    -0.891279149131     1.007825032230

  Basis Set: AUG-CC-PVTZ
    Blend: AUG-CC-PVTZ
  Basis Set: (AUG-CC-PVTZ AUX)
    Blend: AUG-CC-PVTZ-JKFIT
	 Reference Energy          =    -415.0160656677134057 [Eh]
	 Singles Energy            =      -0.0000000000000000 [Eh]
	 Same-Spin Energy          =      -0.3416130622223704 [Eh]
	 Opposite-Spin Energy      =      -1.0483787101858668 [Eh]
	 Correlation Energy        =      -1.3899917724082371 [Eh]
	 Total Energy              =    -416.4060574401216286 [Eh]

	 ================> DF-SCS-MP2 Energies <==================
	-----------------------------------------------------------
	 SCS Same-Spin Scale       =       0.3333333333333333 [-]
	 SCS Opposite-Spin Scale   =       1.2000000000000000 [-]
	 SCS Same-Spin Energy      =      -0.1138710207407901 [Eh]
	 SCS Opposite-Spin Energy  =      -1.2580544522230401 [Eh]
	 SCS Correlation Energy    =      -1.3719254729638304 [Eh]
	 SCS Total Energy          =    -416.3879911406772294 [Eh]
	-----------------------------------------------------------

  Dipole Moment: [D]
     X:    -2.0416      Y:     1.0484      Z:    -0.0094     Total:     2.2951

*** Psi4 exiting successfully. Buy a developer a beer!
