                               Psi4 1.3.2 release

  ==> Input File <==

--------------------------------------------------------------------------
#psi4
#
memory 32 gb

molecule  {
0 1
  F        0.5410600    -0.7777490     1.0898900
  F        1.5293390     0.8326780    -0.0000030
  F        0.5410580    -0.7777560    -1.0898850
  C       -0.8336750     0.8117280    -0.0000020
  C        0.3546061    -0.1066291     0.0000003
  C       -2.0681590    -0.0830600     0.0000000
  H       -0.8083160     1.4567020     0.8826630
  H       -0.8083160     1.4566980    -0.8826690
  H       -2.0827900    -0.7209110     0.8859100
  H       -2.9744360     0.5262000    -0.0000010
  H       -2.0827900    -0.7209140    -0.8859060
units angstrom
no_reorient  #important for SAPT in psi4, default
symmetry c1  #important for SAPT in psi4, default
}

set PROPERTIES_ORIGIN ["COM"]
properties('MP2/aug-cc-pvtz', properties = ['dipole'])
--------------------------------------------------------------------------

    Molecular point group: c1
  Charge       = 0
  Multiplicity = 1
  Basis Set: AUG-CC-PVTZ
    Blend: AUG-CC-PVTZ
  Basis Set: (AUG-CC-PVTZ AUX)
    Blend: AUG-CC-PVTZ-JKFIT

    Orbital Energies [Eh]
    ---------------------

    Doubly Occupied:

       1A    -26.359992     2A    -26.359971     3A    -26.269553
       4A    -11.505514     5A    -11.263706     6A    -11.242142
       7A     -1.743001     8A     -1.671633     9A     -1.550249
      10A     -1.104714    11A     -0.966738    12A     -0.892460
      13A     -0.841266    14A     -0.807912    15A     -0.778953
      16A     -0.724254    17A     -0.691203    18A     -0.666417
      19A     -0.633115    20A     -0.620942    21A     -0.606691
      22A     -0.606531    23A     -0.543910    24A     -0.525966
      25A     -0.518977

  @DF-RHF Final Energy:  -414.99702813063118

   => Energetics <=

    Nuclear Repulsion Energy =            271.8909761617721301
    One-Electron Energy =               -1114.7843870048200188
    Two-Electron Energy =                 427.8963827124166528
    Total Energy =                       -414.9970281306311790
  Basis Set: (AUG-CC-PVTZ AUX)
    Blend: AUG-CC-PVTZ-RI
    Molecular point group: c1

    Geometry (in Angstrom), charge = 0, multiplicity = 1:

       Center              X                  Y                   Z               Mass
    ------------   -----------------  -----------------  -----------------  -----------------
         F            0.436794396404    -0.734349059312     1.089889851345    18.998403162730
         F            1.425073396404     0.876077940688    -0.000003148655    18.998403162730
         F            0.436792396404    -0.734356059312    -1.089885148655    18.998403162730
         C           -0.937940603596     0.855127940688    -0.000002148655    12.000000000000
         C            0.250340496404    -0.063229159312     0.000000151345    12.000000000000
         C           -2.172424603596    -0.039660059312    -0.000000148655    12.000000000000
         H           -0.912581603596     1.500101940688     0.882662851345     1.007825032230
         H           -0.912581603596     1.500097940688    -0.882669148655     1.007825032230
         H           -2.187055603596    -0.677511059312     0.885909851345     1.007825032230
         H           -3.078701603596     0.569599940688    -0.000001148655     1.007825032230
         H           -2.187055603596    -0.677514059312    -0.885906148655     1.007825032230

  Basis Set: AUG-CC-PVTZ
    Blend: AUG-CC-PVTZ
  Basis Set: (AUG-CC-PVTZ AUX)
    Blend: AUG-CC-PVTZ-JKFIT
	 Reference Energy          =    -414.9970281306311790 [Eh]
	 Singles Energy            =      -0.0000000000000000 [Eh]
	 Same-Spin Energy          =      -0.3422769480071025 [Eh]
	 Opposite-Spin Energy      =      -1.0494137250395341 [Eh]
	 Correlation Energy        =      -1.3916906730466367 [Eh]
	 Total Energy              =    -416.3887188036778184 [Eh]

	 ================> DF-SCS-MP2 Energies <==================
	-----------------------------------------------------------
	 SCS Same-Spin Scale       =       0.3333333333333333 [-]
	 SCS Opposite-Spin Scale   =       1.2000000000000000 [-]
	 SCS Same-Spin Energy      =      -0.1140923160023675 [Eh]
	 SCS Opposite-Spin Energy  =      -1.2592964700474409 [Eh]
	 SCS Correlation Energy    =      -1.3733887860498084 [Eh]
	 SCS Total Energy          =    -416.3704169166809947 [Eh]
	-----------------------------------------------------------

  Dipole Moment: [D]
     X:    -2.9214      Y:     0.1679      Z:    -0.0000     Total:     2.9263

*** Psi4 exiting successfully. Buy a developer a beer!
