                               Psi4 1.3.2 release

  ==> Input File <==

--------------------------------------------------------------------------
#psi4
#
memory 32 gb

molecule  {
0 1
  F        0.5410600    -0.7777490     1.0898900
  F        1.5293390     0.8326780    -0.0000030
  F        0.5410580    -0.7777560    -1.0898850
  C       -0.8336750     0.8117280    -0.0000020
  C        0.4157728    -0.0215017     0.0000001
  C       -2.0681590    -0.0830600     0.0000000
  H       -0.8083160     1.4567020     0.8826630
  H       -0.8083160     1.4566980    -0.8826690
  H       -2.0827900    -0.7209110     0.8859100
  H       -2.9744360     0.5262000    -0.0000010
  H       -2.0827900    -0.7209140    -0.8859060
units angstrom
no_reorient  #important for SAPT in psi4, default
symmetry c1  #important for SAPT in psi4, default
}

set PROPERTIES_ORIGIN ["COM"]
properties('MP2/aug-cc-pvtz', properties = ['dipole'])
--------------------------------------------------------------------------

    Molecular point group: c1
  Charge       = 0
  Multiplicity = 1
  Basis Set: AUG-CC-PVTZ
    Blend: AUG-CC-PVTZ
  Basis Set: (AUG-CC-PVTZ AUX)
    Blend: AUG-CC-PVTZ-JKFIT

    Orbital Energies [Eh]
    ---------------------

    Doubly Occupied:

       1A    -26.341341     2A    -26.341320     3A    -26.311628
       4A    -11.501122     5A    -11.261550     6A    -11.239630
       7A     -1.720081     8A     -1.640006     9A     -1.602428
      10A     -1.099878    11A     -0.963065    12A     -0.883747
      13A     -0.819918    14A     -0.806589    15A     -0.766082
      16A     -0.711520    17A     -0.693011    18A     -0.669461
      19A     -0.646364    20A     -0.639040    21A     -0.623107
      22A     -0.607363    23A     -0.541867    24A     -0.526769
      25A     -0.523443

  @DF-RHF Final Energy:  -415.01554242139179

   => Energetics <=

    Nuclear Repulsion Energy =            271.7226520639883915
    One-Electron Energy =               -1114.5157313199310920
    Two-Electron Energy =                 427.7775368345509719
    Total Energy =                       -415.0155424213917854
  Basis Set: (AUG-CC-PVTZ AUX)
    Blend: AUG-CC-PVTZ-RI
    Molecular point group: c1

    Geometry (in Angstrom), charge = 0, multiplicity = 1:

       Center              X                  Y                   Z               Mass
    ------------   -----------------  -----------------  -----------------  -----------------
         F            0.429307219563    -0.744769171854     1.089889875826    18.998403162730
         F            1.417586219563     0.865657828146    -0.000003124174    18.998403162730
         F            0.429305219563    -0.744776171854    -1.089885124174    18.998403162730
         C           -0.945427780437     0.844707828146    -0.000002124174    12.000000000000
         C            0.304020019563     0.011478128146    -0.000000024174    12.000000000000
         C           -2.179911780437    -0.050080171854    -0.000000124174    12.000000000000
         H           -0.920068780437     1.489681828146     0.882662875826     1.007825032230
         H           -0.920068780437     1.489677828146    -0.882669124174     1.007825032230
         H           -2.194542780437    -0.687931171854     0.885909875826     1.007825032230
         H           -3.086188780437     0.559179828146    -0.000001124174     1.007825032230
         H           -2.194542780437    -0.687934171854    -0.885906124174     1.007825032230

  Basis Set: AUG-CC-PVTZ
    Blend: AUG-CC-PVTZ
  Basis Set: (AUG-CC-PVTZ AUX)
    Blend: AUG-CC-PVTZ-JKFIT
	 Reference Energy          =    -415.0155424213917854 [Eh]
	 Singles Energy            =      -0.0000000000000000 [Eh]
	 Same-Spin Energy          =      -0.3415363946876936 [Eh]
	 Opposite-Spin Energy      =      -1.0481466320371398 [Eh]
	 Correlation Energy        =      -1.3896830267248332 [Eh]
	 Total Energy              =    -416.4052254481165960 [Eh]

	 ================> DF-SCS-MP2 Energies <==================
	-----------------------------------------------------------
	 SCS Same-Spin Scale       =       0.3333333333333333 [-]
	 SCS Opposite-Spin Scale   =       1.2000000000000000 [-]
	 SCS Same-Spin Energy      =      -0.1138454648958979 [Eh]
	 SCS Opposite-Spin Energy  =      -1.2577759584445676 [Eh]
	 SCS Correlation Energy    =      -1.3716214233404656 [Eh]
	 SCS Total Energy          =    -416.3871638447322425 [Eh]
	-----------------------------------------------------------

  Dipole Moment: [D]
     X:    -2.4275      Y:     0.7999      Z:    -0.0000     Total:     2.5559

*** Psi4 exiting successfully. Buy a developer a beer!
