                               Psi4 1.4a3.dev225

  ==> Input File <==

--------------------------------------------------------------------------
#psi4
#
memory 32 gb

molecule  {
0 1
  F        0.5410600    -0.7777490     1.0898900
  F        1.5293390     0.8326780    -0.0000030
  F        0.5410580    -0.7777560    -1.0898850
  C       -0.8336750     0.8117280    -0.0000020
  C        0.4015497     0.0488834    -0.0000001
  C       -2.0681590    -0.0830600     0.0000000
  H       -0.8083160     1.4567020     0.8826630
  H       -0.8083160     1.4566980    -0.8826690
  H       -2.0827900    -0.7209110     0.8859100
  H       -2.9744360     0.5262000    -0.0000010
  H       -2.0827900    -0.7209140    -0.8859060
units angstrom
no_reorient  #important for SAPT in psi4, default
symmetry c1  #important for SAPT in psi4, default
}

set PROPERTIES_ORIGIN ["COM"]
properties('MP2/aug-cc-pvtz', properties = ['dipole'])
--------------------------------------------------------------------------

    Molecular point group: c1
  Charge       = 0
  Multiplicity = 1
  Basis Set: AUG-CC-PVTZ
    Blend: AUG-CC-PVTZ
  Basis Set: (AUG-CC-PVTZ AUX)
    Blend: AUG-CC-PVTZ-JKFIT

    Orbital Energies [Eh]
    ---------------------

    Doubly Occupied:

       1A    -26.327055     2A    -26.326760     3A    -26.326738
       4A    -11.503157     5A    -11.264493     6A    -11.243114
       7A     -1.703402     8A     -1.612828     9A     -1.612479
      10A     -1.114765    11A     -0.964782    12A     -0.880981
      13A     -0.803408    14A     -0.800929    15A     -0.757913
      16A     -0.701737    17A     -0.696612    18A     -0.652500
      19A     -0.648591    20A     -0.636391    21A     -0.623932
      22A     -0.611959    23A     -0.551320    24A     -0.537623
      25A     -0.527554

  @DF-RHF Final Energy:  -415.01206396370736

   => Energetics <=

    Nuclear Repulsion Energy =            271.3984856949491018
    One-Electron Energy =               -1113.9590514952881222
    Two-Electron Energy =                 427.5485018366316012
    Total Energy =                       -415.0120639637073623
  Basis Set: (AUG-CC-PVTZ AUX)
    Blend: AUG-CC-PVTZ-RI
    Molecular point group: c1

    Geometry (in Angstrom), charge = 0, multiplicity = 1:

       Center              X                  Y                   Z               Mass
    ------------   -----------------  -----------------  -----------------  -----------------
         F            0.431048213682    -0.753384737033     1.089889900307    18.998403162730
         F            1.419327213682     0.857042262967    -0.000003099693    18.998403162730
         F            0.431046213682    -0.753391737033    -1.089885099693    18.998403162730
         C           -0.943686786318     0.836092262967    -0.000002099693    12.000000000000
         C            0.291537913682     0.073247662967    -0.000000199693    12.000000000000
         C           -2.178170786318    -0.058695737033    -0.000000099693    12.000000000000
         H           -0.918327786318     1.481066262967     0.882662900307     1.007825032230
         H           -0.918327786318     1.481062262967    -0.882669099693     1.007825032230
         H           -2.192801786318    -0.696546737033     0.885909900307     1.007825032230
         H           -3.084447786318     0.550564262967    -0.000001099693     1.007825032230
         H           -2.192801786318    -0.696549737033    -0.885906099693     1.007825032230

  Basis Set: AUG-CC-PVTZ
    Blend: AUG-CC-PVTZ
  Basis Set: (AUG-CC-PVTZ AUX)
    Blend: AUG-CC-PVTZ-JKFIT
	 Reference Energy          =    -415.0120639637073623 [Eh]
	 Singles Energy            =      -0.0000000000000000 [Eh]
	 Same-Spin Energy          =      -0.3422851529150252 [Eh]
	 Opposite-Spin Energy      =      -1.0499824217450475 [Eh]
	 Correlation Energy        =      -1.3922675746600728 [Eh]
	 Total Energy              =    -416.4043315383674440 [Eh]

	 ================> DF-SCS-MP2 Energies <==================
	-----------------------------------------------------------
	 SCS Same-Spin Scale       =       0.3333333333333333 [-]
	 SCS Opposite-Spin Scale   =       1.2000000000000000 [-]
	 SCS Same-Spin Energy      =      -0.1140950509716751 [Eh]
	 SCS Opposite-Spin Energy  =      -1.2599789060940569 [Eh]
	 SCS Correlation Energy    =      -1.3740739570657321 [Eh]
	 SCS Total Energy          =    -416.3861379207730806 [Eh]
	-----------------------------------------------------------

  Dipole Moment: [D]
     X:    -2.5299      Y:     1.2958      Z:    -0.0000     Total:     2.8424

*** Psi4 exiting successfully. Buy a developer a beer!
