                               Psi4 1.3.2 release

  ==> Input File <==

--------------------------------------------------------------------------
#psi4
#
memory 32 gb

molecule  {
0 1
  F        0.5410600    -0.7777490     1.0898900
  F        1.5293390     0.8326780    -0.0000030
  F        0.5410580    -0.7777560    -1.0898850
  C       -0.8336750     0.8117280    -0.0000020
  C        0.4576684     0.0450313    -0.0000001
  C       -2.0681590    -0.0830600     0.0000000
  H       -0.8083160     1.4567020     0.8826630
  H       -0.8083160     1.4566980    -0.8826690
  H       -2.0827900    -0.7209110     0.8859100
  H       -2.9744360     0.5262000    -0.0000010
  H       -2.0827900    -0.7209140    -0.8859060
units angstrom
no_reorient  #important for SAPT in psi4, default
symmetry c1  #important for SAPT in psi4, default
}

set PROPERTIES_ORIGIN ["COM"]
properties('MP2/aug-cc-pvtz', properties = ['dipole'])
--------------------------------------------------------------------------

    Molecular point group: c1
  Charge       = 0
  Multiplicity = 1
  Basis Set: AUG-CC-PVTZ
    Blend: AUG-CC-PVTZ
  Basis Set: (AUG-CC-PVTZ AUX)
    Blend: AUG-CC-PVTZ-JKFIT

    Orbital Energies [Eh]
    ---------------------

    Doubly Occupied:

       1A    -26.341774     2A    -26.326549     3A    -26.326528
       4A    -11.500876     5A    -11.261513     6A    -11.238558
       7A     -1.716922     8A     -1.630538     9A     -1.615031
      10A     -1.097952    11A     -0.964211    12A     -0.881373
      13A     -0.813777    14A     -0.811480    15A     -0.762318
      16A     -0.705095    17A     -0.704174    18A     -0.660749
      19A     -0.657960    20A     -0.640610    21A     -0.620628
      22A     -0.601106    23A     -0.546092    24A     -0.525205
      25A     -0.522183

  @DF-RHF Final Energy:  -415.01739846241588

   => Energetics <=

    Nuclear Repulsion Energy =            271.5701140783595520
    One-Electron Energy =               -1114.2286262809677737
    Two-Electron Energy =                 427.6411137401923384
    Total Energy =                       -415.0173984624158834
  Basis Set: (AUG-CC-PVTZ AUX)
    Blend: AUG-CC-PVTZ-RI
    Molecular point group: c1

    Geometry (in Angstrom), charge = 0, multiplicity = 1:

       Center              X                  Y                   Z               Mass
    ------------   -----------------  -----------------  -----------------  -----------------
         F            0.424178942804    -0.752913216518     1.089889900307    18.998403162730
         F            1.412457942804     0.857513783482    -0.000003099693    18.998403162730
         F            0.424176942804    -0.752920216518    -1.089885099693    18.998403162730
         C           -0.950556057196     0.836563783482    -0.000002099693    12.000000000000
         C            0.340787342804     0.069867083482    -0.000000199693    12.000000000000
         C           -2.185040057196    -0.058224216518    -0.000000099693    12.000000000000
         H           -0.925197057196     1.481537783482     0.882662900307     1.007825032230
         H           -0.925197057196     1.481533783482    -0.882669099693     1.007825032230
         H           -2.199671057196    -0.696075216518     0.885909900307     1.007825032230
         H           -3.091317057196     0.551035783482    -0.000001099693     1.007825032230
         H           -2.199671057196    -0.696078216518    -0.885906099693     1.007825032230

  Basis Set: AUG-CC-PVTZ
    Blend: AUG-CC-PVTZ
  Basis Set: (AUG-CC-PVTZ AUX)
    Blend: AUG-CC-PVTZ-JKFIT
	 Reference Energy          =    -415.0173984624158834 [Eh]
	 Singles Energy            =      -0.0000000000000000 [Eh]
	 Same-Spin Energy          =      -0.3414439696838208 [Eh]
	 Opposite-Spin Energy      =      -1.0479898320244401 [Eh]
	 Correlation Energy        =      -1.3894338017082610 [Eh]
	 Total Energy              =    -416.4068322641241480 [Eh]

	 ================> DF-SCS-MP2 Energies <==================
	-----------------------------------------------------------
	 SCS Same-Spin Scale       =       0.3333333333333333 [-]
	 SCS Opposite-Spin Scale   =       1.2000000000000000 [-]
	 SCS Same-Spin Energy      =      -0.1138146565612736 [Eh]
	 SCS Opposite-Spin Energy  =      -1.2575877984293280 [Eh]
	 SCS Correlation Energy    =      -1.3714024549906016 [Eh]
	 SCS Total Energy          =    -416.3888009174065132 [Eh]
	-----------------------------------------------------------

  Dipole Moment: [D]
     X:    -2.0933      Y:     1.2936      Z:    -0.0000     Total:     2.4608

*** Psi4 exiting successfully. Buy a developer a beer!
