                               Psi4 1.3.2 release

  ==> Input File <==

--------------------------------------------------------------------------
#psi4
#
memory 32 gb

molecule  {
0 1
  F        0.5410600    -0.7777490     1.0898900
  F        1.5293390     0.8326780    -0.0000030
  F        0.5410580    -0.7777560    -1.0898850
  C       -0.8336750     0.8117280    -0.0000020
  C        0.4301244     0.0004311     0.0000001
  C       -2.0681590    -0.0830600     0.0000000
  H       -0.8083160     1.4567020     0.8826630
  H       -0.8083160     1.4566980    -0.8826690
  H       -2.0827900    -0.7209110     0.8859100
  H       -2.9744360     0.5262000    -0.0000010
  H       -2.0827900    -0.7209140    -0.8859060
units angstrom
no_reorient  #important for SAPT in psi4, default
symmetry c1  #important for SAPT in psi4, default
}

set PROPERTIES_ORIGIN ["COM"]
properties('MP2/aug-cc-pvtz', properties = ['dipole'])
--------------------------------------------------------------------------

    Molecular point group: c1
  Charge       = 0
  Multiplicity = 1
  Basis Set: AUG-CC-PVTZ
    Blend: AUG-CC-PVTZ
  Basis Set: (AUG-CC-PVTZ AUX)
    Blend: AUG-CC-PVTZ-JKFIT

    Orbital Energies [Eh]
    ---------------------

    Doubly Occupied:

       1A    -26.336509     2A    -26.336488     3A    -26.321760
       4A    -11.500760     5A    -11.261392     6A    -11.239204
       7A     -1.716435     8A     -1.631768     9A     -1.614005
      10A     -1.099076    11A     -0.963005    12A     -0.882256
      13A     -0.815968    14A     -0.808339    15A     -0.763814
      16A     -0.708826    17A     -0.698313    18A     -0.664583
      19A     -0.652350    20A     -0.641774    21A     -0.622712
      22A     -0.605379    23A     -0.542824    24A     -0.526839
      25A     -0.522968

  @DF-RHF Final Energy:  -415.01746063421808

   => Energetics <=

    Nuclear Repulsion Energy =            271.6718609790044070
    One-Electron Energy =               -1114.4239488166858791
    Two-Electron Energy =                 427.7346272034634467
    Total Energy =                       -415.0174606342180823
  Basis Set: (AUG-CC-PVTZ AUX)
    Blend: AUG-CC-PVTZ-RI
    Molecular point group: c1

    Geometry (in Angstrom), charge = 0, multiplicity = 1:

       Center              X                  Y                   Z               Mass
    ------------   -----------------  -----------------  -----------------  -----------------
         F            0.427550496262    -0.747453880236     1.089889875826    18.998403162730
         F            1.415829496262     0.862973119764    -0.000003124174    18.998403162730
         F            0.427548496262    -0.747460880236    -1.089885124174    18.998403162730
         C           -0.947184503738     0.842023119764    -0.000002124174    12.000000000000
         C            0.316614896262     0.030726219764    -0.000000024174    12.000000000000
         C           -2.181668503738    -0.052764880236    -0.000000124174    12.000000000000
         H           -0.921825503738     1.486997119764     0.882662875826     1.007825032230
         H           -0.921825503738     1.486993119764    -0.882669124174     1.007825032230
         H           -2.196299503738    -0.690615880236     0.885909875826     1.007825032230
         H           -3.087945503738     0.556495119764    -0.000001124174     1.007825032230
         H           -2.196299503738    -0.690618880236    -0.885906124174     1.007825032230

  Basis Set: AUG-CC-PVTZ
    Blend: AUG-CC-PVTZ
  Basis Set: (AUG-CC-PVTZ AUX)
    Blend: AUG-CC-PVTZ-JKFIT
	 Reference Energy          =    -415.0174606342180823 [Eh]
	 Singles Energy            =      -0.0000000000000000 [Eh]
	 Same-Spin Energy          =      -0.3414566980164753 [Eh]
	 Opposite-Spin Energy      =      -1.0480049540223126 [Eh]
	 Correlation Energy        =      -1.3894616520387879 [Eh]
	 Total Energy              =    -416.4069222862568722 [Eh]

	 ================> DF-SCS-MP2 Energies <==================
	-----------------------------------------------------------
	 SCS Same-Spin Scale       =       0.3333333333333333 [-]
	 SCS Opposite-Spin Scale   =       1.2000000000000000 [-]
	 SCS Same-Spin Energy      =      -0.1138188993388251 [Eh]
	 SCS Opposite-Spin Energy  =      -1.2576059448267751 [Eh]
	 SCS Correlation Energy    =      -1.3714248441656003 [Eh]
	 SCS Total Energy          =    -416.3888854783836564 [Eh]
	-----------------------------------------------------------

  Dipole Moment: [D]
     X:    -2.3132      Y:     0.9622      Z:    -0.0000     Total:     2.5053

*** Psi4 exiting successfully. Buy a developer a beer!
