                               Psi4 1.3.2 release

  ==> Input File <==

--------------------------------------------------------------------------
#psi4
#
memory 32 gb

molecule  {
0 1
  F        0.5620470    -0.7854331     1.0821231
  F        1.5293390     0.8326780    -0.0000030
  F        0.5410580    -0.7777560    -1.0898850
  C       -0.8336750     0.8117280    -0.0000020
  C        0.4440910     0.0226110     0.0000000
  C       -2.0681590    -0.0830600     0.0000000
  H       -0.8083160     1.4567020     0.8826630
  H       -0.8083160     1.4566980    -0.8826690
  H       -2.0827900    -0.7209110     0.8859100
  H       -2.9744360     0.5262000    -0.0000010
  H       -2.0827900    -0.7209140    -0.8859060
units angstrom
no_reorient  #important for SAPT in psi4, default
symmetry c1  #important for SAPT in psi4, default
}

set PROPERTIES_ORIGIN ["COM"]
properties('MP2/aug-cc-pvtz', properties = ['dipole'])
--------------------------------------------------------------------------

    Molecular point group: c1
  Charge       = 0
  Multiplicity = 1
  Basis Set: AUG-CC-PVTZ
    Blend: AUG-CC-PVTZ
  Basis Set: (AUG-CC-PVTZ AUX)
    Blend: AUG-CC-PVTZ-JKFIT

    Orbital Energies [Eh]
    ---------------------

    Doubly Occupied:

       1A    -26.330990     2A    -26.330970     3A    -26.330758
       4A    -11.500540     5A    -11.262258     6A    -11.239292
       7A     -1.715025     8A     -1.623151     9A     -1.622281
      10A     -1.098892    11A     -0.963329    12A     -0.881768
      13A     -0.812344    14A     -0.810236    15A     -0.762664
      16A     -0.705667    17A     -0.702111    18A     -0.659517
      19A     -0.656179    20A     -0.641469    21A     -0.622405
      22A     -0.604208    23A     -0.544755    24A     -0.527070
      25A     -0.523081

  @DF-RHF Final Energy:  -415.01821341385227

   => Energetics <=

    Nuclear Repulsion Energy =            271.5876768398252921
    One-Electron Energy =               -1114.2698592984631887
    Two-Electron Energy =                 427.6639690447856879
    Total Energy =                       -415.0182134138522656
  Basis Set: (AUG-CC-PVTZ AUX)
    Blend: AUG-CC-PVTZ-RI
    Molecular point group: c1

    Geometry (in Angstrom), charge = 0, multiplicity = 1:

       Center              X                  Y                   Z               Mass
    ------------   -----------------  -----------------  -----------------  -----------------
         F            0.442760758049    -0.756363807603     1.083628161719    18.998403162730
         F            1.410052758049     0.861747292397     0.001502061719    18.998403162730
         F            0.421771758049    -0.748686707603    -1.088379938281    18.998403162730
         C           -0.952961241951     0.840797292397     0.001503061719    12.000000000000
         C            0.324804758049     0.051680292397     0.001505061719    12.000000000000
         C           -2.187445241951    -0.053990707603     0.001505061719    12.000000000000
         H           -0.927602241951     1.485771292397     0.884168061719     1.007825032230
         H           -0.927602241951     1.485767292397    -0.881163938281     1.007825032230
         H           -2.202076241951    -0.691841707603     0.887415061719     1.007825032230
         H           -3.093722241951     0.555269292397     0.001504061719     1.007825032230
         H           -2.202076241951    -0.691844707603    -0.884400938281     1.007825032230

  Basis Set: AUG-CC-PVTZ
    Blend: AUG-CC-PVTZ
  Basis Set: (AUG-CC-PVTZ AUX)
    Blend: AUG-CC-PVTZ-JKFIT
	 Reference Energy          =    -415.0182134138522656 [Eh]
	 Singles Energy            =      -0.0000000000000000 [Eh]
	 Same-Spin Energy          =      -0.3413906656778785 [Eh]
	 Opposite-Spin Energy      =      -1.0478661738019341 [Eh]
	 Correlation Energy        =      -1.3892568394798126 [Eh]
	 Total Energy              =    -416.4074702533320647 [Eh]

	 ================> DF-SCS-MP2 Energies <==================
	-----------------------------------------------------------
	 SCS Same-Spin Scale       =       0.3333333333333333 [-]
	 SCS Opposite-Spin Scale   =       1.2000000000000000 [-]
	 SCS Same-Spin Energy      =      -0.1137968885592928 [Eh]
	 SCS Opposite-Spin Energy  =      -1.2574394085623208 [Eh]
	 SCS Correlation Energy    =      -1.3712362971216137 [Eh]
	 SCS Total Energy          =    -416.3894497109739063 [Eh]
	-----------------------------------------------------------

  Dipole Moment: [D]
     X:    -2.2415      Y:     1.1451      Z:     0.0038     Total:     2.5171

*** Psi4 exiting successfully. Buy a developer a beer!
