                               Psi4 1.3.2 release

  ==> Input File <==

--------------------------------------------------------------------------
#psi4
#
memory 32 gb

molecule  {
0 1
  F        0.5410600    -0.7777490     1.0898900
  F        1.5293390     0.8326780    -0.0000030
  F        0.5410580    -0.7777560    -1.0898850
  C       -0.8336750     0.8117280    -0.0000020
  C        0.5291735    -0.0299339     0.0000001
  C       -2.0681590    -0.0830600     0.0000000
  H       -0.8083160     1.4567020     0.8826630
  H       -0.8083160     1.4566980    -0.8826690
  H       -2.0827900    -0.7209110     0.8859100
  H       -2.9744360     0.5262000    -0.0000010
  H       -2.0827900    -0.7209140    -0.8859060
units angstrom
no_reorient  #important for SAPT in psi4, default
symmetry c1  #important for SAPT in psi4, default
}

set PROPERTIES_ORIGIN ["COM"]
properties('MP2/aug-cc-pvtz', properties = ['dipole'])
--------------------------------------------------------------------------

    Molecular point group: c1
  Charge       = 0
  Multiplicity = 1
  Basis Set: AUG-CC-PVTZ
    Blend: AUG-CC-PVTZ
  Basis Set: (AUG-CC-PVTZ AUX)
    Blend: AUG-CC-PVTZ-JKFIT

    Orbital Energies [Eh]
    ---------------------

    Doubly Occupied:

       1A    -26.340862     2A    -26.340826     3A    -26.340802
       4A    -11.498038     5A    -11.253064     6A    -11.230844
       7A     -1.736134     8A     -1.644536     9A     -1.644356
      10A     -1.071261    11A     -0.964186    12A     -0.878348
      13A     -0.832268    14A     -0.830376    15A     -0.770848
      16A     -0.715634    17A     -0.713134    18A     -0.676822
      19A     -0.673867    20A     -0.654239    21A     -0.615108
      22A     -0.587805    23A     -0.532517    24A     -0.512699
      25A     -0.493129

  @DF-RHF Final Energy:  -415.01146716415059

   => Energetics <=

    Nuclear Repulsion Energy =            272.0031298337597718
    One-Electron Energy =               -1114.9257890344138104
    Two-Electron Energy =                 427.9111920365034507
    Total Energy =                       -415.0114671641505879
  Basis Set: (AUG-CC-PVTZ AUX)
    Blend: AUG-CC-PVTZ-RI
    Molecular point group: c1

    Geometry (in Angstrom), charge = 0, multiplicity = 1:

       Center              X                  Y                   Z               Mass
    ------------   -----------------  -----------------  -----------------  -----------------
         F            0.415426282799    -0.743737019187     1.089889875826    18.998403162730
         F            1.403705282799     0.866689980813    -0.000003124174    18.998403162730
         F            0.415424282799    -0.743744019187    -1.089885124174    18.998403162730
         C           -0.959308717201     0.845739980813    -0.000002124174    12.000000000000
         C            0.403539782799     0.004078080813    -0.000000024174    12.000000000000
         C           -2.193792717201    -0.049048019187    -0.000000124174    12.000000000000
         H           -0.933949717201     1.490713980813     0.882662875826     1.007825032230
         H           -0.933949717201     1.490709980813    -0.882669124174     1.007825032230
         H           -2.208423717201    -0.686899019187     0.885909875826     1.007825032230
         H           -3.100069717201     0.560211980813    -0.000001124174     1.007825032230
         H           -2.208423717201    -0.686902019187    -0.885906124174     1.007825032230

  Basis Set: AUG-CC-PVTZ
    Blend: AUG-CC-PVTZ
  Basis Set: (AUG-CC-PVTZ AUX)
    Blend: AUG-CC-PVTZ-JKFIT
	 Reference Energy          =    -415.0114671641505879 [Eh]
	 Singles Energy            =      -0.0000000000000000 [Eh]
	 Same-Spin Energy          =      -0.3405344271290423 [Eh]
	 Opposite-Spin Energy      =      -1.0455742367627647 [Eh]
	 Correlation Energy        =      -1.3861086638918070 [Eh]
	 Total Energy              =    -416.3975758280424202 [Eh]

	 ================> DF-SCS-MP2 Energies <==================
	-----------------------------------------------------------
	 SCS Same-Spin Scale       =       0.3333333333333333 [-]
	 SCS Opposite-Spin Scale   =       1.2000000000000000 [-]
	 SCS Same-Spin Energy      =      -0.1135114757096808 [Eh]
	 SCS Opposite-Spin Energy  =      -1.2546890841153175 [Eh]
	 SCS Correlation Energy    =      -1.3682005598249982 [Eh]
	 SCS Total Energy          =    -416.3796677239755581 [Eh]
	-----------------------------------------------------------

  Dipole Moment: [D]
     X:    -1.5531      Y:     0.7888      Z:    -0.0000     Total:     1.7419

*** Psi4 exiting successfully. Buy a developer a beer!
