                               Psi4 1.3.2 release

  ==> Input File <==

--------------------------------------------------------------------------
#psi4
#
memory 32 gb

molecule  {
0 1
  F        0.5410600    -0.7777490     1.0898900
  F        1.5293390     0.8326780    -0.0000030
  F        0.5410580    -0.7777560    -1.0898850
  C       -0.8336750     0.8117280    -0.0000020
  C        0.4813972     0.0986759     0.1324119
  C       -2.0681590    -0.0830600     0.0000000
  H       -0.8083160     1.4567020     0.8826630
  H       -0.8083160     1.4566980    -0.8826690
  H       -2.0827900    -0.7209110     0.8859100
  H       -2.9744360     0.5262000    -0.0000010
  H       -2.0827900    -0.7209140    -0.8859060
units angstrom
no_reorient  #important for SAPT in psi4, default
symmetry c1  #important for SAPT in psi4, default
}

set PROPERTIES_ORIGIN ["COM"]
properties('MP2/aug-cc-pvtz', properties = ['dipole'])
--------------------------------------------------------------------------

    Molecular point group: c1
  Charge       = 0
  Multiplicity = 1
  Basis Set: AUG-CC-PVTZ
    Blend: AUG-CC-PVTZ
  Basis Set: (AUG-CC-PVTZ AUX)
    Blend: AUG-CC-PVTZ-JKFIT

    Orbital Energies [Eh]
    ---------------------

    Doubly Occupied:

       1A    -26.362786     2A    -26.357864     3A    -26.269370
       4A    -11.506087     5A    -11.264364     6A    -11.238763
       7A     -1.743618     8A     -1.671938     9A     -1.550533
      10A     -1.099357    11A     -0.971055    12A     -0.891750
      13A     -0.840099    14A     -0.810065    15A     -0.774302
      16A     -0.722180    17A     -0.690667    18A     -0.678945
      19A     -0.633007    20A     -0.613441    21A     -0.607170
      22A     -0.585316    23A     -0.551504    24A     -0.528758
      25A     -0.512549

  @DF-RHF Final Energy:  -414.99717097352311

   => Energetics <=

    Nuclear Repulsion Energy =            271.4055442806991323
    One-Electron Energy =               -1113.8544499850945613
    Two-Electron Energy =                 427.4517347308723174
    Total Energy =                       -414.9971709735231116
  Basis Set: (AUG-CC-PVTZ AUX)
    Blend: AUG-CC-PVTZ-RI
    Molecular point group: c1

    Geometry (in Angstrom), charge = 0, multiplicity = 1:

       Center              X                  Y                   Z               Mass
    ------------   -----------------  -----------------  -----------------  -----------------
         F            0.421274393077    -0.759479642478     1.073681864564    18.998403162730
         F            1.409553393077     0.850947357522    -0.016211135436    18.998403162730
         F            0.421272393077    -0.759486642478    -1.106093135436    18.998403162730
         C           -0.953460606923     0.829997357522    -0.016210135436    12.000000000000
         C            0.361611593077     0.116945257522     0.116203764564    12.000000000000
         C           -2.187944606923    -0.064790642478    -0.016208135436    12.000000000000
         H           -0.928101606923     1.474971357522     0.866454864564     1.007825032230
         H           -0.928101606923     1.474967357522    -0.898877135436     1.007825032230
         H           -2.202575606923    -0.702641642478     0.869701864564     1.007825032230
         H           -3.094221606923     0.544469357522    -0.016209135436     1.007825032230
         H           -2.202575606923    -0.702644642478    -0.902114135436     1.007825032230

  Basis Set: AUG-CC-PVTZ
    Blend: AUG-CC-PVTZ
  Basis Set: (AUG-CC-PVTZ AUX)
    Blend: AUG-CC-PVTZ-JKFIT
	 Reference Energy          =    -414.9971709735231116 [Eh]
	 Singles Energy            =      -0.0000000000000000 [Eh]
	 Same-Spin Energy          =      -0.3421984759305632 [Eh]
	 Opposite-Spin Energy      =      -1.0492600212955248 [Eh]
	 Correlation Energy        =      -1.3914584972260879 [Eh]
	 Total Energy              =    -416.3886294707492084 [Eh]

	 ================> DF-SCS-MP2 Energies <==================
	-----------------------------------------------------------
	 SCS Same-Spin Scale       =       0.3333333333333333 [-]
	 SCS Opposite-Spin Scale   =       1.2000000000000000 [-]
	 SCS Same-Spin Energy      =      -0.1140661586435211 [Eh]
	 SCS Opposite-Spin Energy  =      -1.2591120255546298 [Eh]
	 SCS Correlation Energy    =      -1.3731781841981507 [Eh]
	 SCS Total Energy          =    -416.3703491577212503 [Eh]
	-----------------------------------------------------------

  Dipole Moment: [D]
     X:    -1.9084      Y:     1.6916      Z:     0.9979     Total:     2.7385

*** Psi4 exiting successfully. Buy a developer a beer!
