                               Psi4 1.3.2 release

  ==> Input File <==

--------------------------------------------------------------------------
#psi4
#
memory 32 gb

molecule  {
0 1
  F        0.5410600    -0.7777490     1.0898900
  F        1.5293390     0.8326780    -0.0000030
  F        0.5410580    -0.7777560    -1.0898850
  C       -0.8336750     0.8117280    -0.0000020
  C        0.4114111    -0.0233434    -0.0883643
  C       -2.0681590    -0.0830600     0.0000000
  H       -0.8083160     1.4567020     0.8826630
  H       -0.8083160     1.4566980    -0.8826690
  H       -2.0827900    -0.7209110     0.8859100
  H       -2.9744360     0.5262000    -0.0000010
  H       -2.0827900    -0.7209140    -0.8859060
units angstrom
no_reorient  #important for SAPT in psi4, default
symmetry c1  #important for SAPT in psi4, default
}

set PROPERTIES_ORIGIN ["COM"]
properties('MP2/aug-cc-pvtz', properties = ['dipole'])
--------------------------------------------------------------------------

    Molecular point group: c1
  Charge       = 0
  Multiplicity = 1
  Basis Set: AUG-CC-PVTZ
    Blend: AUG-CC-PVTZ
  Basis Set: (AUG-CC-PVTZ AUX)
    Blend: AUG-CC-PVTZ-JKFIT

    Orbital Energies [Eh]
    ---------------------

    Doubly Occupied:

       1A    -26.371389     2A    -26.312050     3A    -26.309291
       4A    -11.502668     5A    -11.262410     6A    -11.239957
       7A     -1.746695     8A     -1.629152     9A     -1.589435
      10A     -1.100857    11A     -0.966957    12A     -0.891405
      13A     -0.822825    14A     -0.815265    15A     -0.772819
      16A     -0.704178    17A     -0.690510    18A     -0.665361
      19A     -0.645867    20A     -0.629241    21A     -0.622903
      22A     -0.602886    23A     -0.542045    24A     -0.530344
      25A     -0.519273

  @DF-RHF Final Energy:  -415.00643769315155

   => Energetics <=

    Nuclear Repulsion Energy =            271.7448372253463731
    One-Electron Energy =               -1114.5309866643308396
    Two-Electron Energy =                 427.7797117458329126
    Total Energy =                       -415.0064376931515540
  Basis Set: (AUG-CC-PVTZ AUX)
    Blend: AUG-CC-PVTZ-RI
    Molecular point group: c1

    Geometry (in Angstrom), charge = 0, multiplicity = 1:

       Center              X                  Y                   Z               Mass
    ------------   -----------------  -----------------  -----------------  -----------------
         F            0.429841118224    -0.744543736550     1.100706216894    18.998403162730
         F            1.418120118224     0.865883263450     0.010813216894    18.998403162730
         F            0.429839118224    -0.744550736550    -1.079068783106    18.998403162730
         C           -0.944893881776     0.844933263450     0.010814216894    12.000000000000
         C            0.300192218224     0.009861863450    -0.077548083106    12.000000000000
         C           -2.179377881776    -0.049854736550     0.010816216894    12.000000000000
         H           -0.919534881776     1.489907263450     0.893479216894     1.007825032230
         H           -0.919534881776     1.489903263450    -0.871852783106     1.007825032230
         H           -2.194008881776    -0.687705736550     0.896726216894     1.007825032230
         H           -3.085654881776     0.559405263450     0.010815216894     1.007825032230
         H           -2.194008881776    -0.687708736550    -0.875089783106     1.007825032230

  Basis Set: AUG-CC-PVTZ
    Blend: AUG-CC-PVTZ
  Basis Set: (AUG-CC-PVTZ AUX)
    Blend: AUG-CC-PVTZ-JKFIT
	 Reference Energy          =    -415.0064376931515540 [Eh]
	 Singles Energy            =      -0.0000000000000000 [Eh]
	 Same-Spin Energy          =      -0.3418374326714078 [Eh]
	 Opposite-Spin Energy      =      -1.0487234502187122 [Eh]
	 Correlation Energy        =      -1.3905608828901199 [Eh]
	 Total Energy              =    -416.3969985760416535 [Eh]

	 ================> DF-SCS-MP2 Energies <==================
	-----------------------------------------------------------
	 SCS Same-Spin Scale       =       0.3333333333333333 [-]
	 SCS Opposite-Spin Scale   =       1.2000000000000000 [-]
	 SCS Same-Spin Energy      =      -0.1139458108904692 [Eh]
	 SCS Opposite-Spin Energy  =      -1.2584681402624545 [Eh]
	 SCS Correlation Energy    =      -1.3724139511529236 [Eh]
	 SCS Total Energy          =    -416.3788516443044614 [Eh]
	-----------------------------------------------------------

  Dipole Moment: [D]
     X:    -2.4655      Y:     0.7783      Z:    -0.6766     Total:     2.6725

*** Psi4 exiting successfully. Buy a developer a beer!
