                               Psi4 1.3.2 release

  ==> Input File <==

--------------------------------------------------------------------------
#psi4
#
memory 32 gb

molecule  {
0 1
  F        0.5410600    -0.7777490     1.0898900
  F        1.5293390     0.8326780    -0.0000030
  F        0.5410580    -0.7777560    -1.0898850
  C       -0.8336750     0.8117280    -0.0000020
  C        0.6142560    -0.0824788     0.0000003
  C       -2.0681590    -0.0830600     0.0000000
  H       -0.8083160     1.4567020     0.8826630
  H       -0.8083160     1.4566980    -0.8826690
  H       -2.0827900    -0.7209110     0.8859100
  H       -2.9744360     0.5262000    -0.0000010
  H       -2.0827900    -0.7209140    -0.8859060
units angstrom
no_reorient  #important for SAPT in psi4, default
symmetry c1  #important for SAPT in psi4, default
}

set PROPERTIES_ORIGIN ["COM"]
properties('MP2/aug-cc-pvtz', properties = ['dipole'])
--------------------------------------------------------------------------

    Molecular point group: c1
  Charge       = 0
  Multiplicity = 1
  Basis Set: AUG-CC-PVTZ
    Blend: AUG-CC-PVTZ
  Basis Set: (AUG-CC-PVTZ AUX)
    Blend: AUG-CC-PVTZ-JKFIT

    Orbital Energies [Eh]
    ---------------------

    Doubly Occupied:

       1A    -26.350381     2A    -26.350362     3A    -26.350224
       4A    -11.500468     5A    -11.241363     6A    -11.223009
       7A     -1.754797     8A     -1.663970     9A     -1.663950
      10A     -1.049785    11A     -0.968461    12A     -0.873301
      13A     -0.850579    14A     -0.848549    15A     -0.777696
      16A     -0.724412    17A     -0.722719    18A     -0.692699
      19A     -0.689931    20A     -0.665629    21A     -0.606602
      22A     -0.575356    23A     -0.521489    24A     -0.502635
      25A     -0.450502

  @DF-RHF Final Energy:  -414.98360294166491

   => Energetics <=

    Nuclear Repulsion Energy =            272.2323312938549975
    One-Electron Energy =               -1115.1941341851120342
    Two-Electron Energy =                 427.9781999495921809
    Total Energy =                       -414.9836029416649126
  Basis Set: (AUG-CC-PVTZ AUX)
    Blend: AUG-CC-PVTZ-RI
    Molecular point group: c1

    Geometry (in Angstrom), charge = 0, multiplicity = 1:

       Center              X                  Y                   Z               Mass
    ------------   -----------------  -----------------  -----------------  -----------------
         F            0.405011666291    -0.737305203209     1.089889851345    18.998403162730
         F            1.393290666291     0.873121796791    -0.000003148655    18.998403162730
         F            0.405009666291    -0.737312203209    -1.089885148655    18.998403162730
         C           -0.969723333709     0.852171796791    -0.000002148655    12.000000000000
         C            0.478207666291    -0.042035003209     0.000000151345    12.000000000000
         C           -2.204207333709    -0.042616203209    -0.000000148655    12.000000000000
         H           -0.944364333709     1.497145796791     0.882662851345     1.007825032230
         H           -0.944364333709     1.497141796791    -0.882669148655     1.007825032230
         H           -2.218838333709    -0.680467203209     0.885909851345     1.007825032230
         H           -3.110484333709     0.566643796791    -0.000001148655     1.007825032230
         H           -2.218838333709    -0.680470203209    -0.885906148655     1.007825032230

  Basis Set: AUG-CC-PVTZ
    Blend: AUG-CC-PVTZ
  Basis Set: (AUG-CC-PVTZ AUX)
    Blend: AUG-CC-PVTZ-JKFIT
	 Reference Energy          =    -414.9836029416649126 [Eh]
	 Singles Energy            =      -0.0000000000000000 [Eh]
	 Same-Spin Energy          =      -0.3406860948631495 [Eh]
	 Opposite-Spin Energy      =      -1.0454628818864353 [Eh]
	 Correlation Energy        =      -1.3861489767495847 [Eh]
	 Total Energy              =    -416.3697519184145222 [Eh]

	 ================> DF-SCS-MP2 Energies <==================
	-----------------------------------------------------------
	 SCS Same-Spin Scale       =       0.3333333333333333 [-]
	 SCS Opposite-Spin Scale   =       1.2000000000000000 [-]
	 SCS Same-Spin Energy      =      -0.1135620316210498 [Eh]
	 SCS Opposite-Spin Energy  =      -1.2545554582637224 [Eh]
	 SCS Correlation Energy    =      -1.3681174898847721 [Eh]
	 SCS Total Energy          =    -416.3517204315496656 [Eh]
	-----------------------------------------------------------

  Dipole Moment: [D]
     X:    -0.8801      Y:     0.4349      Z:    -0.0000     Total:     0.9817

*** Psi4 exiting successfully. Buy a developer a beer!
