                               Psi4 1.4a3.dev225

  ==> Input File <==

--------------------------------------------------------------------------
#psi4
#
memory 32 gb

molecule  {
0 1
  F        0.5410600    -0.7777490     1.0898900
  F        1.5293390     0.8326780    -0.0000030
  F        0.5410580    -0.7777560    -1.0898850
  C       -0.8336750     0.8117280    -0.0000020
  C        0.4866323    -0.0036614     0.0000001
  C       -2.0681590    -0.0830600     0.0000000
  H       -0.8083160     1.4567020     0.8826630
  H       -0.8083160     1.4566980    -0.8826690
  H       -2.0827900    -0.7209110     0.8859100
  H       -2.9744360     0.5262000    -0.0000010
  H       -2.0827900    -0.7209140    -0.8859060
units angstrom
no_reorient  #important for SAPT in psi4, default
symmetry c1  #important for SAPT in psi4, default
}

set PROPERTIES_ORIGIN ["COM"]
properties('MP2/aug-cc-pvtz', properties = ['dipole'])
--------------------------------------------------------------------------

    Molecular point group: c1
  Charge       = 0
  Multiplicity = 1
  Basis Set: AUG-CC-PVTZ
    Blend: AUG-CC-PVTZ
  Basis Set: (AUG-CC-PVTZ AUX)
    Blend: AUG-CC-PVTZ-JKFIT

    Orbital Energies [Eh]
    ---------------------

    Doubly Occupied:

       1A    -26.336352     2A    -26.336228     3A    -26.336205
       4A    -11.498863     5A    -11.257605     6A    -11.234788
       7A     -1.725896     8A     -1.634306     9A     -1.634060
      10A     -1.084008    11A     -0.963233    12A     -0.880359
      13A     -0.822731    14A     -0.820704    15A     -0.766775
      16A     -0.711058    17A     -0.707942    18A     -0.668769
      19A     -0.665627    20A     -0.648459    21A     -0.618763
      22A     -0.595123    23A     -0.538167    24A     -0.517619
      25A     -0.511245

  @DF-RHF Final Energy:  -415.01772384303064

   => Energetics <=

    Nuclear Repulsion Energy =            271.8257565592842866
    One-Electron Energy =               -1114.6571894655000960
    Two-Electron Energy =                 427.8137090631851720
    Total Energy =                       -415.0177238430306375
  Basis Set: (AUG-CC-PVTZ AUX)
    Blend: AUG-CC-PVTZ-RI
    Molecular point group: c1

    Geometry (in Angstrom), charge = 0, multiplicity = 1:

       Center              X                  Y                   Z               Mass
    ------------   -----------------  -----------------  -----------------  -----------------
         F            0.420633584933    -0.746952933296     1.089889875826    18.998403162730
         F            1.408912584933     0.863474066704    -0.000003124174    18.998403162730
         F            0.420631584933    -0.746959933296    -1.089885124174    18.998403162730
         C           -0.954101415067     0.842524066704    -0.000002124174    12.000000000000
         C            0.366205884933     0.027134666704    -0.000000024174    12.000000000000
         C           -2.188585415067    -0.052263933296    -0.000000124174    12.000000000000
         H           -0.928742415067     1.487498066704     0.882662875826     1.007825032230
         H           -0.928742415067     1.487494066704    -0.882669124174     1.007825032230
         H           -2.203216415067    -0.690114933296     0.885909875826     1.007825032230
         H           -3.094862415067     0.556996066704    -0.000001124174     1.007825032230
         H           -2.203216415067    -0.690117933296    -0.885906124174     1.007825032230

  Basis Set: AUG-CC-PVTZ
    Blend: AUG-CC-PVTZ
  Basis Set: (AUG-CC-PVTZ AUX)
    Blend: AUG-CC-PVTZ-JKFIT
	 Reference Energy          =    -415.0177238430306375 [Eh]
	 Singles Energy            =      -0.0000000000000000 [Eh]
	 Same-Spin Energy          =      -0.3408446355164449 [Eh]
	 Opposite-Spin Energy      =      -1.0464798594305915 [Eh]
	 Correlation Energy        =      -1.3873244949470365 [Eh]
	 Total Energy              =    -416.4050483379776892 [Eh]

	 ================> DF-SCS-MP2 Energies <==================
	-----------------------------------------------------------
	 SCS Same-Spin Scale       =       0.3333333333333333 [-]
	 SCS Opposite-Spin Scale   =       1.2000000000000000 [-]
	 SCS Same-Spin Energy      =      -0.1136148785054816 [Eh]
	 SCS Opposite-Spin Energy  =      -1.2557758313167098 [Eh]
	 SCS Correlation Energy    =      -1.3693907098221914 [Eh]
	 SCS Total Energy          =    -416.3871145528528359 [Eh]
	-----------------------------------------------------------

  Dipole Moment: [D]
     X:    -1.8782      Y:     0.9586      Z:    -0.0000     Total:     2.1087

*** Psi4 exiting successfully. Buy a developer a beer!
