                               Psi4 1.3.2 release

  ==> Input File <==

--------------------------------------------------------------------------
#psi4
#
memory 32 gb

molecule  {
0 1
  F        0.5410600    -0.7777490     1.0898900
  F        1.5293390     0.8326780    -0.0000030
  F        0.5410580    -0.7777560    -1.0898850
  C       -0.8336750     0.8117280    -0.0000020
  C        0.4512939     0.0347095     0.0221079
  C       -2.0681590    -0.0830600     0.0000000
  H       -0.8083160     1.4567020     0.8826630
  H       -0.8083160     1.4566980    -0.8826690
  H       -2.0827900    -0.7209110     0.8859100
  H       -2.9744360     0.5262000    -0.0000010
  H       -2.0827900    -0.7209140    -0.8859060
units angstrom
no_reorient  #important for SAPT in psi4, default
symmetry c1  #important for SAPT in psi4, default
}

set PROPERTIES_ORIGIN ["COM"]
properties('MP2/aug-cc-pvtz', properties = ['dipole'])
--------------------------------------------------------------------------

    Molecular point group: c1
  Charge       = 0
  Multiplicity = 1
  Basis Set: AUG-CC-PVTZ
    Blend: AUG-CC-PVTZ
  Basis Set: (AUG-CC-PVTZ AUX)
    Blend: AUG-CC-PVTZ-JKFIT

    Orbital Energies [Eh]
    ---------------------

    Doubly Occupied:

       1A    -26.337120     2A    -26.336145     3A    -26.321564
       4A    -11.500852     5A    -11.261488     6A    -11.238701
       7A     -1.716500     8A     -1.632047     9A     -1.613861
      10A     -1.098207    11A     -0.963898    12A     -0.881600
      13A     -0.814453    14A     -0.810498    15A     -0.762615
      16A     -0.706473    17A     -0.702452    18A     -0.663104
      19A     -0.655174    20A     -0.640915    21A     -0.621386
      22A     -0.601769    23A     -0.545260    24A     -0.526149
      25A     -0.521884

  @DF-RHF Final Energy:  -415.01744438777513

   => Energetics <=

    Nuclear Repulsion Energy =            271.5929368979569176
    One-Electron Energy =               -1114.2725268586900711
    Two-Electron Energy =                 427.6621455729580816
    Total Energy =                       -415.0174443877751287
  Basis Set: (AUG-CC-PVTZ AUX)
    Blend: AUG-CC-PVTZ-RI
    Molecular point group: c1

    Geometry (in Angstrom), charge = 0, multiplicity = 1:

       Center              X                  Y                   Z               Mass
    ------------   -----------------  -----------------  -----------------  -----------------
         F            0.424959220452    -0.751649765295     1.087183746377    18.998403162730
         F            1.413238220452     0.858777234705    -0.002709253623    18.998403162730
         F            0.424957220452    -0.751656765295    -1.092591253623    18.998403162730
         C           -0.949775779548     0.837827234705    -0.002708253623    12.000000000000
         C            0.335193120452     0.060808734705     0.019401646377    12.000000000000
         C           -2.184259779548    -0.056960765295    -0.002706253623    12.000000000000
         H           -0.924416779548     1.482801234705     0.879956746377     1.007825032230
         H           -0.924416779548     1.482797234705    -0.885375253623     1.007825032230
         H           -2.198890779548    -0.694811765295     0.883203746377     1.007825032230
         H           -3.090536779548     0.552299234705    -0.002707253623     1.007825032230
         H           -2.198890779548    -0.694814765295    -0.888612253623     1.007825032230

  Basis Set: AUG-CC-PVTZ
    Blend: AUG-CC-PVTZ
  Basis Set: (AUG-CC-PVTZ AUX)
    Blend: AUG-CC-PVTZ-JKFIT
	 Reference Energy          =    -415.0174443877751287 [Eh]
	 Singles Energy            =      -0.0000000000000000 [Eh]
	 Same-Spin Energy          =      -0.3414463045882402 [Eh]
	 Opposite-Spin Energy      =      -1.0479907086626870 [Eh]
	 Correlation Energy        =      -1.3894370132509271 [Eh]
	 Total Energy              =    -416.4068814010260553 [Eh]

	 ================> DF-SCS-MP2 Energies <==================
	-----------------------------------------------------------
	 SCS Same-Spin Scale       =       0.3333333333333333 [-]
	 SCS Opposite-Spin Scale   =       1.2000000000000000 [-]
	 SCS Same-Spin Energy      =      -0.1138154348627467 [Eh]
	 SCS Opposite-Spin Energy  =      -1.2575888503952244 [Eh]
	 SCS Correlation Energy    =      -1.3714042852579711 [Eh]
	 SCS Total Energy          =    -416.3888486730331238 [Eh]
	-----------------------------------------------------------

  Dipole Moment: [D]
     X:    -2.1445      Y:     1.2163      Z:     0.1663     Total:     2.4710

*** Psi4 exiting successfully. Buy a developer a beer!
