                               Psi4 1.3.2 release

  ==> Input File <==

--------------------------------------------------------------------------
#psi4
#
memory 32 gb

molecule  {
0 1
  F        0.5410600    -0.7777490     1.0898900
  F        1.5293390     0.8326780    -0.0000030
  F        0.5410580    -0.7777560    -1.0898850
  C       -0.8336750     0.8117280    -0.0000020
  C        0.4285200    -0.0008612    -0.0442091
  C       -2.0681590    -0.0830600     0.0000000
  H       -0.8083160     1.4567020     0.8826630
  H       -0.8083160     1.4566980    -0.8826690
  H       -2.0827900    -0.7209110     0.8859100
  H       -2.9744360     0.5262000    -0.0000010
  H       -2.0827900    -0.7209140    -0.8859060
units angstrom
no_reorient  #important for SAPT in psi4, default
symmetry c1  #important for SAPT in psi4, default
}

set PROPERTIES_ORIGIN ["COM"]
properties('MP2/aug-cc-pvtz', properties = ['dipole'])
--------------------------------------------------------------------------

    Molecular point group: c1
  Charge       = 0
  Multiplicity = 1
  Basis Set: AUG-CC-PVTZ
    Blend: AUG-CC-PVTZ
  Basis Set: (AUG-CC-PVTZ AUX)
    Blend: AUG-CC-PVTZ-JKFIT

    Orbital Energies [Eh]
    ---------------------

    Doubly Occupied:

       1A    -26.351436     2A    -26.322094     3A    -26.320826
       4A    -11.501158     5A    -11.261607     6A    -11.239298
       7A     -1.722871     8A     -1.633263     9A     -1.606678
      10A     -1.099338    11A     -0.963768    12A     -0.884144
      13A     -0.817339    14A     -0.809551    15A     -0.765854
      16A     -0.707448    17A     -0.697467    18A     -0.665019
      19A     -0.651722    20A     -0.637590    21A     -0.623424
      22A     -0.604217    23A     -0.542816    24A     -0.528106
      25A     -0.521590

  @DF-RHF Final Energy:  -415.01531927938743

   => Energetics <=

    Nuclear Repulsion Energy =            271.6774526594932695
    One-Electron Energy =               -1114.4282925334637184
    Two-Electron Energy =                 427.7355205945830221
    Total Energy =                       -415.0153192793874268
  Basis Set: (AUG-CC-PVTZ AUX)
    Blend: AUG-CC-PVTZ-RI
    Molecular point group: c1

    Geometry (in Angstrom), charge = 0, multiplicity = 1:

       Center              X                  Y                   Z               Mass
    ------------   -----------------  -----------------  -----------------  -----------------
         F            0.427746884600    -0.747295694841     1.095301351325    18.998403162730
         F            1.416025884600     0.863131305159     0.005408351325    18.998403162730
         F            0.427744884600    -0.747302694841    -1.084473648675    18.998403162730
         C           -0.946988115400     0.842181305159     0.005409351325    12.000000000000
         C            0.315206884600     0.029592105159    -0.038797748675    12.000000000000
         C           -2.181472115400    -0.052606694841     0.005411351325    12.000000000000
         H           -0.921629115400     1.487155305159     0.888074351325     1.007825032230
         H           -0.921629115400     1.487151305159    -0.877257648675     1.007825032230
         H           -2.196103115400    -0.690457694841     0.891321351325     1.007825032230
         H           -3.087749115400     0.556653305159     0.005410351325     1.007825032230
         H           -2.196103115400    -0.690460694841    -0.880494648675     1.007825032230

  Basis Set: AUG-CC-PVTZ
    Blend: AUG-CC-PVTZ
  Basis Set: (AUG-CC-PVTZ AUX)
    Blend: AUG-CC-PVTZ-JKFIT
	 Reference Energy          =    -415.0153192793874268 [Eh]
	 Singles Energy            =      -0.0000000000000000 [Eh]
	 Same-Spin Energy          =      -0.3415322267556293 [Eh]
	 Opposite-Spin Energy      =      -1.0481461320163192 [Eh]
	 Correlation Energy        =      -1.3896783587719486 [Eh]
	 Total Energy              =    -416.4049976381593865 [Eh]

	 ================> DF-SCS-MP2 Energies <==================
	-----------------------------------------------------------
	 SCS Same-Spin Scale       =       0.3333333333333333 [-]
	 SCS Opposite-Spin Scale   =       1.2000000000000000 [-]
	 SCS Same-Spin Energy      =      -0.1138440755852098 [Eh]
	 SCS Opposite-Spin Energy  =      -1.2577753584195830 [Eh]
	 SCS Correlation Energy    =      -1.3716194340047927 [Eh]
	 SCS Total Energy          =    -416.3869387133922260 [Eh]
	-----------------------------------------------------------

  Dipole Moment: [D]
     X:    -2.3267      Y:     0.9509      Z:    -0.3353     Total:     2.5358

*** Psi4 exiting successfully. Buy a developer a beer!
