                               Psi4 1.3.2 release

  ==> Input File <==

--------------------------------------------------------------------------
#psi4
#
memory 32 gb

molecule  {
0 1
  F        0.5410600    -0.7777490     1.0898900
  F        1.5293390     0.8326780    -0.0000030
  F        0.5410580    -0.7777560    -1.0898850
  C       -0.8336750     0.8117280    -0.0000020
  C        0.2739260     0.1277008    -0.0000003
  C       -2.0681590    -0.0830600     0.0000000
  H       -0.8083160     1.4567020     0.8826630
  H       -0.8083160     1.4566980    -0.8826690
  H       -2.0827900    -0.7209110     0.8859100
  H       -2.9744360     0.5262000    -0.0000010
  H       -2.0827900    -0.7209140    -0.8859060
units angstrom
no_reorient  #important for SAPT in psi4, default
symmetry c1  #important for SAPT in psi4, default
}

set PROPERTIES_ORIGIN ["COM"]
properties('MP2/aug-cc-pvtz', properties = ['dipole'])
--------------------------------------------------------------------------

    Molecular point group: c1
  Charge       = 0
  Multiplicity = 1
  Basis Set: AUG-CC-PVTZ
    Blend: AUG-CC-PVTZ
  Basis Set: (AUG-CC-PVTZ AUX)
    Blend: AUG-CC-PVTZ-JKFIT

    Orbital Energies [Eh]
    ---------------------

    Doubly Occupied:

       1A    -26.310238     2A    -26.309756     3A    -26.309734
       4A    -11.510940     5A    -11.271053     6A    -11.258152
       7A     -1.664217     8A     -1.577743     9A     -1.577325
      10A     -1.176114    11A     -0.976831    12A     -0.869325
      13A     -0.778110    14A     -0.776072    15A     -0.742102
      16A     -0.688641    17A     -0.677280    18A     -0.636986
      19A     -0.633059    20A     -0.617958    21A     -0.616284
      22A     -0.614813    23A     -0.572850    24A     -0.557925
      25A     -0.543464

  @DF-RHF Final Energy:  -414.94886414214790

   => Energetics <=

    Nuclear Repulsion Energy =            270.7436446605933043
    One-Electron Energy =               -1112.8510696926605306
    Two-Electron Energy =                 427.1585608899193289
    Total Energy =                       -414.9488641421478974
  Basis Set: (AUG-CC-PVTZ AUX)
    Blend: AUG-CC-PVTZ-RI
    Molecular point group: c1

    Geometry (in Angstrom), charge = 0, multiplicity = 1:

       Center              X                  Y                   Z               Mass
    ------------   -----------------  -----------------  -----------------  -----------------
         F            0.446670132323    -0.763032467121     1.089889924788    18.998403162730
         F            1.434949132323     0.847394532879    -0.000003075212    18.998403162730
         F            0.446668132323    -0.763039467121    -1.089885075212    18.998403162730
         C           -0.928064867677     0.826444532879    -0.000002075212    12.000000000000
         C            0.179536132323     0.142417332879    -0.000000375212    12.000000000000
         C           -2.162548867677    -0.068343467121    -0.000000075212    12.000000000000
         H           -0.902705867677     1.471418532879     0.882662924788     1.007825032230
         H           -0.902705867677     1.471414532879    -0.882669075212     1.007825032230
         H           -2.177179867677    -0.706194467121     0.885909924788     1.007825032230
         H           -3.068825867677     0.540916532879    -0.000001075212     1.007825032230
         H           -2.177179867677    -0.706197467121    -0.885906075212     1.007825032230

  Basis Set: AUG-CC-PVTZ
    Blend: AUG-CC-PVTZ
  Basis Set: (AUG-CC-PVTZ AUX)
    Blend: AUG-CC-PVTZ-JKFIT
	 Reference Energy          =    -414.9488641421478974 [Eh]
	 Singles Energy            =      -0.0000000000000000 [Eh]
	 Same-Spin Energy          =      -0.3466119908147937 [Eh]
	 Opposite-Spin Energy      =      -1.0593776347018089 [Eh]
	 Correlation Energy        =      -1.4059896255166027 [Eh]
	 Total Energy              =    -416.3548537676645083 [Eh]

	 ================> DF-SCS-MP2 Energies <==================
	-----------------------------------------------------------
	 SCS Same-Spin Scale       =       0.3333333333333333 [-]
	 SCS Opposite-Spin Scale   =       1.2000000000000000 [-]
	 SCS Same-Spin Energy      =      -0.1155373302715979 [Eh]
	 SCS Opposite-Spin Energy  =      -1.2712531616421707 [Eh]
	 SCS Correlation Energy    =      -1.3867904919137686 [Eh]
	 SCS Total Energy          =    -416.3356546340616546 [Eh]
	-----------------------------------------------------------

  Dipole Moment: [D]
     X:    -3.6036      Y:     1.8399      Z:    -0.0000     Total:     4.0461

*** Psi4 exiting successfully. Buy a developer a beer!
