                               Psi4 1.3.2 release

  ==> Input File <==

--------------------------------------------------------------------------
#psi4
#
memory 32 gb

molecule  {
0 1
  F        0.5410600    -0.7777490     1.0898900
  F        1.5293390     0.8326780    -0.0000030
  F        0.5410580    -0.7777560    -1.0898850
  C       -0.8336750     0.8117280    -0.0000020
  C        0.5195765     0.1604968    -0.0000003
  C       -2.0681590    -0.0830600     0.0000000
  H       -0.8083160     1.4567020     0.8826630
  H       -0.8083160     1.4566980    -0.8826690
  H       -2.0827900    -0.7209110     0.8859100
  H       -2.9744360     0.5262000    -0.0000010
  H       -2.0827900    -0.7209140    -0.8859060
units angstrom
no_reorient  #important for SAPT in psi4, default
symmetry c1  #important for SAPT in psi4, default
}

set PROPERTIES_ORIGIN ["COM"]
properties('MP2/aug-cc-pvtz', properties = ['dipole'])
--------------------------------------------------------------------------

    Molecular point group: c1
  Charge       = 0
  Multiplicity = 1
  Basis Set: AUG-CC-PVTZ
    Blend: AUG-CC-PVTZ
  Basis Set: (AUG-CC-PVTZ AUX)
    Blend: AUG-CC-PVTZ-JKFIT

    Orbital Energies [Eh]
    ---------------------

    Doubly Occupied:

       1A    -26.392382     2A    -26.299037     3A    -26.299015
       4A    -11.505633     5A    -11.264309     6A    -11.237938
       7A     -1.781843     8A     -1.617135     9A     -1.572122
      10A     -1.098060    11A     -0.978606    12A     -0.900147
      13A     -0.830244    14A     -0.829234    15A     -0.778123
      16A     -0.695105    17A     -0.689812    18A     -0.659287
      19A     -0.643397    20A     -0.615420    21A     -0.607162
      22A     -0.589897    23A     -0.556201    24A     -0.520974
      25A     -0.516688

  @DF-RHF Final Energy:  -414.99028586665145

   => Energetics <=

    Nuclear Repulsion Energy =            271.3727676061085958
    One-Electron Energy =               -1113.7705593259140642
    Two-Electron Energy =                 427.4075058531540208
    Total Energy =                       -414.9902858666514476
  Basis Set: (AUG-CC-PVTZ AUX)
    Blend: AUG-CC-PVTZ-RI
    Molecular point group: c1

    Geometry (in Angstrom), charge = 0, multiplicity = 1:

       Center              X                  Y                   Z               Mass
    ------------   -----------------  -----------------  -----------------  -----------------
         F            0.416601014085    -0.767046897386     1.089889924788    18.998403162730
         F            1.404880014085     0.843380102614    -0.000003075212    18.998403162730
         F            0.416599014085    -0.767053897386    -1.089885075212    18.998403162730
         C           -0.958133985915     0.822430102614    -0.000002075212    12.000000000000
         C            0.395117514085     0.171198902614    -0.000000375212    12.000000000000
         C           -2.192617985915    -0.072357897386    -0.000000075212    12.000000000000
         H           -0.932774985915     1.467404102614     0.882662924788     1.007825032230
         H           -0.932774985915     1.467400102614    -0.882669075212     1.007825032230
         H           -2.207248985915    -0.710208897386     0.885909924788     1.007825032230
         H           -3.098894985915     0.536902102614    -0.000001075212     1.007825032230
         H           -2.207248985915    -0.710211897386    -0.885906075212     1.007825032230

  Basis Set: AUG-CC-PVTZ
    Blend: AUG-CC-PVTZ
  Basis Set: (AUG-CC-PVTZ AUX)
    Blend: AUG-CC-PVTZ-JKFIT
	 Reference Energy          =    -414.9902858666514476 [Eh]
	 Singles Energy            =      -0.0000000000000000 [Eh]
	 Same-Spin Energy          =      -0.3422721056578047 [Eh]
	 Opposite-Spin Energy      =      -1.0496148985019309 [Eh]
	 Correlation Energy        =      -1.3918870041597355 [Eh]
	 Total Energy              =    -416.3821728708111891 [Eh]

	 ================> DF-SCS-MP2 Energies <==================
	-----------------------------------------------------------
	 SCS Same-Spin Scale       =       0.3333333333333333 [-]
	 SCS Opposite-Spin Scale   =       1.2000000000000000 [-]
	 SCS Same-Spin Energy      =      -0.1140907018859349 [Eh]
	 SCS Opposite-Spin Energy  =      -1.2595378782023170 [Eh]
	 SCS Correlation Energy    =      -1.3736285800882519 [Eh]
	 SCS Total Energy          =    -416.3639144467397273 [Eh]
	-----------------------------------------------------------

  Dipole Moment: [D]
     X:    -1.5813      Y:     2.1788      Z:    -0.0000     Total:     2.6922

*** Psi4 exiting successfully. Buy a developer a beer!
