                               Psi4 1.3.2 release

  ==> Input File <==

--------------------------------------------------------------------------
#psi4
#
memory 32 gb

molecule  {
0 1
  F        0.5410600    -0.7777490     1.0898900
  F        1.5293390     0.8326780    -0.0000030
  F        0.5410580    -0.7777560    -1.0898850
  C       -0.8336750     0.8117280    -0.0000020
  C        0.4705457     0.0724099     0.0883643
  C       -2.0681590    -0.0830600     0.0000000
  H       -0.8083160     1.4567020     0.8826630
  H       -0.8083160     1.4566980    -0.8826690
  H       -2.0827900    -0.7209110     0.8859100
  H       -2.9744360     0.5262000    -0.0000010
  H       -2.0827900    -0.7209140    -0.8859060
units angstrom
no_reorient  #important for SAPT in psi4, default
symmetry c1  #important for SAPT in psi4, default
}

set PROPERTIES_ORIGIN ["COM"]
properties('MP2/aug-cc-pvtz', properties = ['dipole'])
--------------------------------------------------------------------------

    Molecular point group: c1
  Charge       = 0
  Multiplicity = 1
  Basis Set: AUG-CC-PVTZ
    Blend: AUG-CC-PVTZ
  Basis Set: (AUG-CC-PVTZ AUX)
    Blend: AUG-CC-PVTZ-JKFIT

    Orbital Energies [Eh]
    ---------------------

    Doubly Occupied:

       1A    -26.352661     2A    -26.349364     3A    -26.290773
       4A    -11.503103     5A    -11.262731     6A    -11.238575
       7A     -1.731039     8A     -1.656480     9A     -1.576920
      10A     -1.098433    11A     -0.967485    12A     -0.886512
      13A     -0.828511    14A     -0.808345    15A     -0.768383
      16A     -0.715276    17A     -0.689806    18A     -0.679523
      19A     -0.638480    20A     -0.626224    21A     -0.618892
      22A     -0.593441    23A     -0.548799    24A     -0.527613
      25A     -0.516972

  @DF-RHF Final Energy:  -415.00829908461975

   => Energetics <=

    Nuclear Repulsion Energy =            271.4964485272454908
    One-Electron Energy =               -1114.0608100450965594
    Two-Electron Energy =                 427.5560624332312614
    Total Energy =                       -415.0082990846197504
  Basis Set: (AUG-CC-PVTZ AUX)
    Blend: AUG-CC-PVTZ-RI
    Molecular point group: c1

    Geometry (in Angstrom), charge = 0, multiplicity = 1:

       Center              X                  Y                   Z               Mass
    ------------   -----------------  -----------------  -----------------  -----------------
         F            0.422602682808    -0.756264524008     1.079073559238    18.998403162730
         F            1.410881682808     0.854162475992    -0.010819440762    18.998403162730
         F            0.422600682808    -0.756271524008    -1.100701440762    18.998403162730
         C           -0.952132317192     0.833212475992    -0.010818440762    12.000000000000
         C            0.352088382808     0.093894375992     0.077547859238    12.000000000000
         C           -2.186616317192    -0.061575524008    -0.010816440762    12.000000000000
         H           -0.926773317192     1.478186475992     0.871846559238     1.007825032230
         H           -0.926773317192     1.478182475992    -0.893485440762     1.007825032230
         H           -2.201247317192    -0.699426524008     0.875093559238     1.007825032230
         H           -3.092893317192     0.547684475992    -0.010817440762     1.007825032230
         H           -2.201247317192    -0.699429524008    -0.896722440762     1.007825032230

  Basis Set: AUG-CC-PVTZ
    Blend: AUG-CC-PVTZ
  Basis Set: (AUG-CC-PVTZ AUX)
    Blend: AUG-CC-PVTZ-JKFIT
	 Reference Energy          =    -415.0082990846197504 [Eh]
	 Singles Energy            =      -0.0000000000000000 [Eh]
	 Same-Spin Energy          =      -0.3417829783047379 [Eh]
	 Opposite-Spin Energy      =      -1.0485792957973414 [Eh]
	 Correlation Energy        =      -1.3903622741020794 [Eh]
	 Total Energy              =    -416.3986613587218244 [Eh]

	 ================> DF-SCS-MP2 Energies <==================
	-----------------------------------------------------------
	 SCS Same-Spin Scale       =       0.3333333333333333 [-]
	 SCS Opposite-Spin Scale   =       1.2000000000000000 [-]
	 SCS Same-Spin Energy      =      -0.1139276594349126 [Eh]
	 SCS Opposite-Spin Energy  =      -1.2582951549568098 [Eh]
	 SCS Correlation Energy    =      -1.3722228143917223 [Eh]
	 SCS Total Energy          =    -416.3805218990114554 [Eh]
	-----------------------------------------------------------

  Dipole Moment: [D]
     X:    -1.9925      Y:     1.4952      Z:     0.6643     Total:     2.5782

*** Psi4 exiting successfully. Buy a developer a beer!
