                               Psi4 1.3.2 release

  ==> Input File <==

--------------------------------------------------------------------------
#psi4
#
memory 32 gb

molecule  {
0 1
  F        0.4990039    -0.7616517     1.1044256
  F        1.5293390     0.8326780    -0.0000030
  F        0.5410580    -0.7777560    -1.0898850
  C       -0.8336750     0.8117280    -0.0000020
  C        0.4440910     0.0226110     0.0000000
  C       -2.0681590    -0.0830600     0.0000000
  H       -0.8083160     1.4567020     0.8826630
  H       -0.8083160     1.4566980    -0.8826690
  H       -2.0827900    -0.7209110     0.8859100
  H       -2.9744360     0.5262000    -0.0000010
  H       -2.0827900    -0.7209140    -0.8859060
units angstrom
no_reorient  #important for SAPT in psi4, default
symmetry c1  #important for SAPT in psi4, default
}

set PROPERTIES_ORIGIN ["COM"]
properties('MP2/aug-cc-pvtz', properties = ['dipole'])
--------------------------------------------------------------------------

    Molecular point group: c1
  Charge       = 0
  Multiplicity = 1
  Basis Set: AUG-CC-PVTZ
    Blend: AUG-CC-PVTZ
  Basis Set: (AUG-CC-PVTZ AUX)
    Blend: AUG-CC-PVTZ-JKFIT

    Orbital Energies [Eh]
    ---------------------

    Doubly Occupied:

       1A    -26.333406     2A    -26.333183     3A    -26.332678
       4A    -11.500961     5A    -11.259613     6A    -11.237942
       7A     -1.714984     8A     -1.625893     9A     -1.624714
      10A     -1.097510    11A     -0.963457    12A     -0.880595
      13A     -0.814700    14A     -0.811718    15A     -0.761994
      16A     -0.708171    17A     -0.702820    18A     -0.662987
      19A     -0.659131    20A     -0.644571    21A     -0.620622
      22A     -0.601258    23A     -0.543372    24A     -0.524613
      25A     -0.521393

  @DF-RHF Final Energy:  -415.01741764910469

   => Energetics <=

    Nuclear Repulsion Energy =            271.7058414755521767
    One-Electron Energy =               -1114.4819499093300692
    Two-Electron Energy =                 427.7586907846731492
    Total Energy =                       -415.0174176491046865
  Basis Set: (AUG-CC-PVTZ AUX)
    Blend: AUG-CC-PVTZ-RI
    Molecular point group: c1

    Geometry (in Angstrom), charge = 0, multiplicity = 1:

       Center              X                  Y                   Z               Mass
    ------------   -----------------  -----------------  -----------------  -----------------
         F            0.391934992259    -0.737191085028     1.101608585295    18.998403162730
         F            1.422270092259     0.857138614972    -0.002820014705    18.998403162730
         F            0.433989092259    -0.753295385028    -1.092702014705    18.998403162730
         C           -0.940743907741     0.836188614972    -0.002819014705    12.000000000000
         C            0.337022092259     0.047071614972    -0.002817014705    12.000000000000
         C           -2.175227907741    -0.058599385028    -0.002817014705    12.000000000000
         H           -0.915384907741     1.481162614972     0.879845985295     1.007825032230
         H           -0.915384907741     1.481158614972    -0.885486014705     1.007825032230
         H           -2.189858907741    -0.696450385028     0.883092985295     1.007825032230
         H           -3.081504907741     0.550660614972    -0.002818014705     1.007825032230
         H           -2.189858907741    -0.696453385028    -0.888723014705     1.007825032230

  Basis Set: AUG-CC-PVTZ
    Blend: AUG-CC-PVTZ
  Basis Set: (AUG-CC-PVTZ AUX)
    Blend: AUG-CC-PVTZ-JKFIT
	 Reference Energy          =    -415.0174176491046865 [Eh]
	 Singles Energy            =      -0.0000000000000000 [Eh]
	 Same-Spin Energy          =      -0.3415093061841346 [Eh]
	 Opposite-Spin Energy      =      -1.0481467389210315 [Eh]
	 Correlation Energy        =      -1.3896560451051660 [Eh]
	 Total Energy              =    -416.4070736942098279 [Eh]

	 ================> DF-SCS-MP2 Energies <==================
	-----------------------------------------------------------
	 SCS Same-Spin Scale       =       0.3333333333333333 [-]
	 SCS Opposite-Spin Scale   =       1.2000000000000000 [-]
	 SCS Same-Spin Energy      =      -0.1138364353947115 [Eh]
	 SCS Opposite-Spin Energy  =      -1.2577760867052377 [Eh]
	 SCS Correlation Energy    =      -1.3716125220999491 [Eh]
	 SCS Total Energy          =    -416.3890301712046380 [Eh]
	-----------------------------------------------------------

  Dipole Moment: [D]
     X:    -2.1221      Y:     1.0884      Z:    -0.0059     Total:     2.3849

*** Psi4 exiting successfully. Buy a developer a beer!
