                               Psi4 1.3.2 release

  ==> Input File <==

--------------------------------------------------------------------------
#psi4
#
memory 32 gb

molecule  {
0 1
  F        0.5410600    -0.7777490     1.0898900
  F        1.5293390     0.8326780    -0.0000030
  F        0.5410580    -0.7777560    -1.0898850
  C       -0.8336750     0.8117280    -0.0000020
  C        0.3859324    -0.0645992     0.0000002
  C       -2.0681590    -0.0830600     0.0000000
  H       -0.8083160     1.4567020     0.8826630
  H       -0.8083160     1.4566980    -0.8826690
  H       -2.0827900    -0.7209110     0.8859100
  H       -2.9744360     0.5262000    -0.0000010
  H       -2.0827900    -0.7209140    -0.8859060
units angstrom
no_reorient  #important for SAPT in psi4, default
symmetry c1  #important for SAPT in psi4, default
}

set PROPERTIES_ORIGIN ["COM"]
properties('MP2/aug-cc-pvtz', properties = ['dipole'])
--------------------------------------------------------------------------

    Molecular point group: c1
  Charge       = 0
  Multiplicity = 1
  Basis Set: AUG-CC-PVTZ
    Blend: AUG-CC-PVTZ
  Basis Set: (AUG-CC-PVTZ AUX)
    Blend: AUG-CC-PVTZ-JKFIT

    Orbital Energies [Eh]
    ---------------------

    Doubly Occupied:

       1A    -26.350781     2A    -26.350760     3A    -26.290942
       4A    -11.502723     5A    -11.262318     6A    -11.240715
       7A     -1.730723     8A     -1.656134     9A     -1.576782
      10A     -1.101967    11A     -0.964289    12A     -0.887798
      13A     -0.829883    14A     -0.805691    15A     -0.772113
      16A     -0.717622    17A     -0.680251    18A     -0.680119
      19A     -0.633331    20A     -0.632211    21A     -0.619406
      22A     -0.610327    23A     -0.541923    24A     -0.524575
      25A     -0.524200

  @DF-RHF Final Energy:  -415.00826740782043

   => Energetics <=

    Nuclear Repulsion Energy =            271.8168219256631346
    One-Electron Energy =               -1114.6750106901879462
    Two-Electron Energy =                 427.8499213567043853
    Total Energy =                       -415.0082674078204263
  Basis Set: (AUG-CC-PVTZ AUX)
    Blend: AUG-CC-PVTZ-RI
    Molecular point group: c1

    Geometry (in Angstrom), charge = 0, multiplicity = 1:

       Center              X                  Y                   Z               Mass
    ------------   -----------------  -----------------  -----------------  -----------------
         F            0.432959866376    -0.739493775210     1.089889863585    18.998403162730
         F            1.421238866376     0.870933224790    -0.000003136415    18.998403162730
         F            0.432957866376    -0.739500775210    -1.089885136415    18.998403162730
         C           -0.941775133624     0.849983224790    -0.000002136415    12.000000000000
         C            0.277832266376    -0.026343975210     0.000000063585    12.000000000000
         C           -2.176259133624    -0.044804775210    -0.000000136415    12.000000000000
         H           -0.916416133624     1.494957224790     0.882662863585     1.007825032230
         H           -0.916416133624     1.494953224790    -0.882669136415     1.007825032230
         H           -2.190890133624    -0.682655775210     0.885909863585     1.007825032230
         H           -3.082536133624     0.564455224790    -0.000001136415     1.007825032230
         H           -2.190890133624    -0.682658775210    -0.885906136415     1.007825032230

  Basis Set: AUG-CC-PVTZ
    Blend: AUG-CC-PVTZ
  Basis Set: (AUG-CC-PVTZ AUX)
    Blend: AUG-CC-PVTZ-JKFIT
	 Reference Energy          =    -415.0082674078204263 [Eh]
	 Singles Energy            =      -0.0000000000000000 [Eh]
	 Same-Spin Energy          =      -0.3418301121085773 [Eh]
	 Opposite-Spin Energy      =      -1.0486610476730376 [Eh]
	 Correlation Energy        =      -1.3904911597816150 [Eh]
	 Total Energy              =    -416.3987585676020444 [Eh]

	 ================> DF-SCS-MP2 Energies <==================
	-----------------------------------------------------------
	 SCS Same-Spin Scale       =       0.3333333333333333 [-]
	 SCS Opposite-Spin Scale   =       1.2000000000000000 [-]
	 SCS Same-Spin Energy      =      -0.1139433707028591 [Eh]
	 SCS Opposite-Spin Energy  =      -1.2583932572076451 [Eh]
	 SCS Correlation Energy    =      -1.3723366279105043 [Eh]
	 SCS Total Energy          =    -416.3806040357309257 [Eh]
	-----------------------------------------------------------

  Dipole Moment: [D]
     X:    -2.6665      Y:     0.4808      Z:    -0.0000     Total:     2.7095

*** Psi4 exiting successfully. Buy a developer a beer!
