                               Psi4 1.3.2 release

  ==> Input File <==

--------------------------------------------------------------------------
#psi4
#
memory 32 gb

molecule  {
0 1
  F        0.5410600    -0.7777490     1.0898900
  F        1.5293390     0.8326780    -0.0000030
  F        0.5410580    -0.7777560    -1.0898850
  C       -0.8336750     0.8117280    -0.0000020
  C        0.4440910     0.0226110     0.0000000
  C       -2.0681590    -0.0830600     0.0000000
  H       -0.8083160     1.4567020     0.8826630
  H       -0.8083160     1.4566980    -0.8826690
  H       -2.0827900    -0.7209110     0.8859100
  H       -2.9744360     0.5262000    -0.0000010
  H       -2.0827900    -0.7209140    -0.8859060
units angstrom
no_reorient  #important for SAPT in psi4, default
symmetry c1  #important for SAPT in psi4, default
}

set PROPERTIES_ORIGIN ["COM"]
properties('MP2/aug-cc-pvtz', properties = ['dipole'])
--------------------------------------------------------------------------

    Molecular point group: c1
  Charge       = 0
  Multiplicity = 1
  Basis Set: AUG-CC-PVTZ
    Blend: AUG-CC-PVTZ
  Basis Set: (AUG-CC-PVTZ AUX)
    Blend: AUG-CC-PVTZ-JKFIT

    Orbital Energies [Eh]
    ---------------------

    Doubly Occupied:

       1A    -26.331796     2A    -26.331584     3A    -26.331562
       4A    -11.500681     5A    -11.261381     6A    -11.238849
       7A     -1.714997     8A     -1.623741     9A     -1.623438
      10A     -1.098434    11A     -0.963368    12A     -0.881379
      13A     -0.813057    14A     -0.810821    15A     -0.762440
      16A     -0.706402    17A     -0.702442    18A     -0.660635
      19A     -0.657203    20A     -0.642533    21A     -0.621820
      22A     -0.603275    23A     -0.544298    24A     -0.526251
      25A     -0.522549

  @DF-RHF Final Energy:  -415.01810972905116

   => Energetics <=

    Nuclear Repulsion Energy =            271.6205524988608886
    One-Electron Energy =               -1114.3274499582714725
    Two-Electron Energy =                 427.6887877303594223
    Total Energy =                       -415.0181097290511616
  Basis Set: (AUG-CC-PVTZ AUX)
    Blend: AUG-CC-PVTZ-RI
    Molecular point group: c1

    Geometry (in Angstrom), charge = 0, multiplicity = 1:

       Center              X                  Y                   Z               Mass
    ------------   -----------------  -----------------  -----------------  -----------------
         F            0.425840899307    -0.750168835165     1.089889888066    18.998403162730
         F            1.414119899307     0.860258164835    -0.000003111934    18.998403162730
         F            0.425838899307    -0.750175835165    -1.089885111934    18.998403162730
         C           -0.948894100693     0.839308164835    -0.000002111934    12.000000000000
         C            0.328871899307     0.050191164835    -0.000000111934    12.000000000000
         C           -2.183378100693    -0.055479835165    -0.000000111934    12.000000000000
         H           -0.923535100693     1.484282164835     0.882662888066     1.007825032230
         H           -0.923535100693     1.484278164835    -0.882669111934     1.007825032230
         H           -2.198009100693    -0.693330835165     0.885909888066     1.007825032230
         H           -3.089655100693     0.553780164835    -0.000001111934     1.007825032230
         H           -2.198009100693    -0.693333835165    -0.885906111934     1.007825032230

  Basis Set: AUG-CC-PVTZ
    Blend: AUG-CC-PVTZ
  Basis Set: (AUG-CC-PVTZ AUX)
    Blend: AUG-CC-PVTZ-JKFIT
	 Reference Energy          =    -415.0181097290511616 [Eh]
	 Singles Energy            =      -0.0000000000000000 [Eh]
	 Same-Spin Energy          =      -0.3414253696608576 [Eh]
	 Opposite-Spin Energy      =      -1.0479508865303000 [Eh]
	 Correlation Energy        =      -1.3893762561911576 [Eh]
	 Total Energy              =    -416.4074859852423174 [Eh]

	 ================> DF-SCS-MP2 Energies <==================
	-----------------------------------------------------------
	 SCS Same-Spin Scale       =       0.3333333333333333 [-]
	 SCS Opposite-Spin Scale   =       1.2000000000000000 [-]
	 SCS Same-Spin Energy      =      -0.1138084565536192 [Eh]
	 SCS Opposite-Spin Energy  =      -1.2575410638363600 [Eh]
	 SCS Correlation Energy    =      -1.3713495203899793 [Eh]
	 SCS Total Energy          =    -416.3894592494411313 [Eh]
	-----------------------------------------------------------

  Dipole Moment: [D]
     X:    -2.2019      Y:     1.1266      Z:    -0.0000     Total:     2.4734

*** Psi4 exiting successfully. Buy a developer a beer!
