                               Psi4 1.3.2 release

  ==> Input File <==

--------------------------------------------------------------------------
#psi4
#
memory 32 gb

molecule  {
0 1
  F        0.5410600    -0.7777490     1.0898900
  F        1.5293390     0.8326780    -0.0000030
  F        0.5410580    -0.7777560    -1.0898850
  C       -0.8336750     0.8117280    -0.0000020
  C        0.3590085     0.0751559    -0.0000001
  C       -2.0681590    -0.0830600     0.0000000
  H       -0.8083160     1.4567020     0.8826630
  H       -0.8083160     1.4566980    -0.8826690
  H       -2.0827900    -0.7209110     0.8859100
  H       -2.9744360     0.5262000    -0.0000010
  H       -2.0827900    -0.7209140    -0.8859060
units angstrom
no_reorient  #important for SAPT in psi4, default
symmetry c1  #important for SAPT in psi4, default
}

set PROPERTIES_ORIGIN ["COM"]
properties('MP2/aug-cc-pvtz', properties = ['dipole'])
--------------------------------------------------------------------------

    Molecular point group: c1
  Charge       = 0
  Multiplicity = 1
  Basis Set: AUG-CC-PVTZ
    Blend: AUG-CC-PVTZ
  Basis Set: (AUG-CC-PVTZ AUX)
    Blend: AUG-CC-PVTZ-JKFIT

    Orbital Energies [Eh]
    ---------------------

    Doubly Occupied:

       1A    -26.321982     2A    -26.321611     3A    -26.321589
       4A    -11.505935     5A    -11.267056     6A    -11.247681
       7A     -1.691083     8A     -1.601546     9A     -1.601162
      10A     -1.133151    11A     -0.967553    12A     -0.878876
      13A     -0.794046    14A     -0.791382    15A     -0.753174
      16A     -0.697174    17A     -0.690449    18A     -0.644691
      19A     -0.640001    20A     -0.630000    21A     -0.624337
      22A     -0.620274    23A     -0.559004    24A     -0.545833
      25A     -0.532689

  @DF-RHF Final Energy:  -414.99898938197680

   => Energetics <=

    Nuclear Repulsion Energy =            271.1707416569527140
    One-Electron Energy =               -1113.5749012411181411
    Two-Electron Energy =                 427.4051702021886285
    Total Energy =                       -414.9989893819767985
  Basis Set: (AUG-CC-PVTZ AUX)
    Blend: AUG-CC-PVTZ-RI
    Molecular point group: c1

    Geometry (in Angstrom), charge = 0, multiplicity = 1:

       Center              X                  Y                   Z               Mass
    ------------   -----------------  -----------------  -----------------  -----------------
         F            0.436255515815    -0.756600651143     1.089889900307    18.998403162730
         F            1.424534515815     0.853826348857    -0.000003099693    18.998403162730
         F            0.436253515815    -0.756607651143    -1.089885099693    18.998403162730
         C           -0.938479484185     0.832876348857    -0.000002099693    12.000000000000
         C            0.254204015815     0.096304248857    -0.000000199693    12.000000000000
         C           -2.172963484185    -0.061911651143    -0.000000099693    12.000000000000
         H           -0.913120484185     1.477850348857     0.882662900307     1.007825032230
         H           -0.913120484185     1.477846348857    -0.882669099693     1.007825032230
         H           -2.187594484185    -0.699762651143     0.885909900307     1.007825032230
         H           -3.079240484185     0.547348348857    -0.000001099693     1.007825032230
         H           -2.187594484185    -0.699765651143    -0.885906099693     1.007825032230

  Basis Set: AUG-CC-PVTZ
    Blend: AUG-CC-PVTZ
  Basis Set: (AUG-CC-PVTZ AUX)
    Blend: AUG-CC-PVTZ-JKFIT
	 Reference Energy          =    -414.9989893819767985 [Eh]
	 Singles Energy            =      -0.0000000000000000 [Eh]
	 Same-Spin Energy          =      -0.3434320140516516 [Eh]
	 Opposite-Spin Energy      =      -1.0525692486941487 [Eh]
	 Correlation Energy        =      -1.3960012627458003 [Eh]
	 Total Energy              =    -416.3949906447226113 [Eh]

	 ================> DF-SCS-MP2 Energies <==================
	-----------------------------------------------------------
	 SCS Same-Spin Scale       =       0.3333333333333333 [-]
	 SCS Opposite-Spin Scale   =       1.2000000000000000 [-]
	 SCS Same-Spin Energy      =      -0.1144773380172172 [Eh]
	 SCS Opposite-Spin Energy  =      -1.2630830984329784 [Eh]
	 SCS Correlation Energy    =      -1.3775604364501957 [Eh]
	 SCS Total Energy          =    -416.3765498184270086 [Eh]
	-----------------------------------------------------------

  Dipole Moment: [D]
     X:    -2.8686      Y:     1.4690      Z:    -0.0000     Total:     3.2229

*** Psi4 exiting successfully. Buy a developer a beer!
