                               Psi4 1.3.2 release

  ==> Input File <==

--------------------------------------------------------------------------
#psi4
#
memory 32 gb

molecule  {
0 1
  F        0.4147422    -0.7266114     1.1294440
  F        1.5293390     0.8326780    -0.0000030
  F        0.5410580    -0.7777560    -1.0898850
  C       -0.8336750     0.8117280    -0.0000020
  C        0.4440910     0.0226110     0.0000000
  C       -2.0681590    -0.0830600     0.0000000
  H       -0.8083160     1.4567020     0.8826630
  H       -0.8083160     1.4566980    -0.8826690
  H       -2.0827900    -0.7209110     0.8859100
  H       -2.9744360     0.5262000    -0.0000010
  H       -2.0827900    -0.7209140    -0.8859060
units angstrom
no_reorient  #important for SAPT in psi4, default
symmetry c1  #important for SAPT in psi4, default
}

set PROPERTIES_ORIGIN ["COM"]
properties('MP2/aug-cc-pvtz', properties = ['dipole'])
--------------------------------------------------------------------------

    Molecular point group: c1
  Charge       = 0
  Multiplicity = 1
  Basis Set: AUG-CC-PVTZ
    Blend: AUG-CC-PVTZ
  Basis Set: (AUG-CC-PVTZ AUX)
    Blend: AUG-CC-PVTZ-JKFIT

    Orbital Energies [Eh]
    ---------------------

    Doubly Occupied:

       1A    -26.336545     2A    -26.336320     3A    -26.334553
       4A    -11.501510     5A    -11.256041     6A    -11.236051
       7A     -1.715126     8A     -1.630405     9A     -1.626822
      10A     -1.095627    11A     -0.963684    12A     -0.879038
      13A     -0.818154    14A     -0.813089    15A     -0.761094
      16A     -0.712156    17A     -0.703217    18A     -0.667912
      19A     -0.662712    20A     -0.648327    21A     -0.618163
      22A     -0.596612    23A     -0.541469    24A     -0.521573
      25A     -0.518424

  @DF-RHF Final Energy:  -415.01403282355386

   => Energetics <=

    Nuclear Repulsion Energy =            271.9559124484365498
    One-Electron Energy =               -1114.9506442288998187
    Two-Electron Energy =                 427.9806989569094640
    Total Energy =                       -415.0140328235538618
  Basis Set: (AUG-CC-PVTZ AUX)
    Blend: AUG-CC-PVTZ-RI
    Molecular point group: c1

    Geometry (in Angstrom), charge = 0, multiplicity = 1:

       Center              X                  Y                   Z               Mass
    ------------   -----------------  -----------------  -----------------  -----------------
         F            0.324002650269    -0.708941362520     1.121778585483    18.998403162730
         F            1.438599450269     0.850348037480    -0.007668414517    18.998403162730
         F            0.450318450269    -0.760085962520    -1.097550414517    18.998403162730
         C           -0.924414549731     0.829398037480    -0.007667414517    12.000000000000
         C            0.353351450269     0.040281037480    -0.007665414517    12.000000000000
         C           -2.158898549731    -0.065389962520    -0.007665414517    12.000000000000
         H           -0.899055549731     1.474372037480     0.874997585483     1.007825032230
         H           -0.899055549731     1.474368037480    -0.890334414517     1.007825032230
         H           -2.173529549731    -0.703240962520     0.878244585483     1.007825032230
         H           -3.065175549731     0.543870037480    -0.007666414517     1.007825032230
         H           -2.173529549731    -0.703243962520    -0.893571414517     1.007825032230

  Basis Set: AUG-CC-PVTZ
    Blend: AUG-CC-PVTZ
  Basis Set: (AUG-CC-PVTZ AUX)
    Blend: AUG-CC-PVTZ-JKFIT
	 Reference Energy          =    -415.0140328235538618 [Eh]
	 Singles Energy            =      -0.0000000000000000 [Eh]
	 Same-Spin Energy          =      -0.3417372634900966 [Eh]
	 Opposite-Spin Energy      =      -1.0486482702551823 [Eh]
	 Correlation Energy        =      -1.3903855337452788 [Eh]
	 Total Energy              =    -416.4044183572991642 [Eh]

	 ================> DF-SCS-MP2 Energies <==================
	-----------------------------------------------------------
	 SCS Same-Spin Scale       =       0.3333333333333333 [-]
	 SCS Opposite-Spin Scale   =       1.2000000000000000 [-]
	 SCS Same-Spin Energy      =      -0.1139124211633655 [Eh]
	 SCS Opposite-Spin Energy  =      -1.2583779243062188 [Eh]
	 SCS Correlation Energy    =      -1.3722903454695843 [Eh]
	 SCS Total Energy          =    -416.3863231690234556 [Eh]
	-----------------------------------------------------------

  Dipole Moment: [D]
     X:    -1.9605      Y:     1.0066      Z:    -0.0105     Total:     2.2038

*** Psi4 exiting successfully. Buy a developer a beer!
