                               Psi4 1.3.2 release

  ==> Input File <==

--------------------------------------------------------------------------
#psi4
#
memory 32 gb

molecule  {
0 1
  F        0.6247668    -0.8069998     1.0568546
  F        1.5293390     0.8326780    -0.0000030
  F        0.5410580    -0.7777560    -1.0898850
  C       -0.8336750     0.8117280    -0.0000020
  C        0.4440910     0.0226110     0.0000000
  C       -2.0681590    -0.0830600     0.0000000
  H       -0.8083160     1.4567020     0.8826630
  H       -0.8083160     1.4566980    -0.8826690
  H       -2.0827900    -0.7209110     0.8859100
  H       -2.9744360     0.5262000    -0.0000010
  H       -2.0827900    -0.7209140    -0.8859060
units angstrom
no_reorient  #important for SAPT in psi4, default
symmetry c1  #important for SAPT in psi4, default
}

set PROPERTIES_ORIGIN ["COM"]
properties('MP2/aug-cc-pvtz', properties = ['dipole'])
--------------------------------------------------------------------------

    Molecular point group: c1
  Charge       = 0
  Multiplicity = 1
  Basis Set: AUG-CC-PVTZ
    Blend: AUG-CC-PVTZ
  Basis Set: (AUG-CC-PVTZ AUX)
    Blend: AUG-CC-PVTZ-JKFIT

    Orbital Energies [Eh]
    ---------------------

    Doubly Occupied:

       1A    -26.329020     2A    -26.328496     3A    -26.328274
       4A    -11.500118     5A    -11.264863     6A    -11.240585
       7A     -1.715200     8A     -1.621523     9A     -1.618529
      10A     -1.100245    11A     -0.963223    12A     -0.882916
      13A     -0.810807    14A     -0.807768    15A     -0.763338
      16A     -0.704460    17A     -0.700149    18A     -0.656479
      19A     -0.652822    20A     -0.638086    21A     -0.624055
      22A     -0.606720    23A     -0.546094    24A     -0.529469
      25A     -0.524556

  @DF-RHF Final Energy:  -415.01757218953702

   => Energetics <=

    Nuclear Repulsion Energy =            271.5276102243435616
    One-Electron Energy =               -1114.1747752430508172
    Two-Electron Energy =                 427.6295928291702353
    Total Energy =                       -415.0175721895370202
  Basis Set: (AUG-CC-PVTZ AUX)
    Blend: AUG-CC-PVTZ-RI
    Molecular point group: c1

    Geometry (in Angstrom), charge = 0, multiplicity = 1:

       Center              X                  Y                   Z               Mass
    ------------   -----------------  -----------------  -----------------  -----------------
         F            0.493325877233    -0.773751024333     1.063256529250    18.998403162730
         F            1.397898077233     0.865926775667     0.006398929250    18.998403162730
         F            0.409617077233    -0.744507224333    -1.083483070750    18.998403162730
         C           -0.965115922767     0.844976775667     0.006399929250    12.000000000000
         C            0.312650077233     0.055859775667     0.006401929250    12.000000000000
         C           -2.199599922767    -0.049811224333     0.006401929250    12.000000000000
         H           -0.939756922767     1.489950775667     0.889064929250     1.007825032230
         H           -0.939756922767     1.489946775667    -0.876267070750     1.007825032230
         H           -2.214230922767    -0.687662224333     0.892311929250     1.007825032230
         H           -3.105876922767     0.559448775667     0.006400929250     1.007825032230
         H           -2.214230922767    -0.687665224333    -0.879504070750     1.007825032230

  Basis Set: AUG-CC-PVTZ
    Blend: AUG-CC-PVTZ
  Basis Set: (AUG-CC-PVTZ AUX)
    Blend: AUG-CC-PVTZ-JKFIT
	 Reference Energy          =    -415.0175721895370202 [Eh]
	 Singles Energy            =      -0.0000000000000000 [Eh]
	 Same-Spin Energy          =      -0.3413149525827426 [Eh]
	 Opposite-Spin Energy      =      -1.0476640279613949 [Eh]
	 Correlation Energy        =      -1.3889789805441375 [Eh]
	 Total Energy              =    -416.4065511700811726 [Eh]

	 ================> DF-SCS-MP2 Energies <==================
	-----------------------------------------------------------
	 SCS Same-Spin Scale       =       0.3333333333333333 [-]
	 SCS Opposite-Spin Scale   =       1.2000000000000000 [-]
	 SCS Same-Spin Energy      =      -0.1137716508609142 [Eh]
	 SCS Opposite-Spin Energy  =      -1.2571968335536738 [Eh]
	 SCS Correlation Energy    =      -1.3709684844145880 [Eh]
	 SCS Total Energy          =    -416.3885406739515815 [Eh]
	-----------------------------------------------------------

  Dipole Moment: [D]
     X:    -2.3591      Y:     1.1981      Z:     0.0182     Total:     2.6460

*** Psi4 exiting successfully. Buy a developer a beer!
