                               Psi4 1.3.2 release

  ==> Input File <==

--------------------------------------------------------------------------
#psi4
#
memory 32 gb

molecule  {
0 1
  F        0.5410600    -0.7777490     1.0898900
  F        1.5293390     0.8326780    -0.0000030
  F        0.5410580    -0.7777560    -1.0898850
  C       -0.8336750     0.8117280    -0.0000020
  C        0.3927853    -0.0448082    -0.1324119
  C       -2.0681590    -0.0830600     0.0000000
  H       -0.8083160     1.4567020     0.8826630
  H       -0.8083160     1.4566980    -0.8826690
  H       -2.0827900    -0.7209110     0.8859100
  H       -2.9744360     0.5262000    -0.0000010
  H       -2.0827900    -0.7209140    -0.8859060
units angstrom
no_reorient  #important for SAPT in psi4, default
symmetry c1  #important for SAPT in psi4, default
}

set PROPERTIES_ORIGIN ["COM"]
properties('MP2/aug-cc-pvtz', properties = ['dipole'])
--------------------------------------------------------------------------

    Molecular point group: c1
  Charge       = 0
  Multiplicity = 1
  Basis Set: AUG-CC-PVTZ
    Blend: AUG-CC-PVTZ
  Basis Set: (AUG-CC-PVTZ AUX)
    Blend: AUG-CC-PVTZ-JKFIT

    Orbital Energies [Eh]
    ---------------------

    Doubly Occupied:

       1A    -26.391790     2A    -26.301299     3A    -26.297022
       4A    -11.505147     5A    -11.263801     6A    -11.240838
       7A     -1.780788     8A     -1.617087     9A     -1.571984
      10A     -1.103033    11A     -0.974351    12A     -0.901384
      13A     -0.831725    14A     -0.828431    15A     -0.778708
      16A     -0.697529    17A     -0.681265    18A     -0.662014
      19A     -0.637307    20A     -0.629404    21A     -0.612279
      22A     -0.599491    23A     -0.542119    24A     -0.532184
      25A     -0.516223

  @DF-RHF Final Energy:  -414.99076145861812

   => Energetics <=

    Nuclear Repulsion Energy =            271.8309142341546476
    One-Electron Energy =               -1114.6489443735640634
    Two-Electron Energy =                 427.8272686807912919
    Total Energy =                       -414.9907614586181239
  Basis Set: (AUG-CC-PVTZ AUX)
    Blend: AUG-CC-PVTZ-RI
    Molecular point group: c1

    Geometry (in Angstrom), charge = 0, multiplicity = 1:

       Center              X                  Y                   Z               Mass
    ------------   -----------------  -----------------  -----------------  -----------------
         F            0.432121029653    -0.741916314220     1.106097911568    18.998403162730
         F            1.420400029653     0.868510685780     0.016204911568    18.998403162730
         F            0.432119029653    -0.741923314220    -1.073677088432    18.998403162730
         C           -0.942613970347     0.847560685780     0.016205911568    12.000000000000
         C            0.283846329653    -0.008975514220    -0.116203988432    12.000000000000
         C           -2.177097970347    -0.047227314220     0.016207911568    12.000000000000
         H           -0.917254970347     1.492534685780     0.898870911568     1.007825032230
         H           -0.917254970347     1.492530685780    -0.866461088432     1.007825032230
         H           -2.191728970347    -0.685078314220     0.902117911568     1.007825032230
         H           -3.083374970347     0.562032685780     0.016206911568     1.007825032230
         H           -2.191728970347    -0.685081314220    -0.869698088432     1.007825032230

  Basis Set: AUG-CC-PVTZ
    Blend: AUG-CC-PVTZ
  Basis Set: (AUG-CC-PVTZ AUX)
    Blend: AUG-CC-PVTZ-JKFIT
	 Reference Energy          =    -414.9907614586181239 [Eh]
	 Singles Energy            =      -0.0000000000000000 [Eh]
	 Same-Spin Energy          =      -0.3423269029028838 [Eh]
	 Opposite-Spin Energy      =      -1.0496686235102584 [Eh]
	 Correlation Energy        =      -1.3919955264131421 [Eh]
	 Total Energy              =    -416.3827569850312784 [Eh]

	 ================> DF-SCS-MP2 Energies <==================
	-----------------------------------------------------------
	 SCS Same-Spin Scale       =       0.3333333333333333 [-]
	 SCS Opposite-Spin Scale   =       1.2000000000000000 [-]
	 SCS Same-Spin Energy      =      -0.1141089676342946 [Eh]
	 SCS Opposite-Spin Energy  =      -1.2596023482123100 [Eh]
	 SCS Correlation Energy    =      -1.3737113158466046 [Eh]
	 SCS Total Energy          =    -416.3644727744647298 [Eh]
	-----------------------------------------------------------

  Dipole Moment: [D]
     X:    -2.6197      Y:     0.6076      Z:    -1.0264     Total:     2.8785

*** Psi4 exiting successfully. Buy a developer a beer!
