                               Psi4 1.3.2 release

  ==> Input File <==

--------------------------------------------------------------------------
#psi4
#
memory 32 gb

molecule  {
0 1
  F        0.5200435    -0.7698211     1.0973249
  F        1.5293390     0.8326780    -0.0000030
  F        0.5410580    -0.7777560    -1.0898850
  C       -0.8336750     0.8117280    -0.0000020
  C        0.4440910     0.0226110     0.0000000
  C       -2.0681590    -0.0830600     0.0000000
  H       -0.8083160     1.4567020     0.8826630
  H       -0.8083160     1.4566980    -0.8826690
  H       -2.0827900    -0.7209110     0.8859100
  H       -2.9744360     0.5262000    -0.0000010
  H       -2.0827900    -0.7209140    -0.8859060
units angstrom
no_reorient  #important for SAPT in psi4, default
symmetry c1  #important for SAPT in psi4, default
}

set PROPERTIES_ORIGIN ["COM"]
properties('MP2/aug-cc-pvtz', properties = ['dipole'])
--------------------------------------------------------------------------

    Molecular point group: c1
  Charge       = 0
  Multiplicity = 1
  Basis Set: AUG-CC-PVTZ
    Blend: AUG-CC-PVTZ
  Basis Set: (AUG-CC-PVTZ AUX)
    Blend: AUG-CC-PVTZ-JKFIT

    Orbital Energies [Eh]
    ---------------------

    Doubly Occupied:

       1A    -26.332605     2A    -26.332382     3A    -26.332139
       4A    -11.500821     5A    -11.260499     6A    -11.238398
       7A     -1.714984     8A     -1.624737     9A     -1.624167
      10A     -1.097974    11A     -0.963411    12A     -0.880987
      13A     -0.813855    14A     -0.811304    15A     -0.762217
      16A     -0.707250    17A     -0.702664    18A     -0.661795
      19A     -0.658184    20A     -0.643566    21A     -0.621225
      22A     -0.602291    23A     -0.543837    24A     -0.525430
      25A     -0.521989

  @DF-RHF Final Energy:  -415.01784507726251

   => Energetics <=

    Nuclear Repulsion Energy =            271.6599254962881105
    One-Electron Energy =               -1114.3981190773081380
    Two-Electron Energy =                 427.7203485037575206
    Total Energy =                       -415.0178450772625069
  Basis Set: (AUG-CC-PVTZ AUX)
    Blend: AUG-CC-PVTZ-RI
    Molecular point group: c1

    Geometry (in Angstrom), charge = 0, multiplicity = 1:

       Center              X                  Y                   Z               Mass
    ------------   -----------------  -----------------  -----------------  -----------------
         F            0.408897257470    -0.743777309548     1.095883953810    18.998403162730
         F            1.418192757470     0.858721790452    -0.001443946190    18.998403162730
         F            0.429911757470    -0.751712209548    -1.091325946190    18.998403162730
         C           -0.944821242530     0.837771790452    -0.001442946190    12.000000000000
         C            0.332944757470     0.048654790452    -0.001440946190    12.000000000000
         C           -2.179305242530    -0.057016209548    -0.001440946190    12.000000000000
         H           -0.919462242530     1.482745790452     0.881222053810     1.007825032230
         H           -0.919462242530     1.482741790452    -0.884109946190     1.007825032230
         H           -2.193936242530    -0.694867209548     0.884469053810     1.007825032230
         H           -3.085582242530     0.552243790452    -0.001441946190     1.007825032230
         H           -2.193936242530    -0.694870209548    -0.887346946190     1.007825032230

  Basis Set: AUG-CC-PVTZ
    Blend: AUG-CC-PVTZ
  Basis Set: (AUG-CC-PVTZ AUX)
    Blend: AUG-CC-PVTZ-JKFIT
	 Reference Energy          =    -415.0178450772625069 [Eh]
	 Singles Energy            =      -0.0000000000000000 [Eh]
	 Same-Spin Energy          =      -0.3414648956942057 [Eh]
	 Opposite-Spin Energy      =      -1.0480443718384436 [Eh]
	 Correlation Energy        =      -1.3895092675326493 [Eh]
	 Total Energy              =    -416.4073543447951806 [Eh]

	 ================> DF-SCS-MP2 Energies <==================
	-----------------------------------------------------------
	 SCS Same-Spin Scale       =       0.3333333333333333 [-]
	 SCS Opposite-Spin Scale   =       1.2000000000000000 [-]
	 SCS Same-Spin Energy      =      -0.1138216318980686 [Eh]
	 SCS Opposite-Spin Energy  =      -1.2576532462061323 [Eh]
	 SCS Correlation Energy    =      -1.3714748781042008 [Eh]
	 SCS Total Energy          =    -416.3893199553667159 [Eh]
	-----------------------------------------------------------

  Dipole Moment: [D]
     X:    -2.1621      Y:     1.1077      Z:    -0.0032     Total:     2.4293

*** Psi4 exiting successfully. Buy a developer a beer!
