                               Psi4 1.3.2 release

  ==> Input File <==

--------------------------------------------------------------------------
#psi4
#
memory 32 gb

molecule  {
0 1
  F        0.5829980    -0.7928712     1.0740265
  F        1.5293390     0.8326780    -0.0000030
  F        0.5410580    -0.7777560    -1.0898850
  C       -0.8336750     0.8117280    -0.0000020
  C        0.4440910     0.0226110     0.0000000
  C       -2.0681590    -0.0830600     0.0000000
  H       -0.8083160     1.4567020     0.8826630
  H       -0.8083160     1.4566980    -0.8826690
  H       -2.0827900    -0.7209110     0.8859100
  H       -2.9744360     0.5262000    -0.0000010
  H       -2.0827900    -0.7209140    -0.8859060
units angstrom
no_reorient  #important for SAPT in psi4, default
symmetry c1  #important for SAPT in psi4, default
}

set PROPERTIES_ORIGIN ["COM"]
properties('MP2/aug-cc-pvtz', properties = ['dipole'])
--------------------------------------------------------------------------

    Molecular point group: c1
  Charge       = 0
  Multiplicity = 1
  Basis Set: AUG-CC-PVTZ
    Blend: AUG-CC-PVTZ
  Basis Set: (AUG-CC-PVTZ AUX)
    Blend: AUG-CC-PVTZ-JKFIT

    Orbital Energies [Eh]
    ---------------------

    Doubly Occupied:

       1A    -26.330356     2A    -26.330159     3A    -26.329937
       4A    -11.500399     5A    -11.263132     6A    -11.239729
       7A     -1.715068     8A     -1.622605     9A     -1.621057
      10A     -1.099346    11A     -0.963291    12A     -0.882155
      13A     -0.811740    14A     -0.809523    15A     -0.762887
      16A     -0.705094    17A     -0.701624    18A     -0.658450
      19A     -0.655108    20A     -0.640375    21A     -0.622975
      22A     -0.605093    23A     -0.545206    24A     -0.527881
      25A     -0.523590

  @DF-RHF Final Energy:  -415.01815762648971

   => Energetics <=

    Nuclear Repulsion Energy =            271.5612550632314992
    One-Electron Energy =               -1114.2252671400169675
    Two-Electron Energy =                 427.6458544502957011
    Total Energy =                       -415.0181576264897103
  Basis Set: (AUG-CC-PVTZ AUX)
    Blend: AUG-CC-PVTZ-RI
    Molecular point group: c1

    Geometry (in Angstrom), charge = 0, multiplicity = 1:

       Center              X                  Y                   Z               Mass
    ------------   -----------------  -----------------  -----------------  -----------------
         F            0.459651593352    -0.762360453208     1.077100629042    18.998403162730
         F            1.405992593352     0.863188746792     0.003071129042    18.998403162730
         F            0.417711593352    -0.747245253208    -1.086810870958    18.998403162730
         C           -0.957021406648     0.842238746792     0.003072129042    12.000000000000
         C            0.320744593352     0.053121746792     0.003074129042    12.000000000000
         C           -2.191505406648    -0.052549253208     0.003074129042    12.000000000000
         H           -0.931662406648     1.487212746792     0.885737129042     1.007825032230
         H           -0.931662406648     1.487208746792    -0.879594870958     1.007825032230
         H           -2.206136406648    -0.690400253208     0.888984129042     1.007825032230
         H           -3.097782406648     0.556710746792     0.003073129042     1.007825032230
         H           -2.206136406648    -0.690403253208    -0.882831870958     1.007825032230

  Basis Set: AUG-CC-PVTZ
    Blend: AUG-CC-PVTZ
  Basis Set: (AUG-CC-PVTZ AUX)
    Blend: AUG-CC-PVTZ-JKFIT
	 Reference Energy          =    -415.0181576264897103 [Eh]
	 Singles Energy            =      -0.0000000000000000 [Eh]
	 Same-Spin Energy          =      -0.3413607275833650 [Eh]
	 Opposite-Spin Energy      =      -1.0477901551468674 [Eh]
	 Correlation Energy        =      -1.3891508827302324 [Eh]
	 Total Energy              =    -416.4073085092199449 [Eh]

	 ================> DF-SCS-MP2 Energies <==================
	-----------------------------------------------------------
	 SCS Same-Spin Scale       =       0.3333333333333333 [-]
	 SCS Opposite-Spin Scale   =       1.2000000000000000 [-]
	 SCS Same-Spin Energy      =      -0.1137869091944550 [Eh]
	 SCS Opposite-Spin Energy  =      -1.2573481861762408 [Eh]
	 SCS Correlation Energy    =      -1.3711350953706958 [Eh]
	 SCS Total Energy          =    -416.3892927218603859 [Eh]
	-----------------------------------------------------------

  Dipole Moment: [D]
     X:    -2.2809      Y:     1.1632      Z:     0.0081     Total:     2.5604

*** Psi4 exiting successfully. Buy a developer a beer!
