                               Psi4 1.3.2 release

  ==> Input File <==

--------------------------------------------------------------------------
#psi4
#
memory 32 gb

molecule  {
0 1
  F        0.5410600    -0.7777490     1.0898900
  F        1.5293390     0.8326780    -0.0000030
  F        0.5410580    -0.7777560    -1.0898850
  C       -0.8336750     0.8117280    -0.0000020
  C        0.4960244     0.1136657    -0.0000002
  C       -2.0681590    -0.0830600     0.0000000
  H       -0.8083160     1.4567020     0.8826630
  H       -0.8083160     1.4566980    -0.8826690
  H       -2.0827900    -0.7209110     0.8859100
  H       -2.9744360     0.5262000    -0.0000010
  H       -2.0827900    -0.7209140    -0.8859060
units angstrom
no_reorient  #important for SAPT in psi4, default
symmetry c1  #important for SAPT in psi4, default
}

set PROPERTIES_ORIGIN ["COM"]
properties('MP2/aug-cc-pvtz', properties = ['dipole'])
--------------------------------------------------------------------------

    Molecular point group: c1
  Charge       = 0
  Multiplicity = 1
  Basis Set: AUG-CC-PVTZ
    Blend: AUG-CC-PVTZ
  Basis Set: (AUG-CC-PVTZ AUX)
    Blend: AUG-CC-PVTZ-JKFIT

    Orbital Energies [Eh]
    ---------------------

    Doubly Occupied:

       1A    -26.371814     2A    -26.310588     3A    -26.310566
       4A    -11.503008     5A    -11.262757     6A    -11.238033
       7A     -1.747302     8A     -1.629355     9A     -1.589442
      10A     -1.097487    11A     -0.970378    12A     -0.888921
      13A     -0.822647    14A     -0.817151    15A     -0.770374
      16A     -0.703000    17A     -0.696772    18A     -0.663285
      19A     -0.651000    20A     -0.625489    21A     -0.615108
      22A     -0.594428    23A     -0.552147    24A     -0.521348
      25A     -0.520553

  @DF-RHF Final Energy:  -415.00619935379456

   => Energetics <=

    Nuclear Repulsion Energy =            271.4365459799820428
    One-Electron Energy =               -1113.9395800233937734
    Two-Electron Energy =                 427.4968346896171738
    Total Energy =                       -415.0061993537945568
  Basis Set: (AUG-CC-PVTZ AUX)
    Blend: AUG-CC-PVTZ-RI
    Molecular point group: c1

    Geometry (in Angstrom), charge = 0, multiplicity = 1:

       Center              X                  Y                   Z               Mass
    ------------   -----------------  -----------------  -----------------  -----------------
         F            0.419483934656    -0.761314485349     1.089889912548    18.998403162730
         F            1.407762934656     0.849112514651    -0.000003087452    18.998403162730
         F            0.419481934656    -0.761321485349    -1.089885087452    18.998403162730
         C           -0.955251065344     0.828162514651    -0.000002087452    12.000000000000
         C            0.374448334656     0.130100214651    -0.000000287452    12.000000000000
         C           -2.189735065344    -0.066625485349    -0.000000087452    12.000000000000
         H           -0.929892065344     1.473136514651     0.882662912548     1.007825032230
         H           -0.929892065344     1.473132514651    -0.882669087452     1.007825032230
         H           -2.204366065344    -0.704476485349     0.885909912548     1.007825032230
         H           -3.096012065344     0.542634514651    -0.000001087452     1.007825032230
         H           -2.204366065344    -0.704479485349    -0.885906087452     1.007825032230

  Basis Set: AUG-CC-PVTZ
    Blend: AUG-CC-PVTZ
  Basis Set: (AUG-CC-PVTZ AUX)
    Blend: AUG-CC-PVTZ-JKFIT
	 Reference Energy          =    -415.0061993537945568 [Eh]
	 Singles Energy            =      -0.0000000000000000 [Eh]
	 Same-Spin Energy          =      -0.3418003599698558 [Eh]
	 Opposite-Spin Energy      =      -1.0486860211735869 [Eh]
	 Correlation Energy        =      -1.3904863811434427 [Eh]
	 Total Energy              =    -416.3966857349379893 [Eh]

	 ================> DF-SCS-MP2 Energies <==================
	-----------------------------------------------------------
	 SCS Same-Spin Scale       =       0.3333333333333333 [-]
	 SCS Opposite-Spin Scale   =       1.2000000000000000 [-]
	 SCS Same-Spin Energy      =      -0.1139334533232853 [Eh]
	 SCS Opposite-Spin Energy  =      -1.2584232254083043 [Eh]
	 SCS Correlation Energy    =      -1.3723566787315895 [Eh]
	 SCS Total Energy          =    -416.3785560325261486 [Eh]
	-----------------------------------------------------------

  Dipole Moment: [D]
     X:    -1.7806      Y:     1.8132      Z:    -0.0000     Total:     2.5413

*** Psi4 exiting successfully. Buy a developer a beer!
