                               Psi4 1.3.2 release

  ==> Input File <==

--------------------------------------------------------------------------
#psi4
#
memory 32 gb

molecule  {
0 1
  F        0.5410600    -0.7777490     1.0898900
  F        1.5293390     0.8326780    -0.0000030
  F        0.5410580    -0.7777560    -1.0898850
  C       -0.8336750     0.8117280    -0.0000020
  C        0.4364989     0.0107529    -0.0221079
  C       -2.0681590    -0.0830600     0.0000000
  H       -0.8083160     1.4567020     0.8826630
  H       -0.8083160     1.4566980    -0.8826690
  H       -2.0827900    -0.7209110     0.8859100
  H       -2.9744360     0.5262000    -0.0000010
  H       -2.0827900    -0.7209140    -0.8859060
units angstrom
no_reorient  #important for SAPT in psi4, default
symmetry c1  #important for SAPT in psi4, default
}

set PROPERTIES_ORIGIN ["COM"]
properties('MP2/aug-cc-pvtz', properties = ['dipole'])
--------------------------------------------------------------------------

    Molecular point group: c1
  Charge       = 0
  Multiplicity = 1
  Basis Set: AUG-CC-PVTZ
    Blend: AUG-CC-PVTZ
  Basis Set: (AUG-CC-PVTZ AUX)
    Blend: AUG-CC-PVTZ-JKFIT

    Orbital Energies [Eh]
    ---------------------

    Doubly Occupied:

       1A    -26.341517     2A    -26.326896     3A    -26.326371
       4A    -11.500785     5A    -11.261421     6A    -11.239047
       7A     -1.716832     8A     -1.630248     9A     -1.615210
      10A     -1.098811    11A     -0.963291    12A     -0.882183
      13A     -0.814994    14A     -0.809485    15A     -0.763522
      16A     -0.707437    17A     -0.700165    18A     -0.663186
      19A     -0.654228    20A     -0.641333    21A     -0.622527
      22A     -0.604075    23A     -0.543478    24A     -0.527014
      25A     -0.522347

  @DF-RHF Final Energy:  -415.01743136392918

   => Energetics <=

    Nuclear Repulsion Energy =            271.6482850919748557
    One-Electron Energy =               -1114.3786290638622631
    Two-Electron Energy =                 427.7129126079581738
    Total Energy =                       -415.0174313639291768
  Basis Set: (AUG-CC-PVTZ AUX)
    Blend: AUG-CC-PVTZ-RI
    Molecular point group: c1

    Geometry (in Angstrom), charge = 0, multiplicity = 1:

       Center              X                  Y                   Z               Mass
    ------------   -----------------  -----------------  -----------------  -----------------
         F            0.426770218615    -0.748717331459     1.092596029756    18.998403162730
         F            1.415049218615     0.861709668541     0.002703029756    18.998403162730
         F            0.426768218615    -0.748724331459    -1.087178970244    18.998403162730
         C           -0.947964781385     0.840759668541     0.002704029756    12.000000000000
         C            0.322209118615     0.039784568541    -0.019401870244    12.000000000000
         C           -2.182448781385    -0.054028331459     0.002706029756    12.000000000000
         H           -0.922605781385     1.485733668541     0.885369029756     1.007825032230
         H           -0.922605781385     1.485729668541    -0.879962970244     1.007825032230
         H           -2.197079781385    -0.691879331459     0.888616029756     1.007825032230
         H           -3.088725781385     0.555231668541     0.002705029756     1.007825032230
         H           -2.197079781385    -0.691882331459    -0.883199970244     1.007825032230

  Basis Set: AUG-CC-PVTZ
    Blend: AUG-CC-PVTZ
  Basis Set: (AUG-CC-PVTZ AUX)
    Blend: AUG-CC-PVTZ-JKFIT
	 Reference Energy          =    -415.0174313639291768 [Eh]
	 Singles Energy            =      -0.0000000000000000 [Eh]
	 Same-Spin Energy          =      -0.3414537565657141 [Eh]
	 Opposite-Spin Energy      =      -1.0480013399719983 [Eh]
	 Correlation Energy        =      -1.3894550965377124 [Eh]
	 Total Energy              =    -416.4068864604668647 [Eh]

	 ================> DF-SCS-MP2 Energies <==================
	-----------------------------------------------------------
	 SCS Same-Spin Scale       =       0.3333333333333333 [-]
	 SCS Opposite-Spin Scale   =       1.2000000000000000 [-]
	 SCS Same-Spin Energy      =      -0.1138179188552380 [Eh]
	 SCS Opposite-Spin Energy  =      -1.2576016079663979 [Eh]
	 SCS Correlation Energy    =      -1.3714195268216358 [Eh]
	 SCS Total Energy          =    -416.3888508907508026 [Eh]
	-----------------------------------------------------------

  Dipole Moment: [D]
     X:    -2.2626      Y:     1.0383      Z:    -0.1671     Total:     2.4950

*** Psi4 exiting successfully. Buy a developer a beer!
