                               Psi4 1.3.2 release

  ==> Input File <==

--------------------------------------------------------------------------
#psi4
#
memory 32 gb

molecule  {
0 1
  N        1.2070330    -0.3594050    -0.0000050
  C       -1.2028230    -0.1434160    -0.0000110
  C        0.1842620     0.4168630     0.0000180
  H       -1.1533220    -1.2333450    -0.0000600
  H       -1.7556310     0.1970070    -0.8817940
  H       -1.7556310     0.1969280     0.8818020
  H        0.2601402     1.5131018    -0.2499590
  H        2.0665750     0.2014680     0.0000070
units angstrom
no_reorient  #important for SAPT in psi4, default
symmetry c1  #important for SAPT in psi4, default
}

set PROPERTIES_ORIGIN ["COM"]
properties('MP2/aug-cc-pvtz', properties = ['dipole'])
--------------------------------------------------------------------------

    Molecular point group: c1
  Charge       = 0
  Multiplicity = 1
  Basis Set: AUG-CC-PVTZ
    Blend: AUG-CC-PVTZ
  Basis Set: (AUG-CC-PVTZ AUX)
    Blend: AUG-CC-PVTZ-JKFIT

    Orbital Energies [Eh]
    ---------------------

    Doubly Occupied:

       1A    -15.555272     2A    -11.291686     3A    -11.228759
       4A     -1.204054     5A     -0.992842     6A     -0.773809
       7A     -0.687584     8A     -0.582602     9A     -0.564370
      10A     -0.543505    11A     -0.432488    12A     -0.416157

  @DF-RHF Final Energy:  -133.12267067524738

   => Energetics <=

    Nuclear Repulsion Energy =             70.6082278178863874
    One-Electron Energy =                -318.9155414256586027
    Two-Electron Energy =                 115.1846429325248522
    Total Energy =                       -133.1226706752473774
  Basis Set: (AUG-CC-PVTZ AUX)
    Blend: AUG-CC-PVTZ-RI
    Molecular point group: c1

    Geometry (in Angstrom), charge = 0, multiplicity = 1:

       Center              X                  Y                   Z               Mass
    ------------   -----------------  -----------------  -----------------  -----------------
         N            1.153056256917    -0.339206151526     0.005848471932    14.003074004430
         C           -1.256799743083    -0.123217151526     0.005842471932    12.000000000000
         C            0.130285256917     0.437061848474     0.005871471932    12.000000000000
         H           -1.207298743083    -1.213146151526     0.005793471932     1.007825032230
         H           -1.809607743083     0.217205848474    -0.875940528068     1.007825032230
         H           -1.809607743083     0.217126848474     0.887655471932     1.007825032230
         H            0.206163456917     1.533300648474    -0.244105528068     1.007825032230
         H            2.012598256917     0.221666848474     0.005860471932     1.007825032230

  Basis Set: AUG-CC-PVTZ
    Blend: AUG-CC-PVTZ
  Basis Set: (AUG-CC-PVTZ AUX)
    Blend: AUG-CC-PVTZ-JKFIT
	 Reference Energy          =    -133.1226706752473774 [Eh]
	 Singles Energy            =      -0.0000000000000000 [Eh]
	 Same-Spin Energy          =      -0.1343217626778246 [Eh]
	 Opposite-Spin Energy      =      -0.4737361251731182 [Eh]
	 Correlation Energy        =      -0.6080578878509428 [Eh]
	 Total Energy              =    -133.7307285630983245 [Eh]

	 ================> DF-SCS-MP2 Energies <==================
	-----------------------------------------------------------
	 SCS Same-Spin Scale       =       0.3333333333333333 [-]
	 SCS Opposite-Spin Scale   =       1.2000000000000000 [-]
	 SCS Same-Spin Energy      =      -0.0447739208926082 [Eh]
	 SCS Opposite-Spin Energy  =      -0.5684833502077418 [Eh]
	 SCS Correlation Energy    =      -0.6132572711003500 [Eh]
	 SCS Total Energy          =    -133.7359279463477151 [Eh]
	-----------------------------------------------------------

  Dipole Moment: [D]
     X:    -0.8047      Y:     1.8723      Z:    -0.1790     Total:     2.0457

*** Psi4 exiting successfully. Buy a developer a beer!
