                               Psi4 1.3.2 release

  ==> Input File <==

--------------------------------------------------------------------------
#psi4
#
memory 32 gb

molecule  {
0 1
  N        1.2070330    -0.3594050    -0.0000050
  C       -1.2028230    -0.1434160    -0.0000110
  C        0.1842620     0.4168630     0.0000180
  H       -1.1533220    -1.2333450    -0.0000600
  H       -1.7556310     0.1970070    -0.8817940
  H       -1.7556310     0.1969280     0.8818020
  H        0.2601392     1.5130964    -0.0499590
  H        2.0665750     0.2014680     0.0000070
units angstrom
no_reorient  #important for SAPT in psi4, default
symmetry c1  #important for SAPT in psi4, default
}

set PROPERTIES_ORIGIN ["COM"]
properties('MP2/aug-cc-pvtz', properties = ['dipole'])
--------------------------------------------------------------------------

    Molecular point group: c1
  Charge       = 0
  Multiplicity = 1
  Basis Set: AUG-CC-PVTZ
    Blend: AUG-CC-PVTZ
  Basis Set: (AUG-CC-PVTZ AUX)
    Blend: AUG-CC-PVTZ-JKFIT

    Orbital Energies [Eh]
    ---------------------

    Doubly Occupied:

       1A    -15.554349     2A    -11.288682     3A    -11.228446
       4A     -1.203660     5A     -0.992770     6A     -0.778144
       7A     -0.690911     8A     -0.581921     9A     -0.564450
      10A     -0.544289    11A     -0.426480    12A     -0.423170

  @DF-RHF Final Energy:  -133.12659652383473

   => Energetics <=

    Nuclear Repulsion Energy =             70.7010390796619674
    One-Electron Energy =                -319.1007270322073168
    Two-Electron Energy =                 115.2730914287106003
    Total Energy =                       -133.1265965238347349
  Basis Set: (AUG-CC-PVTZ AUX)
    Blend: AUG-CC-PVTZ-RI
    Molecular point group: c1

    Geometry (in Angstrom), charge = 0, multiplicity = 1:

       Center              X                  Y                   Z               Mass
    ------------   -----------------  -----------------  -----------------  -----------------
         N            1.153056280332    -0.339206025086     0.001165509390    14.003074004430
         C           -1.256799719668    -0.123217025086     0.001159509390    12.000000000000
         C            0.130285280332     0.437061974914     0.001188509390    12.000000000000
         H           -1.207298719668    -1.213146025086     0.001110509390     1.007825032230
         H           -1.809607719668     0.217205974914    -0.880623490610     1.007825032230
         H           -1.809607719668     0.217126974914     0.882972509390     1.007825032230
         H            0.206162480332     1.533295374914    -0.048788490610     1.007825032230
         H            2.012598280332     0.221666974914     0.001177509390     1.007825032230

  Basis Set: AUG-CC-PVTZ
    Blend: AUG-CC-PVTZ
  Basis Set: (AUG-CC-PVTZ AUX)
    Blend: AUG-CC-PVTZ-JKFIT
	 Reference Energy          =    -133.1265965238347349 [Eh]
	 Singles Energy            =      -0.0000000000000000 [Eh]
	 Same-Spin Energy          =      -0.1341456583216013 [Eh]
	 Opposite-Spin Energy      =      -0.4732582845997730 [Eh]
	 Correlation Energy        =      -0.6074039429213742 [Eh]
	 Total Energy              =    -133.7340004667561004 [Eh]

	 ================> DF-SCS-MP2 Energies <==================
	-----------------------------------------------------------
	 SCS Same-Spin Scale       =       0.3333333333333333 [-]
	 SCS Opposite-Spin Scale   =       1.2000000000000000 [-]
	 SCS Same-Spin Energy      =      -0.0447152194405338 [Eh]
	 SCS Opposite-Spin Energy  =      -0.5679099415197275 [Eh]
	 SCS Correlation Energy    =      -0.6126251609602613 [Eh]
	 SCS Total Energy          =    -133.7392216847949840 [Eh]
	-----------------------------------------------------------

  Dipole Moment: [D]
     X:    -0.8170      Y:     1.9229      Z:    -0.0371     Total:     2.0895

*** Psi4 exiting successfully. Buy a developer a beer!
