                               Psi4 1.3.2 release

  ==> Input File <==

--------------------------------------------------------------------------
#psi4
#
memory 32 gb

molecule  {
0 1
  N        1.2070330    -0.3594050    -0.0000050
  C       -1.2028230    -0.1434160    -0.0000110
  C        0.1842620     0.4168630     0.0000180
  H       -1.1533220    -1.2333450    -0.0000600
  H       -1.7556310     0.1970070    -0.8817940
  H       -1.7556310     0.1969280     0.8818020
  H        0.2601395     1.5130977    -0.0999590
  H        2.0665750     0.2014680     0.0000070
units angstrom
no_reorient  #important for SAPT in psi4, default
symmetry c1  #important for SAPT in psi4, default
}

set PROPERTIES_ORIGIN ["COM"]
properties('MP2/aug-cc-pvtz', properties = ['dipole'])
--------------------------------------------------------------------------

    Molecular point group: c1
  Charge       = 0
  Multiplicity = 1
  Basis Set: AUG-CC-PVTZ
    Blend: AUG-CC-PVTZ
  Basis Set: (AUG-CC-PVTZ AUX)
    Blend: AUG-CC-PVTZ-JKFIT

    Orbital Energies [Eh]
    ---------------------

    Doubly Occupied:

       1A    -15.554465     2A    -11.289064     3A    -11.228483
       4A     -1.203708     5A     -0.992776     6A     -0.777557
       7A     -0.690502     8A     -0.582009     9A     -0.564434
      10A     -0.544193    11A     -0.428057    12A     -0.421468

  @DF-RHF Final Energy:  -133.12613617541291

   => Energetics <=

    Nuclear Repulsion Energy =             70.6891356059324636
    One-Electron Energy =                -319.0771152659910967
    Two-Electron Energy =                 115.2618434846457234
    Total Energy =                       -133.1261361754129098
  Basis Set: (AUG-CC-PVTZ AUX)
    Blend: AUG-CC-PVTZ-RI
    Molecular point group: c1

    Geometry (in Angstrom), charge = 0, multiplicity = 1:

       Center              X                  Y                   Z               Mass
    ------------   -----------------  -----------------  -----------------  -----------------
         N            1.153056273308    -0.339206055526     0.002336250025    14.003074004430
         C           -1.256799726692    -0.123217055526     0.002330250025    12.000000000000
         C            0.130285273308     0.437061944474     0.002359250025    12.000000000000
         H           -1.207298726692    -1.213146055526     0.002281250025     1.007825032230
         H           -1.809607726692     0.217205944474    -0.879452749975     1.007825032230
         H           -1.809607726692     0.217126944474     0.884143250025     1.007825032230
         H            0.206162773308     1.533296644474    -0.097617749975     1.007825032230
         H            2.012598273308     0.221666944474     0.002348250025     1.007825032230

  Basis Set: AUG-CC-PVTZ
    Blend: AUG-CC-PVTZ
  Basis Set: (AUG-CC-PVTZ AUX)
    Blend: AUG-CC-PVTZ-JKFIT
	 Reference Energy          =    -133.1261361754129098 [Eh]
	 Singles Energy            =      -0.0000000000000000 [Eh]
	 Same-Spin Energy          =      -0.1341677722059059 [Eh]
	 Opposite-Spin Energy      =      -0.4733169213339031 [Eh]
	 Correlation Energy        =      -0.6074846935398091 [Eh]
	 Total Energy              =    -133.7336208689527268 [Eh]

	 ================> DF-SCS-MP2 Energies <==================
	-----------------------------------------------------------
	 SCS Same-Spin Scale       =       0.3333333333333333 [-]
	 SCS Opposite-Spin Scale   =       1.2000000000000000 [-]
	 SCS Same-Spin Energy      =      -0.0447225907353020 [Eh]
	 SCS Opposite-Spin Energy  =      -0.5679803056006837 [Eh]
	 SCS Correlation Energy    =      -0.6127028963359856 [Eh]
	 SCS Total Energy          =    -133.7388390717488846 [Eh]
	-----------------------------------------------------------

  Dipole Moment: [D]
     X:    -0.8154      Y:     1.9165      Z:    -0.0738     Total:     2.0841

*** Psi4 exiting successfully. Buy a developer a beer!
