                               Psi4 1.3.2 release

  ==> Input File <==

--------------------------------------------------------------------------
#psi4
#
memory 32 gb

molecule  {
0 1
  N        1.2070330    -0.3594050    -0.0000050
  C       -1.2028230    -0.1434160    -0.0000110
  C        0.1842620     0.4168630     0.0000180
  H       -1.1533220    -1.2333450    -0.0000600
  H       -1.7556310     0.1970070    -0.8817940
  H       -1.7556310     0.1969280     0.8818020
  H        0.2601400     1.5131004    -0.1999590
  H        2.0665750     0.2014680     0.0000070
units angstrom
no_reorient  #important for SAPT in psi4, default
symmetry c1  #important for SAPT in psi4, default
}

set PROPERTIES_ORIGIN ["COM"]
properties('MP2/aug-cc-pvtz', properties = ['dipole'])
--------------------------------------------------------------------------

    Molecular point group: c1
  Charge       = 0
  Multiplicity = 1
  Basis Set: AUG-CC-PVTZ
    Blend: AUG-CC-PVTZ
  Basis Set: (AUG-CC-PVTZ AUX)
    Blend: AUG-CC-PVTZ-JKFIT

    Orbital Energies [Eh]
    ---------------------

    Doubly Occupied:

       1A    -15.554926     2A    -11.290572     3A    -11.228638
       4A     -1.203904     5A     -0.992809     6A     -0.775341
       7A     -0.688845     8A     -0.582351     9A     -0.564388
      10A     -0.543802    11A     -0.431065    12A     -0.417957

  @DF-RHF Final Energy:  -133.12420491789740

   => Energetics <=

    Nuclear Repulsion Energy =             70.6423972331460277
    One-Electron Energy =                -318.9840084625397481
    Two-Electron Energy =                 115.2174063114963332
    Total Energy =                       -133.1242049178973730
  Basis Set: (AUG-CC-PVTZ AUX)
    Blend: AUG-CC-PVTZ-RI
    Molecular point group: c1

    Geometry (in Angstrom), charge = 0, multiplicity = 1:

       Center              X                  Y                   Z               Mass
    ------------   -----------------  -----------------  -----------------  -----------------
         N            1.153056261600    -0.339206118746     0.004677731297    14.003074004430
         C           -1.256799738400    -0.123217118746     0.004671731297    12.000000000000
         C            0.130285261600     0.437061881254     0.004700731297    12.000000000000
         H           -1.207298738400    -1.213146118746     0.004622731297     1.007825032230
         H           -1.809607738400     0.217205881254    -0.877111268703     1.007825032230
         H           -1.809607738400     0.217126881254     0.886484731297     1.007825032230
         H            0.206163261600     1.533299281254    -0.195276268703     1.007825032230
         H            2.012598261600     0.221666881254     0.004689731297     1.007825032230

  Basis Set: AUG-CC-PVTZ
    Blend: AUG-CC-PVTZ
  Basis Set: (AUG-CC-PVTZ AUX)
    Blend: AUG-CC-PVTZ-JKFIT
	 Reference Energy          =    -133.1242049178974014 [Eh]
	 Singles Energy            =      -0.0000000000000000 [Eh]
	 Same-Spin Energy          =      -0.1342559508637605 [Eh]
	 Opposite-Spin Energy      =      -0.4735548373947734 [Eh]
	 Correlation Energy        =      -0.6078107882585339 [Eh]
	 Total Energy              =    -133.7320157061559485 [Eh]

	 ================> DF-SCS-MP2 Energies <==================
	-----------------------------------------------------------
	 SCS Same-Spin Scale       =       0.3333333333333333 [-]
	 SCS Opposite-Spin Scale   =       1.2000000000000000 [-]
	 SCS Same-Spin Energy      =      -0.0447519836212535 [Eh]
	 SCS Opposite-Spin Energy  =      -0.5682658048737280 [Eh]
	 SCS Correlation Energy    =      -0.6130177884949815 [Eh]
	 SCS Total Energy          =    -133.7372227063923731 [Eh]
	-----------------------------------------------------------

  Dipole Moment: [D]
     X:    -0.8092      Y:     1.8912      Z:    -0.1451     Total:     2.0622

*** Psi4 exiting successfully. Buy a developer a beer!
