                               Psi4 1.3.2 release

  ==> Input File <==

--------------------------------------------------------------------------
#psi4
#
memory 32 gb

molecule  {
0 1
  N        1.2070330    -0.3594050    -0.0000050
  C       -1.2028230    -0.1434160    -0.0000110
  C        0.1842620     0.4168630     0.0000180
  H       -1.1533220    -1.2333450    -0.0000600
  H       -1.7556310     0.1970070    -0.8817940
  H       -1.7556310     0.1969280     0.8818020
  H        0.2601397     1.5130991    -0.1499590
  H        2.0665750     0.2014680     0.0000070
units angstrom
no_reorient  #important for SAPT in psi4, default
symmetry c1  #important for SAPT in psi4, default
}

set PROPERTIES_ORIGIN ["COM"]
properties('MP2/aug-cc-pvtz', properties = ['dipole'])
--------------------------------------------------------------------------

    Molecular point group: c1
  Charge       = 0
  Multiplicity = 1
  Basis Set: AUG-CC-PVTZ
    Blend: AUG-CC-PVTZ
  Basis Set: (AUG-CC-PVTZ AUX)
    Blend: AUG-CC-PVTZ-JKFIT

    Orbital Energies [Eh]
    ---------------------

    Doubly Occupied:

       1A    -15.554657     2A    -11.289695     3A    -11.228547
       4A     -1.203789     5A     -0.992788     6A     -0.776609
       7A     -0.689815     8A     -0.582153     9A     -0.564411
      10A     -0.544031    11A     -0.429587    12A     -0.419728

  @DF-RHF Final Energy:  -133.12534841447209

   => Energetics <=

    Nuclear Repulsion Energy =             70.6694930667489842
    One-Electron Energy =                -319.0380625709719880
    Two-Electron Energy =                 115.2432210897509037
    Total Energy =                       -133.1253484144720858
  Basis Set: (AUG-CC-PVTZ AUX)
    Blend: AUG-CC-PVTZ-RI
    Molecular point group: c1

    Geometry (in Angstrom), charge = 0, multiplicity = 1:

       Center              X                  Y                   Z               Mass
    ------------   -----------------  -----------------  -----------------  -----------------
         N            1.153056268625    -0.339206088306     0.003506990661    14.003074004430
         C           -1.256799731375    -0.123217088306     0.003500990661    12.000000000000
         C            0.130285268625     0.437061911694     0.003529990661    12.000000000000
         H           -1.207298731375    -1.213146088306     0.003451990661     1.007825032230
         H           -1.809607731375     0.217205911694    -0.878282009339     1.007825032230
         H           -1.809607731375     0.217126911694     0.885313990661     1.007825032230
         H            0.206162968625     1.533298011694    -0.146447009339     1.007825032230
         H            2.012598268625     0.221666911694     0.003518990661     1.007825032230

  Basis Set: AUG-CC-PVTZ
    Blend: AUG-CC-PVTZ
  Basis Set: (AUG-CC-PVTZ AUX)
    Blend: AUG-CC-PVTZ-JKFIT
	 Reference Energy          =    -133.1253484144720858 [Eh]
	 Singles Energy            =      -0.0000000000000000 [Eh]
	 Same-Spin Energy          =      -0.1342045693259543 [Eh]
	 Opposite-Spin Energy      =      -0.4734154474578494 [Eh]
	 Correlation Energy        =      -0.6076200167838037 [Eh]
	 Total Energy              =    -133.7329684312558982 [Eh]

	 ================> DF-SCS-MP2 Energies <==================
	-----------------------------------------------------------
	 SCS Same-Spin Scale       =       0.3333333333333333 [-]
	 SCS Opposite-Spin Scale   =       1.2000000000000000 [-]
	 SCS Same-Spin Energy      =      -0.0447348564419848 [Eh]
	 SCS Opposite-Spin Energy  =      -0.5680985369494193 [Eh]
	 SCS Correlation Energy    =      -0.6128333933914041 [Eh]
	 SCS Total Energy          =    -133.7381818078634979 [Eh]
	-----------------------------------------------------------

  Dipole Moment: [D]
     X:    -0.8128      Y:     1.9060      Z:    -0.1100     Total:     2.0750

*** Psi4 exiting successfully. Buy a developer a beer!
