                               Psi4 1.3.2 release

  ==> Input File <==

--------------------------------------------------------------------------
#psi4
#
memory 32 gb

molecule  {
0 1
  N        1.2070330    -0.3594050    -0.0000050
  C       -1.2028230    -0.1434160    -0.0000110
  C        0.1842620     0.4168630     0.0000180
  H       -1.1533220    -1.2333450    -0.0000600
  H       -1.7556310     0.1970070    -0.8817940
  H       -1.7556310     0.1969280     0.8818020
  H        0.2601405     1.5131031    -0.2999590
  H        2.0665750     0.2014680     0.0000070
units angstrom
no_reorient  #important for SAPT in psi4, default
symmetry c1  #important for SAPT in psi4, default
}

set PROPERTIES_ORIGIN ["COM"]
properties('MP2/aug-cc-pvtz', properties = ['dipole'])
--------------------------------------------------------------------------

    Molecular point group: c1
  Charge       = 0
  Multiplicity = 1
  Basis Set: AUG-CC-PVTZ
    Blend: AUG-CC-PVTZ
  Basis Set: (AUG-CC-PVTZ AUX)
    Blend: AUG-CC-PVTZ-JKFIT

    Orbital Energies [Eh]
    ---------------------

    Doubly Occupied:

       1A    -15.555693     2A    -11.293028     3A    -11.228913
       4A     -1.204242     5A     -0.992890     6A     -0.772077
       7A     -0.686028     8A     -0.582901     9A     -0.564367
      10A     -0.543138    11A     -0.433853    12A     -0.414331

  @DF-RHF Final Energy:  -133.12070791239174

   => Energetics <=

    Nuclear Repulsion Energy =             70.5674448800910881
    One-Electron Energy =                -318.8333832671071377
    Two-Electron Energy =                 115.1452304746242987
    Total Energy =                       -133.1207079123917367
  Basis Set: (AUG-CC-PVTZ AUX)
    Blend: AUG-CC-PVTZ-RI
    Molecular point group: c1

    Geometry (in Angstrom), charge = 0, multiplicity = 1:

       Center              X                  Y                   Z               Mass
    ------------   -----------------  -----------------  -----------------  -----------------
         N            1.153056249893    -0.339206181966     0.007019212568    14.003074004430
         C           -1.256799750107    -0.123217181966     0.007013212568    12.000000000000
         C            0.130285249893     0.437061818034     0.007042212568    12.000000000000
         H           -1.207298750107    -1.213146181966     0.006964212568     1.007825032230
         H           -1.809607750107     0.217205818034    -0.874769787432     1.007825032230
         H           -1.809607750107     0.217126818034     0.888826212568     1.007825032230
         H            0.206163749893     1.533301918034    -0.292934787432     1.007825032230
         H            2.012598249893     0.221666818034     0.007031212568     1.007825032230

  Basis Set: AUG-CC-PVTZ
    Blend: AUG-CC-PVTZ
  Basis Set: (AUG-CC-PVTZ AUX)
    Blend: AUG-CC-PVTZ-JKFIT
	 Reference Energy          =    -133.1207079123917367 [Eh]
	 Singles Energy            =      -0.0000000000000000 [Eh]
	 Same-Spin Energy          =      -0.1344017835273647 [Eh]
	 Opposite-Spin Energy      =      -0.4739602554599426 [Eh]
	 Correlation Energy        =      -0.6083620389873073 [Eh]
	 Total Energy              =    -133.7290699513790457 [Eh]

	 ================> DF-SCS-MP2 Energies <==================
	-----------------------------------------------------------
	 SCS Same-Spin Scale       =       0.3333333333333333 [-]
	 SCS Opposite-Spin Scale   =       1.2000000000000000 [-]
	 SCS Same-Spin Energy      =      -0.0448005945091216 [Eh]
	 SCS Opposite-Spin Energy  =      -0.5687523065519311 [Eh]
	 SCS Correlation Energy    =      -0.6135529010610526 [Eh]
	 SCS Total Energy          =    -133.7342608134527779 [Eh]
	-----------------------------------------------------------

  Dipole Moment: [D]
     X:    -0.7995      Y:     1.8491      Z:    -0.2112     Total:     2.0256

*** Psi4 exiting successfully. Buy a developer a beer!
