                               Psi4 1.3.2 release

  ==> Input File <==

--------------------------------------------------------------------------
#psi4
#
memory 32 gb

molecule  {
0 1
  O        0.0000100    -1.3813680    -0.3010540
  C        1.1670970    -0.7307880     0.2026760
  C        1.1670821     0.8271688    -0.2293976
  O       -0.0000090     1.3813690     0.3010510
  C       -1.1670960     0.7307910    -0.2026650
  C       -1.1670820    -0.7308090     0.2026660
  H        1.1989120    -0.8085610     1.3002060
  H        2.0246160    -1.2633060    -0.2188690
  H        2.0245970     1.2633380     0.2188660
  H        1.1989010     0.8085710    -1.3002050
  H       -1.1989250     0.8085650    -1.3001950
  H       -2.0246200     1.2632970     0.2188880
  H       -2.0246020    -1.2633280    -0.2188810
  H       -1.1989070    -0.8085810     1.3001960
units angstrom
no_reorient  #important for SAPT in psi4, default
symmetry c1  #important for SAPT in psi4, default
}

set PROPERTIES_ORIGIN ["COM"]
properties('MP2/aug-cc-pvtz', properties = ['dipole'])
--------------------------------------------------------------------------

    Molecular point group: c1
  Charge       = 0
  Multiplicity = 1
  Basis Set: AUG-CC-PVTZ
    Blend: AUG-CC-PVTZ
  Basis Set: (AUG-CC-PVTZ AUX)
    Blend: AUG-CC-PVTZ-JKFIT

    Orbital Energies [Eh]
    ---------------------

    Doubly Occupied:

       1A    -20.562404     2A    -20.560221     3A    -11.280498
       4A    -11.277789     5A    -11.277603     6A    -11.276719
       7A     -1.399090     8A     -1.357892     9A     -1.039953
      10A     -0.940629    11A     -0.892957    12A     -0.800960
      13A     -0.695000    14A     -0.656724    15A     -0.653218
      16A     -0.637348    17A     -0.631728    18A     -0.555630
      19A     -0.546238    20A     -0.518530    21A     -0.510114
      22A     -0.467176    23A     -0.458525    24A     -0.383229

  @DF-RHF Final Energy:  -305.93343639997386

   => Energetics <=

    Nuclear Repulsion Energy =            263.4076267152320838
    One-Electron Energy =                -939.9217810355386291
    Two-Electron Energy =                 370.5807179203326314
    Total Energy =                       -305.9334363999738571
  Basis Set: (AUG-CC-PVTZ AUX)
    Blend: AUG-CC-PVTZ-RI
    Molecular point group: c1

    Geometry (in Angstrom), charge = 0, multiplicity = 1:

       Center              X                  Y                   Z               Mass
    ------------   -----------------  -----------------  -----------------  -----------------
         O            0.000009988918    -1.394500681999    -0.297411975133    15.994914619570
         C            1.167096988918    -0.743920681999     0.206318024867    12.000000000000
         C            1.167082088918     0.814036118001    -0.225755575133    12.000000000000
         O           -0.000009011082     1.368236318001     0.304693024867    15.994914619570
         C           -1.167096011082     0.717658318001    -0.199022975133    12.000000000000
         C           -1.167082011082    -0.743941681999     0.206308024867    12.000000000000
         H            1.198911988918    -0.821693681999     1.303848024867     1.007825032230
         H            2.024615988918    -1.276438681999    -0.215226975133     1.007825032230
         H            2.024596988918     1.250205318001     0.222508024867     1.007825032230
         H            1.198900988918     0.795438318001    -1.296562975133     1.007825032230
         H           -1.198925011082     0.795432318001    -1.296552975133     1.007825032230
         H           -2.024620011082     1.250164318001     0.222530024867     1.007825032230
         H           -2.024602011082    -1.276460681999    -0.215238975133     1.007825032230
         H           -1.198907011082    -0.821713681999     1.303838024867     1.007825032230

  Basis Set: AUG-CC-PVTZ
    Blend: AUG-CC-PVTZ
  Basis Set: (AUG-CC-PVTZ AUX)
    Blend: AUG-CC-PVTZ-JKFIT
	 Reference Energy          =    -305.9334363999738571 [Eh]
	 Singles Energy            =      -0.0000000000000000 [Eh]
	 Same-Spin Energy          =      -0.2978480855814092 [Eh]
	 Opposite-Spin Energy      =      -0.9800145286708197 [Eh]
	 Correlation Energy        =      -1.2778626142522289 [Eh]
	 Total Energy              =    -307.2112990142260855 [Eh]

	 ================> DF-SCS-MP2 Energies <==================
	-----------------------------------------------------------
	 SCS Same-Spin Scale       =       0.3333333333333333 [-]
	 SCS Opposite-Spin Scale   =       1.2000000000000000 [-]
	 SCS Same-Spin Energy      =      -0.0992826951938031 [Eh]
	 SCS Opposite-Spin Energy  =      -1.1760174344049836 [Eh]
	 SCS Correlation Energy    =      -1.2753001295987867 [Eh]
	 SCS Total Energy          =    -307.2087365295726613 [Eh]
	-----------------------------------------------------------

  Dipole Moment: [D]
     X:    -0.0937      Y:     0.1231      Z:    -0.0309     Total:     0.1577

*** Psi4 exiting successfully. Buy a developer a beer!
