                               Psi4 1.3.2 release

  ==> Input File <==

--------------------------------------------------------------------------
#psi4
#
memory 32 gb

molecule  {
0 1
  O        0.0140684    -1.3689277    -0.3472267
  C        1.1670970    -0.7307880     0.2026760
  C        1.1670830     0.7308060    -0.2026730
  O       -0.0000090     1.3813690     0.3010510
  C       -1.1670960     0.7307910    -0.2026650
  C       -1.1670820    -0.7308090     0.2026660
  H        1.1989120    -0.8085610     1.3002060
  H        2.0246160    -1.2633060    -0.2188690
  H        2.0245970     1.2633380     0.2188660
  H        1.1989010     0.8085710    -1.3002050
  H       -1.1989250     0.8085650    -1.3001950
  H       -2.0246200     1.2632970     0.2188880
  H       -2.0246020    -1.2633280    -0.2188810
  H       -1.1989070    -0.8085810     1.3001960
units angstrom
no_reorient  #important for SAPT in psi4, default
symmetry c1  #important for SAPT in psi4, default
}

set PROPERTIES_ORIGIN ["COM"]
properties('MP2/aug-cc-pvtz', properties = ['dipole'])
--------------------------------------------------------------------------

    Molecular point group: c1
  Charge       = 0
  Multiplicity = 1
  Basis Set: AUG-CC-PVTZ
    Blend: AUG-CC-PVTZ
  Basis Set: (AUG-CC-PVTZ AUX)
    Blend: AUG-CC-PVTZ-JKFIT

    Orbital Energies [Eh]
    ---------------------

    Doubly Occupied:

       1A    -20.562407     2A    -20.561083     3A    -11.280245
       4A    -11.278238     5A    -11.277319     6A    -11.276605
       7A     -1.393861     8A     -1.350887     9A     -1.045139
      10A     -0.952144    11A     -0.885165    12A     -0.800074
      13A     -0.696021    14A     -0.651073    15A     -0.648099
      16A     -0.632463    17A     -0.630822    18A     -0.555273
      19A     -0.551834    20A     -0.512566    21A     -0.507232
      22A     -0.465707    23A     -0.458984    24A     -0.398686

  @DF-RHF Final Energy:  -305.93834013469683

   => Energetics <=

    Nuclear Repulsion Energy =            264.0195274829652590
    One-Electron Energy =                -941.1718815357319272
    Two-Electron Energy =                 371.2140139180698384
    Total Energy =                       -305.9383401346968299
  Basis Set: (AUG-CC-PVTZ AUX)
    Blend: AUG-CC-PVTZ-RI
    Molecular point group: c1

    Geometry (in Angstrom), charge = 0, multiplicity = 1:

       Center              X                  Y                   Z               Mass
    ------------   -----------------  -----------------  -----------------  -----------------
         O            0.011514527440    -1.371187631875    -0.338839397841    15.994914619570
         C            1.164543127440    -0.733047931875     0.211063302159    12.000000000000
         C            1.164529127440     0.728546068125    -0.194285697841    12.000000000000
         O           -0.002562872560     1.379109068125     0.309438302159    15.994914619570
         C           -1.169649872560     0.728531068125    -0.194277697841    12.000000000000
         C           -1.169635872560    -0.733068931875     0.211053302159    12.000000000000
         H            1.196358127440    -0.810820931875     1.308593302159     1.007825032230
         H            2.022062127440    -1.265565931875    -0.210481697841     1.007825032230
         H            2.022043127440     1.261078068125     0.227253302159     1.007825032230
         H            1.196347127440     0.806311068125    -1.291817697841     1.007825032230
         H           -1.201478872560     0.806305068125    -1.291807697841     1.007825032230
         H           -2.027173872560     1.261037068125     0.227275302159     1.007825032230
         H           -2.027155872560    -1.265587931875    -0.210493697841     1.007825032230
         H           -1.201460872560    -0.810840931875     1.308583302159     1.007825032230

  Basis Set: AUG-CC-PVTZ
    Blend: AUG-CC-PVTZ
  Basis Set: (AUG-CC-PVTZ AUX)
    Blend: AUG-CC-PVTZ-JKFIT
	 Reference Energy          =    -305.9383401346968299 [Eh]
	 Singles Energy            =      -0.0000000000000000 [Eh]
	 Same-Spin Energy          =      -0.2984719168675583 [Eh]
	 Opposite-Spin Energy      =      -0.9812729739938308 [Eh]
	 Correlation Energy        =      -1.2797448908613891 [Eh]
	 Total Energy              =    -307.2180850255581959 [Eh]

	 ================> DF-SCS-MP2 Energies <==================
	-----------------------------------------------------------
	 SCS Same-Spin Scale       =       0.3333333333333333 [-]
	 SCS Opposite-Spin Scale   =       1.2000000000000000 [-]
	 SCS Same-Spin Energy      =      -0.0994906389558528 [Eh]
	 SCS Opposite-Spin Energy  =      -1.1775275687925970 [Eh]
	 SCS Correlation Energy    =      -1.2770182077484498 [Eh]
	 SCS Total Energy          =    -307.2153583424452563 [Eh]
	-----------------------------------------------------------

  Dipole Moment: [D]
     X:    -0.0654      Y:    -0.0247      Z:     0.0973     Total:     0.1198

*** Psi4 exiting successfully. Buy a developer a beer!
