                               Psi4 1.3.2 release

  ==> Input File <==

--------------------------------------------------------------------------
#psi4
#
memory 32 gb

molecule  {
0 1
  O        0.0000100    -1.3813680    -0.3010540
  C        1.2562261    -0.7119904     0.2566275
  C        1.1670830     0.7308060    -0.2026730
  O       -0.0000090     1.3813690     0.3010510
  C       -1.1670960     0.7307910    -0.2026650
  C       -1.1670820    -0.7308090     0.2026660
  H        1.1989120    -0.8085610     1.3002060
  H        2.0246160    -1.2633060    -0.2188690
  H        2.0245970     1.2633380     0.2188660
  H        1.1989010     0.8085710    -1.3002050
  H       -1.1989250     0.8085650    -1.3001950
  H       -2.0246200     1.2632970     0.2188880
  H       -2.0246020    -1.2633280    -0.2188810
  H       -1.1989070    -0.8085810     1.3001960
units angstrom
no_reorient  #important for SAPT in psi4, default
symmetry c1  #important for SAPT in psi4, default
}

set PROPERTIES_ORIGIN ["COM"]
properties('MP2/aug-cc-pvtz', properties = ['dipole'])
--------------------------------------------------------------------------

    Molecular point group: c1
  Charge       = 0
  Multiplicity = 1
  Basis Set: AUG-CC-PVTZ
    Blend: AUG-CC-PVTZ
  Basis Set: (AUG-CC-PVTZ AUX)
    Blend: AUG-CC-PVTZ-JKFIT

    Orbital Energies [Eh]
    ---------------------

    Doubly Occupied:

       1A    -20.563186     2A    -20.551816     3A    -11.281741
       4A    -11.279042     5A    -11.275542     6A    -11.272608
       7A     -1.386204     8A     -1.332791     9A     -1.046405
      10A     -0.953178    11A     -0.884049    12A     -0.801485
      13A     -0.690111    14A     -0.656538    15A     -0.650920
      16A     -0.630158    17A     -0.620879    18A     -0.557470
      19A     -0.540945    20A     -0.524510    21A     -0.507409
      22A     -0.458779    23A     -0.453883    24A     -0.398756

  @DF-RHF Final Energy:  -305.92928080576348

   => Energetics <=

    Nuclear Repulsion Energy =            262.6421809278602950
    One-Electron Energy =                -938.5061136197581391
    Two-Electron Energy =                 369.9346518861343611
    Total Energy =                       -305.9292808057634829
  Basis Set: (AUG-CC-PVTZ AUX)
    Blend: AUG-CC-PVTZ-RI
    Molecular point group: c1

    Geometry (in Angstrom), charge = 0, multiplicity = 1:

       Center              X                  Y                   Z               Mass
    ------------   -----------------  -----------------  -----------------  -----------------
         O           -0.012136865020    -1.383929907230    -0.308406710946    15.994914619570
         C            1.244079234980    -0.714552307230     0.249274789054    12.000000000000
         C            1.154936134980     0.728244092770    -0.210025710946    12.000000000000
         O           -0.012155865020     1.378807092770     0.293698289054    15.994914619570
         C           -1.179242865020     0.728229092770    -0.210017710946    12.000000000000
         C           -1.179228865020    -0.733370907230     0.195313289054    12.000000000000
         H            1.186765134980    -0.811122907230     1.292853289054     1.007825032230
         H            2.012469134980    -1.265867907230    -0.226221710946     1.007825032230
         H            2.012450134980     1.260776092770     0.211513289054     1.007825032230
         H            1.186754134980     0.806009092770    -1.307557710946     1.007825032230
         H           -1.211071865020     0.806003092770    -1.307547710946     1.007825032230
         H           -2.036766865020     1.260735092770     0.211535289054     1.007825032230
         H           -2.036748865020    -1.265889907230    -0.226233710946     1.007825032230
         H           -1.211053865020    -0.811142907230     1.292843289054     1.007825032230

  Basis Set: AUG-CC-PVTZ
    Blend: AUG-CC-PVTZ
  Basis Set: (AUG-CC-PVTZ AUX)
    Blend: AUG-CC-PVTZ-JKFIT
	 Reference Energy          =    -305.9292808057634829 [Eh]
	 Singles Energy            =      -0.0000000000000000 [Eh]
	 Same-Spin Energy          =      -0.2985638121363139 [Eh]
	 Opposite-Spin Energy      =      -0.9824398139806543 [Eh]
	 Correlation Energy        =      -1.2810036261169682 [Eh]
	 Total Energy              =    -307.2102844318804387 [Eh]

	 ================> DF-SCS-MP2 Energies <==================
	-----------------------------------------------------------
	 SCS Same-Spin Scale       =       0.3333333333333333 [-]
	 SCS Opposite-Spin Scale   =       1.2000000000000000 [-]
	 SCS Same-Spin Energy      =      -0.0995212707121046 [Eh]
	 SCS Opposite-Spin Energy  =      -1.1789277767767852 [Eh]
	 SCS Correlation Energy    =      -1.2784490474888899 [Eh]
	 SCS Total Energy          =    -307.2077298532523741 [Eh]
	-----------------------------------------------------------

  Dipole Moment: [D]
     X:     0.2792      Y:     0.0733      Z:     0.1107     Total:     0.3092

*** Psi4 exiting successfully. Buy a developer a beer!
