                               Psi4 1.3.2 release

  ==> Input File <==

--------------------------------------------------------------------------
#psi4
#
memory 32 gb

molecule  {
0 1
  O        0.0000100    -1.3813680    -0.3010540
  C        1.1068585    -0.6680013     0.2512908
  C        1.1670830     0.7308060    -0.2026730
  O       -0.0000090     1.3813690     0.3010510
  C       -1.1670960     0.7307910    -0.2026650
  C       -1.1670820    -0.7308090     0.2026660
  H        1.1989120    -0.8085610     1.3002060
  H        2.0246160    -1.2633060    -0.2188690
  H        2.0245970     1.2633380     0.2188660
  H        1.1989010     0.8085710    -1.3002050
  H       -1.1989250     0.8085650    -1.3001950
  H       -2.0246200     1.2632970     0.2188880
  H       -2.0246020    -1.2633280    -0.2188810
  H       -1.1989070    -0.8085810     1.3001960
units angstrom
no_reorient  #important for SAPT in psi4, default
symmetry c1  #important for SAPT in psi4, default
}

set PROPERTIES_ORIGIN ["COM"]
properties('MP2/aug-cc-pvtz', properties = ['dipole'])
--------------------------------------------------------------------------

    Molecular point group: c1
  Charge       = 0
  Multiplicity = 1
  Basis Set: AUG-CC-PVTZ
    Blend: AUG-CC-PVTZ
  Basis Set: (AUG-CC-PVTZ AUX)
    Blend: AUG-CC-PVTZ-JKFIT

    Orbital Energies [Eh]
    ---------------------

    Doubly Occupied:

       1A    -20.564923     2A    -20.559418     3A    -11.279812
       4A    -11.278658     5A    -11.277534     6A    -11.277466
       7A     -1.400630     8A     -1.356147     9A     -1.049484
      10A     -0.957207    11A     -0.884330    12A     -0.803698
      13A     -0.699739    14A     -0.655416    15A     -0.642380
      16A     -0.638266    17A     -0.634788    18A     -0.558960
      19A     -0.553938    20A     -0.518156    21A     -0.494364
      22A     -0.462789    23A     -0.457713    24A     -0.403179

  @DF-RHF Final Energy:  -305.92802632731230

   => Energetics <=

    Nuclear Repulsion Energy =            265.3980972581366018
    One-Electron Energy =                -943.8342583361303468
    Two-Electron Energy =                 372.5081347506815064
    Total Energy =                       -305.9280263273122955
  Basis Set: (AUG-CC-PVTZ AUX)
    Blend: AUG-CC-PVTZ-RI
    Molecular point group: c1

    Geometry (in Angstrom), charge = 0, multiplicity = 1:

       Center              X                  Y                   Z               Mass
    ------------   -----------------  -----------------  -----------------  -----------------
         O            0.008219316067    -1.389924849142    -0.307679412445    15.994914619570
         C            1.115067816067    -0.676558149142     0.244665387555    12.000000000000
         C            1.175292316067     0.722249150858    -0.209298412445    12.000000000000
         O            0.008200316067     1.372812150858     0.294425587555    15.994914619570
         C           -1.158886683933     0.722234150858    -0.209290412445    12.000000000000
         C           -1.158872683933    -0.739365849142     0.196040587555    12.000000000000
         H            1.207121316067    -0.817117849142     1.293580587555     1.007825032230
         H            2.032825316067    -1.271862849142    -0.225494412445     1.007825032230
         H            2.032806316067     1.254781150858     0.212240587555     1.007825032230
         H            1.207110316067     0.800014150858    -1.306830412445     1.007825032230
         H           -1.190715683933     0.800008150858    -1.306820412445     1.007825032230
         H           -2.016410683933     1.254740150858     0.212262587555     1.007825032230
         H           -2.016392683933    -1.271884849142    -0.225506412445     1.007825032230
         H           -1.190697683933    -0.817137849142     1.293570587555     1.007825032230

  Basis Set: AUG-CC-PVTZ
    Blend: AUG-CC-PVTZ
  Basis Set: (AUG-CC-PVTZ AUX)
    Blend: AUG-CC-PVTZ-JKFIT
	 Reference Energy          =    -305.9280263273122955 [Eh]
	 Singles Energy            =      -0.0000000000000000 [Eh]
	 Same-Spin Energy          =      -0.2991021292977053 [Eh]
	 Opposite-Spin Energy      =      -0.9819331492224728 [Eh]
	 Correlation Energy        =      -1.2810352785201782 [Eh]
	 Total Energy              =    -307.2090616058324599 [Eh]

	 ================> DF-SCS-MP2 Energies <==================
	-----------------------------------------------------------
	 SCS Same-Spin Scale       =       0.3333333333333333 [-]
	 SCS Opposite-Spin Scale   =       1.2000000000000000 [-]
	 SCS Same-Spin Energy      =      -0.0997007097659018 [Eh]
	 SCS Opposite-Spin Energy  =      -1.1783197790669673 [Eh]
	 SCS Correlation Energy    =      -1.2780204888328690 [Eh]
	 SCS Total Energy          =    -307.2060468161451467 [Eh]
	-----------------------------------------------------------

  Dipole Moment: [D]
     X:    -0.0797      Y:     0.0827      Z:     0.0601     Total:     0.1296

*** Psi4 exiting successfully. Buy a developer a beer!
