                               Psi4 1.3.2 release

  ==> Input File <==

--------------------------------------------------------------------------
#psi4
#
memory 32 gb

molecule  {
0 1
  O        0.0000100    -1.3813680    -0.3010540
  C        1.2488277    -0.6852281     0.2379520
  C        1.1670830     0.7308060    -0.2026730
  O       -0.0000090     1.3813690     0.3010510
  C       -1.1670960     0.7307910    -0.2026650
  C       -1.1670820    -0.7308090     0.2026660
  H        1.1989120    -0.8085610     1.3002060
  H        2.0246160    -1.2633060    -0.2188690
  H        2.0245970     1.2633380     0.2188660
  H        1.1989010     0.8085710    -1.3002050
  H       -1.1989250     0.8085650    -1.3001950
  H       -2.0246200     1.2632970     0.2188880
  H       -2.0246020    -1.2633280    -0.2188810
  H       -1.1989070    -0.8085810     1.3001960
units angstrom
no_reorient  #important for SAPT in psi4, default
symmetry c1  #important for SAPT in psi4, default
}

set PROPERTIES_ORIGIN ["COM"]
properties('MP2/aug-cc-pvtz', properties = ['dipole'])
--------------------------------------------------------------------------

    Molecular point group: c1
  Charge       = 0
  Multiplicity = 1
  Basis Set: AUG-CC-PVTZ
    Blend: AUG-CC-PVTZ
  Basis Set: (AUG-CC-PVTZ AUX)
    Blend: AUG-CC-PVTZ-JKFIT

    Orbital Energies [Eh]
    ---------------------

    Doubly Occupied:

       1A    -20.563463     2A    -20.552330     3A    -11.280904
       4A    -11.279782     5A    -11.275879     6A    -11.272543
       7A     -1.387427     8A     -1.333313     9A     -1.050042
      10A     -0.955926    11A     -0.882772    12A     -0.800054
      13A     -0.691948    14A     -0.655374    15A     -0.650696
      16A     -0.628770    17A     -0.622566    18A     -0.560656
      19A     -0.542091    20A     -0.521533    21A     -0.506171
      22A     -0.459232    23A     -0.452723    24A     -0.402022

  @DF-RHF Final Energy:  -305.93058819576055

   => Energetics <=

    Nuclear Repulsion Energy =            263.0680363083553743
    One-Electron Energy =                -939.3408190451365272
    Two-Electron Energy =                 370.3421945410206604
    Total Energy =                       -305.9305881957605493
  Basis Set: (AUG-CC-PVTZ AUX)
    Blend: AUG-CC-PVTZ-RI
    Molecular point group: c1

    Geometry (in Angstrom), charge = 0, multiplicity = 1:

       Center              X                  Y                   Z               Mass
    ------------   -----------------  -----------------  -----------------  -----------------
         O           -0.011128593011    -1.387577138793    -0.305861568225    15.994914619570
         C            1.237689106989    -0.691437238793     0.233144431775    12.000000000000
         C            1.155944406989     0.724596861207    -0.207480568225    12.000000000000
         O           -0.011147593011     1.375159861207     0.296243431775    15.994914619570
         C           -1.178234593011     0.724581861207    -0.207472568225    12.000000000000
         C           -1.178220593011    -0.737018138793     0.197858431775    12.000000000000
         H            1.187773406989    -0.814770138793     1.295398431775     1.007825032230
         H            2.013477406989    -1.269515138793    -0.223676568225     1.007825032230
         H            2.013458406989     1.257128861207     0.214058431775     1.007825032230
         H            1.187762406989     0.802361861207    -1.305012568225     1.007825032230
         H           -1.210063593011     0.802355861207    -1.305002568225     1.007825032230
         H           -2.035758593011     1.257087861207     0.214080431775     1.007825032230
         H           -2.035740593011    -1.269537138793    -0.223688568225     1.007825032230
         H           -1.210045593011    -0.814790138793     1.295388431775     1.007825032230

  Basis Set: AUG-CC-PVTZ
    Blend: AUG-CC-PVTZ
  Basis Set: (AUG-CC-PVTZ AUX)
    Blend: AUG-CC-PVTZ-JKFIT
	 Reference Energy          =    -305.9305881957605493 [Eh]
	 Singles Energy            =      -0.0000000000000000 [Eh]
	 Same-Spin Energy          =      -0.2988266305113176 [Eh]
	 Opposite-Spin Energy      =      -0.9826144033208362 [Eh]
	 Correlation Energy        =      -1.2814410338321538 [Eh]
	 Total Energy              =    -307.2120292295927015 [Eh]

	 ================> DF-SCS-MP2 Energies <==================
	-----------------------------------------------------------
	 SCS Same-Spin Scale       =       0.3333333333333333 [-]
	 SCS Opposite-Spin Scale   =       1.2000000000000000 [-]
	 SCS Same-Spin Energy      =      -0.0996088768371059 [Eh]
	 SCS Opposite-Spin Energy  =      -1.1791372839850034 [Eh]
	 SCS Correlation Energy    =      -1.2787461608221093 [Eh]
	 SCS Total Energy          =    -307.2093343565826444 [Eh]
	-----------------------------------------------------------

  Dipole Moment: [D]
     X:     0.2766      Y:     0.0987      Z:     0.0854     Total:     0.3058

*** Psi4 exiting successfully. Buy a developer a beer!
