                               Psi4 1.3.2 release

  ==> Input File <==

--------------------------------------------------------------------------
#psi4
#
memory 32 gb

molecule  {
0 1
  O        0.0000100    -1.3813680    -0.3010540
  C        1.1670970    -0.7307880     0.2026760
  C        1.1670830     0.7308060    -0.2026730
  O       -0.0000090     1.3813690     0.3010510
  C       -1.1670960     0.7307910    -0.2026650
  C       -1.1670820    -0.7308090     0.2026660
  H        1.2018023    -0.8156265     1.3999142
  H        2.0246160    -1.2633060    -0.2188690
  H        2.0245970     1.2633380     0.2188660
  H        1.1989010     0.8085710    -1.3002050
  H       -1.1989250     0.8085650    -1.3001950
  H       -2.0246200     1.2632970     0.2188880
  H       -2.0246020    -1.2633280    -0.2188810
  H       -1.1989070    -0.8085810     1.3001960
units angstrom
no_reorient  #important for SAPT in psi4, default
symmetry c1  #important for SAPT in psi4, default
}

set PROPERTIES_ORIGIN ["COM"]
properties('MP2/aug-cc-pvtz', properties = ['dipole'])
--------------------------------------------------------------------------

    Molecular point group: c1
  Charge       = 0
  Multiplicity = 1
  Basis Set: AUG-CC-PVTZ
    Blend: AUG-CC-PVTZ
  Basis Set: (AUG-CC-PVTZ AUX)
    Blend: AUG-CC-PVTZ-JKFIT

    Orbital Energies [Eh]
    ---------------------

    Doubly Occupied:

       1A    -20.563854     2A    -20.561699     3A    -11.289883
       4A    -11.279457     5A    -11.278814     6A    -11.278157
       7A     -1.397284     8A     -1.355284     9A     -1.045033
      10A     -0.950771    11A     -0.886888    12A     -0.792866
      13A     -0.697954    14A     -0.650973    15A     -0.644710
      16A     -0.637382    17A     -0.629135    18A     -0.555663
      19A     -0.555075    20A     -0.512569    21A     -0.504781
      22A     -0.461111    23A     -0.456588    24A     -0.399127

  @DF-RHF Final Energy:  -305.93376972566614

   => Energetics <=

    Nuclear Repulsion Energy =            263.7934408533985220
    One-Electron Energy =                -940.6843003792923810
    Two-Electron Energy =                 370.9570898002276635
    Total Energy =                       -305.9337697256661386
  Basis Set: (AUG-CC-PVTZ AUX)
    Blend: AUG-CC-PVTZ-RI
    Molecular point group: c1

    Geometry (in Angstrom), charge = 0, multiplicity = 1:

       Center              X                  Y                   Z               Mass
    ------------   -----------------  -----------------  -----------------  -----------------
         O           -0.000023215353    -1.381287254562    -0.302195302774    15.994914619570
         C            1.167063784647    -0.730707254562     0.201534697226    12.000000000000
         C            1.167049784647     0.730886745438    -0.203814302774    12.000000000000
         O           -0.000042215353     1.381449745438     0.299909697226    15.994914619570
         C           -1.167129215353     0.730871745438    -0.203806302774    12.000000000000
         C           -1.167115215353    -0.730728254562     0.201524697226    12.000000000000
         H            1.201769084647    -0.815545754562     1.398772897226     1.007825032230
         H            2.024582784647    -1.263225254562    -0.220010302774     1.007825032230
         H            2.024563784647     1.263418745438     0.217724697226     1.007825032230
         H            1.198867784647     0.808651745438    -1.301346302774     1.007825032230
         H           -1.198958215353     0.808645745438    -1.301336302774     1.007825032230
         H           -2.024653215353     1.263377745438     0.217746697226     1.007825032230
         H           -2.024635215353    -1.263247254562    -0.220022302774     1.007825032230
         H           -1.198940215353    -0.808500254562     1.299054697226     1.007825032230

  Basis Set: AUG-CC-PVTZ
    Blend: AUG-CC-PVTZ
  Basis Set: (AUG-CC-PVTZ AUX)
    Blend: AUG-CC-PVTZ-JKFIT
	 Reference Energy          =    -305.9337697256661386 [Eh]
	 Singles Energy            =      -0.0000000000000000 [Eh]
	 Same-Spin Energy          =      -0.2984475662484151 [Eh]
	 Opposite-Spin Energy      =      -0.9813796225059688 [Eh]
	 Correlation Energy        =      -1.2798271887543837 [Eh]
	 Total Energy              =    -307.2135969144205205 [Eh]

	 ================> DF-SCS-MP2 Energies <==================
	-----------------------------------------------------------
	 SCS Same-Spin Scale       =       0.3333333333333333 [-]
	 SCS Opposite-Spin Scale   =       1.2000000000000000 [-]
	 SCS Same-Spin Energy      =      -0.0994825220828050 [Eh]
	 SCS Opposite-Spin Energy  =      -1.1776555470071626 [Eh]
	 SCS Correlation Energy    =      -1.2771380690899676 [Eh]
	 SCS Total Energy          =    -307.2109077947561104 [Eh]
	-----------------------------------------------------------

  Dipole Moment: [D]
     X:    -0.0379      Y:     0.0141      Z:    -0.0887     Total:     0.0975

*** Psi4 exiting successfully. Buy a developer a beer!
