                               Psi4 1.3.2 release

  ==> Input File <==

--------------------------------------------------------------------------
#psi4
#
memory 32 gb

molecule  {
0 1
  O        0.0000100    -1.3813680    -0.3010540
  C        1.1670970    -0.7307880     0.2026760
  C        1.1670839     0.6344432    -0.1759484
  O       -0.0000090     1.3813690     0.3010510
  C       -1.1670960     0.7307910    -0.2026650
  C       -1.1670820    -0.7308090     0.2026660
  H        1.1989120    -0.8085610     1.3002060
  H        2.0246160    -1.2633060    -0.2188690
  H        2.0245970     1.2633380     0.2188660
  H        1.1989010     0.8085710    -1.3002050
  H       -1.1989250     0.8085650    -1.3001950
  H       -2.0246200     1.2632970     0.2188880
  H       -2.0246020    -1.2633280    -0.2188810
  H       -1.1989070    -0.8085810     1.3001960
units angstrom
no_reorient  #important for SAPT in psi4, default
symmetry c1  #important for SAPT in psi4, default
}

set PROPERTIES_ORIGIN ["COM"]
properties('MP2/aug-cc-pvtz', properties = ['dipole'])
--------------------------------------------------------------------------

    Molecular point group: c1
  Charge       = 0
  Multiplicity = 1
  Basis Set: AUG-CC-PVTZ
    Blend: AUG-CC-PVTZ
  Basis Set: (AUG-CC-PVTZ AUX)
    Blend: AUG-CC-PVTZ-JKFIT

    Orbital Energies [Eh]
    ---------------------

    Doubly Occupied:

       1A    -20.562652     2A    -20.560643     3A    -11.281753
       4A    -11.278346     5A    -11.276560     6A    -11.275663
       7A     -1.395980     8A     -1.348679     9A     -1.058595
      10A     -0.963701    11A     -0.882009    12A     -0.795585
      13A     -0.700791    14A     -0.652751    15A     -0.647684
      16A     -0.638134    17A     -0.626880    18A     -0.566366
      19A     -0.552076    20A     -0.509820    21A     -0.499896
      22A     -0.461880    23A     -0.451377    24A     -0.409136

  @DF-RHF Final Energy:  -305.92727055389611

   => Energetics <=

    Nuclear Repulsion Energy =            265.1219454677219574
    One-Electron Energy =                -943.3045208097953491
    Two-Electron Energy =                 372.2553047881772841
    Total Energy =                       -305.9272705538961077
  Basis Set: (AUG-CC-PVTZ AUX)
    Blend: AUG-CC-PVTZ-RI
    Molecular point group: c1

    Geometry (in Angstrom), charge = 0, multiplicity = 1:

       Center              X                  Y                   Z               Mass
    ------------   -----------------  -----------------  -----------------  -----------------
         O            0.000009743609    -1.368235566848    -0.304696162562    15.994914619570
         C            1.167096743609    -0.717655566848     0.199033837438    12.000000000000
         C            1.167083643609     0.647575633152    -0.179590562562    12.000000000000
         O           -0.000009256391     1.394501433152     0.297408837438    15.994914619570
         C           -1.167096256391     0.743923433152    -0.206307162562    12.000000000000
         C           -1.167082256391    -0.717676566848     0.199023837438    12.000000000000
         H            1.198911743609    -0.795428566848     1.296563837438     1.007825032230
         H            2.024615743609    -1.250173566848    -0.222511162562     1.007825032230
         H            2.024596743609     1.276470433152     0.215223837438     1.007825032230
         H            1.198900743609     0.821703433152    -1.303847162562     1.007825032230
         H           -1.198925256391     0.821697433152    -1.303837162562     1.007825032230
         H           -2.024620256391     1.276429433152     0.215245837438     1.007825032230
         H           -2.024602256391    -1.250195566848    -0.222523162562     1.007825032230
         H           -1.198907256391    -0.795448566848     1.296553837438     1.007825032230

  Basis Set: AUG-CC-PVTZ
    Blend: AUG-CC-PVTZ
  Basis Set: (AUG-CC-PVTZ AUX)
    Blend: AUG-CC-PVTZ-JKFIT
	 Reference Energy          =    -305.9272705538961077 [Eh]
	 Singles Energy            =      -0.0000000000000000 [Eh]
	 Same-Spin Energy          =      -0.2995877754711822 [Eh]
	 Opposite-Spin Energy      =      -0.9826326270440402 [Eh]
	 Correlation Energy        =      -1.2822204025152224 [Eh]
	 Total Energy              =    -307.2094909564113436 [Eh]

	 ================> DF-SCS-MP2 Energies <==================
	-----------------------------------------------------------
	 SCS Same-Spin Scale       =       0.3333333333333333 [-]
	 SCS Opposite-Spin Scale   =       1.2000000000000000 [-]
	 SCS Same-Spin Energy      =      -0.0998625918237274 [Eh]
	 SCS Opposite-Spin Energy  =      -1.1791591524528482 [Eh]
	 SCS Correlation Energy    =      -1.2790217442765757 [Eh]
	 SCS Total Energy          =    -307.2062922981726842 [Eh]
	-----------------------------------------------------------

  Dipole Moment: [D]
     X:     0.0804      Y:    -0.1250      Z:     0.0343     Total:     0.1525

*** Psi4 exiting successfully. Buy a developer a beer!
