                               Psi4 1.4a3.dev225

  ==> Input File <==

--------------------------------------------------------------------------
#psi4
#
memory 32 gb

molecule  {
0 1
  O       -0.0000180     1.3809610     0.3010860
  C        1.1263497     0.7534995    -0.1851335
  C        1.1672390    -0.7307030     0.2027780
  O        0.0000190    -1.3809610    -0.3010890
  C       -1.1672200    -0.7307320     0.2027770
  C       -1.1672400     0.7307030    -0.2027760
  H        1.1992140     0.8075630    -1.3002910
  H        2.0246220     1.2638070     0.2183330
  H        2.0246560    -1.2637540    -0.2183310
  H        1.1992320    -0.8075370     1.3002920
  H       -1.1992100    -0.8075640     1.3002920
  H       -2.0246220    -1.2638090    -0.2183310
  H       -2.0246550     1.2637560     0.2183340
  H       -1.1992350     0.8075320    -1.3002910
units angstrom
no_reorient  #important for SAPT in psi4, default
symmetry c1  #important for SAPT in psi4, default
}

set PROPERTIES_ORIGIN ["COM"]
properties('MP2/aug-cc-pvtz', properties = ['dipole'])
--------------------------------------------------------------------------

    Molecular point group: c1
  Charge       = 0
  Multiplicity = 1
  Basis Set: AUG-CC-PVTZ
    Blend: AUG-CC-PVTZ
  Basis Set: (AUG-CC-PVTZ AUX)
    Blend: AUG-CC-PVTZ-JKFIT

    Orbital Energies [Eh]
    ---------------------

    Doubly Occupied:

       1A    -20.565665     2A    -20.560367     3A    -11.281029
       4A    -11.279171     5A    -11.278540     6A    -11.276698
       7A     -1.407480     8A     -1.361661     9A     -1.045388
      10A     -0.949357    11A     -0.891638    12A     -0.797778
      13A     -0.700483    14A     -0.653684    15A     -0.649659
      16A     -0.641569    17A     -0.635249    18A     -0.561019
      19A     -0.551297    20A     -0.513781    21A     -0.507721
      22A     -0.461456    23A     -0.458847    24A     -0.394926

  @DF-RHF Final Energy:  -305.93909353199962

   => Energetics <=

    Nuclear Repulsion Energy =            264.8822520454267533
    One-Electron Energy =                -942.7937606310966885
    Two-Electron Energy =                 371.9724150536703178
    Total Energy =                       -305.9390935319996174
  Basis Set: (AUG-CC-PVTZ AUX)
    Blend: AUG-CC-PVTZ-RI
    Molecular point group: c1

    Geometry (in Angstrom), charge = 0, multiplicity = 1:

       Center              X                  Y                   Z               Mass
    ------------   -----------------  -----------------  -----------------  -----------------
         O            0.005551835974     1.377858258206     0.298681693029    15.994914619570
         C            1.131919535974     0.750396758206    -0.187537806971    12.000000000000
         C            1.172808835974    -0.733805741794     0.200373693029    12.000000000000
         O            0.005588835974    -1.384063741794    -0.303493306971    15.994914619570
         C           -1.161650164026    -0.733834741794     0.200372693029    12.000000000000
         C           -1.161670164026     0.727600258206    -0.205180306971    12.000000000000
         H            1.204783835974     0.804460258206    -1.302695306971     1.007825032230
         H            2.030191835974     1.260704258206     0.215928693029     1.007825032230
         H            2.030225835974    -1.266856741794    -0.220735306971     1.007825032230
         H            1.204801835974    -0.810639741794     1.297887693029     1.007825032230
         H           -1.193640164026    -0.810666741794     1.297887693029     1.007825032230
         H           -2.019052164026    -1.266911741794    -0.220735306971     1.007825032230
         H           -2.019085164026     1.260653258206     0.215929693029     1.007825032230
         H           -1.193665164026     0.804429258206    -1.302695306971     1.007825032230

  Basis Set: AUG-CC-PVTZ
    Blend: AUG-CC-PVTZ
  Basis Set: (AUG-CC-PVTZ AUX)
    Blend: AUG-CC-PVTZ-JKFIT
	 Reference Energy          =    -305.9390935319996174 [Eh]
	 Singles Energy            =      -0.0000000000000000 [Eh]
	 Same-Spin Energy          =      -0.2982231743270330 [Eh]
	 Opposite-Spin Energy      =      -0.9798238466551699 [Eh]
	 Correlation Energy        =      -1.2780470209822028 [Eh]
	 Total Energy              =    -307.2171405529818458 [Eh]

	 ================> DF-SCS-MP2 Energies <==================
	-----------------------------------------------------------
	 SCS Same-Spin Scale       =       0.3333333333333333 [-]
	 SCS Opposite-Spin Scale   =       1.2000000000000000 [-]
	 SCS Same-Spin Energy      =      -0.0994077247756777 [Eh]
	 SCS Opposite-Spin Energy  =      -1.1757886159862039 [Eh]
	 SCS Correlation Energy    =      -1.2751963407618816 [Eh]
	 SCS Total Energy          =    -307.2142898727615261 [Eh]
	-----------------------------------------------------------

  Dipole Moment: [D]
     X:    -0.1638      Y:     0.0520      Z:     0.0534     Total:     0.1800

*** Psi4 exiting successfully. Buy a developer a beer!
