                               Psi4 1.3.2 release

  ==> Input File <==

--------------------------------------------------------------------------
#psi4
#
memory 32 gb

molecule  {
0 1
  O        0.0000100    -1.3813680    -0.3010540
  C        1.2216496    -0.7967442     0.1516071
  C        1.1670830     0.7308060    -0.2026730
  O       -0.0000090     1.3813690     0.3010510
  C       -1.1670960     0.7307910    -0.2026650
  C       -1.1670820    -0.7308090     0.2026660
  H        1.1989120    -0.8085610     1.3002060
  H        2.0246160    -1.2633060    -0.2188690
  H        2.0245970     1.2633380     0.2188660
  H        1.1989010     0.8085710    -1.3002050
  H       -1.1989250     0.8085650    -1.3001950
  H       -2.0246200     1.2632970     0.2188880
  H       -2.0246020    -1.2633280    -0.2188810
  H       -1.1989070    -0.8085810     1.3001960
units angstrom
no_reorient  #important for SAPT in psi4, default
symmetry c1  #important for SAPT in psi4, default
}

set PROPERTIES_ORIGIN ["COM"]
properties('MP2/aug-cc-pvtz', properties = ['dipole'])
--------------------------------------------------------------------------

    Molecular point group: c1
  Charge       = 0
  Multiplicity = 1
  Basis Set: AUG-CC-PVTZ
    Blend: AUG-CC-PVTZ
  Basis Set: (AUG-CC-PVTZ AUX)
    Blend: AUG-CC-PVTZ-JKFIT

    Orbital Energies [Eh]
    ---------------------

    Doubly Occupied:

       1A    -20.563676     2A    -20.558939     3A    -11.279717
       4A    -11.279701     5A    -11.279038     6A    -11.278033
       7A     -1.393604     8A     -1.353388     9A     -1.044086
      10A     -0.947691    11A     -0.893388    12A     -0.796555
      13A     -0.700039    14A     -0.661017    15A     -0.643437
      16A     -0.637388    17A     -0.628736    18A     -0.562352
      19A     -0.550759    20A     -0.521124    21A     -0.502919
      22A     -0.460450    23A     -0.455735    24A     -0.391122

  @DF-RHF Final Energy:  -305.92853819739105

   => Energetics <=

    Nuclear Repulsion Energy =            263.1382816801577178
    One-Electron Energy =                -939.3678535018456159
    Two-Electron Energy =                 370.3010336242967924
    Total Energy =                       -305.9285381973910489
  Basis Set: (AUG-CC-PVTZ AUX)
    Blend: AUG-CC-PVTZ-RI
    Molecular point group: c1

    Geometry (in Angstrom), charge = 0, multiplicity = 1:

       Center              X                  Y                   Z               Mass
    ------------   -----------------  -----------------  -----------------  -----------------
         O           -0.007424695210    -1.372379452509    -0.294094274513    15.994914619570
         C            1.214214904790    -0.787755652509     0.158566825487    12.000000000000
         C            1.159648304790     0.739794547491    -0.195713274513    12.000000000000
         O           -0.007443695210     1.390357547491     0.308010725487    15.994914619570
         C           -1.174530695210     0.739779547491    -0.195705274513    12.000000000000
         C           -1.174516695210    -0.721820452509     0.209625725487    12.000000000000
         H            1.191477304790    -0.799572452509     1.307165725487     1.007825032230
         H            2.017181304790    -1.254317452509    -0.211909274513     1.007825032230
         H            2.017162304790     1.272326547491     0.225825725487     1.007825032230
         H            1.191466304790     0.817559547491    -1.293245274513     1.007825032230
         H           -1.206359695210     0.817553547491    -1.293235274513     1.007825032230
         H           -2.032054695210     1.272285547491     0.225847725487     1.007825032230
         H           -2.032036695210    -1.254339452509    -0.211921274513     1.007825032230
         H           -1.206341695210    -0.799592452509     1.307155725487     1.007825032230

  Basis Set: AUG-CC-PVTZ
    Blend: AUG-CC-PVTZ
  Basis Set: (AUG-CC-PVTZ AUX)
    Blend: AUG-CC-PVTZ-JKFIT
	 Reference Energy          =    -305.9285381973910489 [Eh]
	 Singles Energy            =      -0.0000000000000000 [Eh]
	 Same-Spin Energy          =      -0.2979575297564681 [Eh]
	 Opposite-Spin Energy      =      -0.9804335347429516 [Eh]
	 Correlation Energy        =      -1.2783910644994196 [Eh]
	 Total Energy              =    -307.2069292618904797 [Eh]

	 ================> DF-SCS-MP2 Energies <==================
	-----------------------------------------------------------
	 SCS Same-Spin Scale       =       0.3333333333333333 [-]
	 SCS Opposite-Spin Scale   =       1.2000000000000000 [-]
	 SCS Same-Spin Energy      =      -0.0993191765854893 [Eh]
	 SCS Opposite-Spin Energy  =      -1.1765202416915419 [Eh]
	 SCS Correlation Energy    =      -1.2758394182770312 [Eh]
	 SCS Total Energy          =    -307.2043776156680792 [Eh]
	-----------------------------------------------------------

  Dipole Moment: [D]
     X:     0.0171      Y:    -0.0617      Z:    -0.0747     Total:     0.0984

*** Psi4 exiting successfully. Buy a developer a beer!
