                               Psi4 1.4a3.dev225

  ==> Input File <==

--------------------------------------------------------------------------
#psi4
#
memory 32 gb

molecule  {
0 1
  O       -0.0000180     1.3809610     0.3010860
  C        1.1672200     0.7307320    -0.2027760
  C        1.1672390    -0.7307030     0.2027780
  O        0.0000190    -1.3809610    -0.3010890
  C       -1.1672200    -0.7307320     0.2027770
  C       -1.1672400     0.7307030    -0.2027760
  H        1.2006674     0.8110532    -1.3501479
  H        2.0246220     1.2638070     0.2183330
  H        2.0246560    -1.2637540    -0.2183310
  H        1.1992320    -0.8075370     1.3002920
  H       -1.1992100    -0.8075640     1.3002920
  H       -2.0246220    -1.2638090    -0.2183310
  H       -2.0246550     1.2637560     0.2183340
  H       -1.1992350     0.8075320    -1.3002910
units angstrom
no_reorient  #important for SAPT in psi4, default
symmetry c1  #important for SAPT in psi4, default
}

set PROPERTIES_ORIGIN ["COM"]
properties('MP2/aug-cc-pvtz', properties = ['dipole'])
--------------------------------------------------------------------------

    Molecular point group: c1
  Charge       = 0
  Multiplicity = 1
  Basis Set: AUG-CC-PVTZ
    Blend: AUG-CC-PVTZ
  Basis Set: (AUG-CC-PVTZ AUX)
    Blend: AUG-CC-PVTZ-JKFIT

    Orbital Energies [Eh]
    ---------------------

    Doubly Occupied:

       1A    -20.562553     2A    -20.561518     3A    -11.284030
       4A    -11.278652     5A    -11.278532     6A    -11.277877
       7A     -1.396838     8A     -1.354724     9A     -1.045477
      10A     -0.951213    11A     -0.887356    12A     -0.795495
      13A     -0.697487    14A     -0.650528    15A     -0.646673
      16A     -0.636928    17A     -0.631451    18A     -0.555197
      19A     -0.554475    20A     -0.512059    21A     -0.507980
      22A     -0.460948    23A     -0.458525    24A     -0.398811

  @DF-RHF Final Energy:  -305.93820049874398

   => Energetics <=

    Nuclear Repulsion Energy =            264.0239530401137813
    One-Electron Energy =                -941.1536493101302767
    Two-Electron Energy =                 371.1914957712724572
    Total Energy =                       -305.9382004987439814
  Basis Set: (AUG-CC-PVTZ AUX)
    Blend: AUG-CC-PVTZ-RI
    Molecular point group: c1

    Geometry (in Angstrom), charge = 0, multiplicity = 1:

       Center              X                  Y                   Z               Mass
    ------------   -----------------  -----------------  -----------------  -----------------
         O           -0.000034703497     1.380921120760     0.301656705000    15.994914619570
         C            1.167203296503     0.730692120760    -0.202205295000    12.000000000000
         C            1.167222296503    -0.730742879240     0.203348705000    12.000000000000
         O            0.000002296503    -1.381000879240    -0.300518295000    15.994914619570
         C           -1.167236703497    -0.730771879240     0.203347705000    12.000000000000
         C           -1.167256703497     0.730663120760    -0.202205295000    12.000000000000
         H            1.200650696503     0.811013320760    -1.349577195000     1.007825032230
         H            2.024605296503     1.263767120760     0.218903705000     1.007825032230
         H            2.024639296503    -1.263793879240    -0.217760295000     1.007825032230
         H            1.199215296503    -0.807576879240     1.300862705000     1.007825032230
         H           -1.199226703497    -0.807603879240     1.300862705000     1.007825032230
         H           -2.024638703497    -1.263848879240    -0.217760295000     1.007825032230
         H           -2.024671703497     1.263716120760     0.218904705000     1.007825032230
         H           -1.199251703497     0.807492120760    -1.299720295000     1.007825032230

  Basis Set: AUG-CC-PVTZ
    Blend: AUG-CC-PVTZ
  Basis Set: (AUG-CC-PVTZ AUX)
    Blend: AUG-CC-PVTZ-JKFIT
	 Reference Energy          =    -305.9382004987439814 [Eh]
	 Singles Energy            =      -0.0000000000000000 [Eh]
	 Same-Spin Energy          =      -0.2983493909056525 [Eh]
	 Opposite-Spin Energy      =      -0.9808979912305891 [Eh]
	 Correlation Energy        =      -1.2792473821362416 [Eh]
	 Total Energy              =    -307.2174478808802291 [Eh]

	 ================> DF-SCS-MP2 Energies <==================
	-----------------------------------------------------------
	 SCS Same-Spin Scale       =       0.3333333333333333 [-]
	 SCS Opposite-Spin Scale   =       1.2000000000000000 [-]
	 SCS Same-Spin Energy      =      -0.0994497969685508 [Eh]
	 SCS Opposite-Spin Energy  =      -1.1770775894767069 [Eh]
	 SCS Correlation Energy    =      -1.2765273864452578 [Eh]
	 SCS Total Energy          =    -307.2147278851892338 [Eh]
	-----------------------------------------------------------

  Dipole Moment: [D]
     X:    -0.0180      Y:    -0.0065      Z:     0.0417     Total:     0.0459

*** Psi4 exiting successfully. Buy a developer a beer!
