                               Psi4 1.3.2 release

  ==> Input File <==

--------------------------------------------------------------------------
#psi4
#
memory 32 gb

molecule  {
0 1
  O        0.0000100    -1.3813680    -0.3010540
  C        1.0335389    -0.7456139     0.1181307
  C        1.1670830     0.7308060    -0.2026730
  O       -0.0000090     1.3813690     0.3010510
  C       -1.1670960     0.7307910    -0.2026650
  C       -1.1670820    -0.7308090     0.2026660
  H        1.1989120    -0.8085610     1.3002060
  H        2.0246160    -1.2633060    -0.2188690
  H        2.0245970     1.2633380     0.2188660
  H        1.1989010     0.8085710    -1.3002050
  H       -1.1989250     0.8085650    -1.3001950
  H       -2.0246200     1.2632970     0.2188880
  H       -2.0246020    -1.2633280    -0.2188810
  H       -1.1989070    -0.8085810     1.3001960
units angstrom
no_reorient  #important for SAPT in psi4, default
symmetry c1  #important for SAPT in psi4, default
}

set PROPERTIES_ORIGIN ["COM"]
properties('MP2/aug-cc-pvtz', properties = ['dipole'])
--------------------------------------------------------------------------

    Molecular point group: c1
  Charge       = 0
  Multiplicity = 1
  Basis Set: AUG-CC-PVTZ
    Blend: AUG-CC-PVTZ
  Basis Set: (AUG-CC-PVTZ AUX)
    Blend: AUG-CC-PVTZ-JKFIT

    Orbital Energies [Eh]
    ---------------------

    Doubly Occupied:

       1A    -20.576044     2A    -20.559464     3A    -11.287519
       4A    -11.284542     5A    -11.283092     6A    -11.275383
       7A     -1.446382     8A     -1.370195     9A     -1.050210
      10A     -0.953146    11A     -0.898970    12A     -0.794630
      13A     -0.713013    14A     -0.669502    15A     -0.657958
      16A     -0.643594    17A     -0.638339    18A     -0.577515
      19A     -0.552653    20A     -0.514321    21A     -0.505698
      22A     -0.462979    23A     -0.436084    24A     -0.392050

  @DF-RHF Final Energy:  -305.91525361373095

   => Energetics <=

    Nuclear Repulsion Energy =            266.9408257005434848
    One-Electron Energy =                -946.6255924728258151
    Two-Electron Energy =                 373.7695131585513195
    Total Energy =                       -305.9152536137309539
  Basis Set: (AUG-CC-PVTZ AUX)
    Blend: AUG-CC-PVTZ-RI
    Molecular point group: c1

    Geometry (in Angstrom), charge = 0, multiplicity = 1:

       Center              X                  Y                   Z               Mass
    ------------   -----------------  -----------------  -----------------  -----------------
         O            0.018211490105    -1.379347614586    -0.289532029015    15.994914619570
         C            1.051740390105    -0.743593514586     0.129652670985    12.000000000000
         C            1.185284490105     0.732826385414    -0.191151029015    12.000000000000
         O            0.018192490105     1.383389385414     0.312572970985    15.994914619570
         C           -1.148894509895     0.732811385414    -0.191143029015    12.000000000000
         C           -1.148880509895    -0.728788614586     0.214187970985    12.000000000000
         H            1.217113490105    -0.806540614586     1.311727970985     1.007825032230
         H            2.042817490105    -1.261285614586    -0.207347029015     1.007825032230
         H            2.042798490105     1.265358385414     0.230387970985     1.007825032230
         H            1.217102490105     0.810591385414    -1.288683029015     1.007825032230
         H           -1.180723509895     0.810585385414    -1.288673029015     1.007825032230
         H           -2.006418509895     1.265317385414     0.230409970985     1.007825032230
         H           -2.006400509895    -1.261307614586    -0.207359029015     1.007825032230
         H           -1.180705509895    -0.806560614586     1.311717970985     1.007825032230

  Basis Set: AUG-CC-PVTZ
    Blend: AUG-CC-PVTZ
  Basis Set: (AUG-CC-PVTZ AUX)
    Blend: AUG-CC-PVTZ-JKFIT
	 Reference Energy          =    -305.9152536137309539 [Eh]
	 Singles Energy            =      -0.0000000000000000 [Eh]
	 Same-Spin Energy          =      -0.2991446154078139 [Eh]
	 Opposite-Spin Energy      =      -0.9800903871323513 [Eh]
	 Correlation Energy        =      -1.2792350025401653 [Eh]
	 Total Energy              =    -307.1944886162711441 [Eh]

	 ================> DF-SCS-MP2 Energies <==================
	-----------------------------------------------------------
	 SCS Same-Spin Scale       =       0.3333333333333333 [-]
	 SCS Opposite-Spin Scale   =       1.2000000000000000 [-]
	 SCS Same-Spin Energy      =      -0.0997148718026046 [Eh]
	 SCS Opposite-Spin Energy  =      -1.1761084645588216 [Eh]
	 SCS Correlation Energy    =      -1.2758233363614262 [Eh]
	 SCS Total Energy          =    -307.1910769500923948 [Eh]
	-----------------------------------------------------------

  Dipole Moment: [D]
     X:    -0.5610      Y:    -0.0827      Z:    -0.2582     Total:     0.6231

*** Psi4 exiting successfully. Buy a developer a beer!
