                               Psi4 1.3.2 release

  ==> Input File <==

--------------------------------------------------------------------------
#psi4
#
memory 32 gb

molecule  {
0 1
  O        0.0000100    -1.3813680    -0.3010540
  C        1.1670970    -0.7307880     0.2026760
  C        1.1670830     0.7308060    -0.2026730
  O       -0.0000090     1.3813690     0.3010510
  C       -1.1670960     0.7307910    -0.2026650
  C       -1.1670820    -0.7308090     0.2026660
  H        1.2311452    -0.8292435     1.2971335
  H        2.0246160    -1.2633060    -0.2188690
  H        2.0245970     1.2633380     0.2188660
  H        1.1989010     0.8085710    -1.3002050
  H       -1.1989250     0.8085650    -1.3001950
  H       -2.0246200     1.2632970     0.2188880
  H       -2.0246020    -1.2633280    -0.2188810
  H       -1.1989070    -0.8085810     1.3001960
units angstrom
no_reorient  #important for SAPT in psi4, default
symmetry c1  #important for SAPT in psi4, default
}

set PROPERTIES_ORIGIN ["COM"]
properties('MP2/aug-cc-pvtz', properties = ['dipole'])
--------------------------------------------------------------------------

    Molecular point group: c1
  Charge       = 0
  Multiplicity = 1
  Basis Set: AUG-CC-PVTZ
    Blend: AUG-CC-PVTZ
  Basis Set: (AUG-CC-PVTZ AUX)
    Blend: AUG-CC-PVTZ-JKFIT

    Orbital Energies [Eh]
    ---------------------

    Doubly Occupied:

       1A    -20.561731     2A    -20.561257     3A    -11.278499
       4A    -11.278319     5A    -11.277706     6A    -11.277664
       7A     -1.396422     8A     -1.354325     9A     -1.046035
      10A     -0.951874    11A     -0.888404    12A     -0.798519
      13A     -0.697281    14A     -0.650480    15A     -0.648839
      16A     -0.636704    17A     -0.633029    18A     -0.554627
      19A     -0.554116    20A     -0.512327    21A     -0.510695
      22A     -0.461119    23A     -0.458976    24A     -0.398945

  @DF-RHF Final Energy:  -305.94032739728135

   => Energetics <=

    Nuclear Repulsion Energy =            264.1850022172898775
    One-Electron Energy =                -941.4748783628111823
    Two-Electron Energy =                 371.3495487482398971
    Total Energy =                       -305.9403273972813508
  Basis Set: (AUG-CC-PVTZ AUX)
    Blend: AUG-CC-PVTZ-RI
    Molecular point group: c1

    Geometry (in Angstrom), charge = 0, multiplicity = 1:

       Center              X                  Y                   Z               Mass
    ------------   -----------------  -----------------  -----------------  -----------------
         O           -0.000359066496    -1.381131397949    -0.301018901818    15.994914619570
         C            1.166727933504    -0.730551397949     0.202711098182    12.000000000000
         C            1.166713933504     0.731042602051    -0.202637901818    12.000000000000
         O           -0.000378066496     1.381605602051     0.301086098182    15.994914619570
         C           -1.167465066496     0.731027602051    -0.202629901818    12.000000000000
         C           -1.167451066496    -0.730572397949     0.202701098182    12.000000000000
         H            1.230776133504    -0.829006897949     1.297168598182     1.007825032230
         H            2.024246933504    -1.263069397949    -0.218833901818     1.007825032230
         H            2.024227933504     1.263574602051     0.218901098182     1.007825032230
         H            1.198531933504     0.808807602051    -1.300169901818     1.007825032230
         H           -1.199294066496     0.808801602051    -1.300159901818     1.007825032230
         H           -2.024989066496     1.263533602051     0.218923098182     1.007825032230
         H           -2.024971066496    -1.263091397949    -0.218845901818     1.007825032230
         H           -1.199276066496    -0.808344397949     1.300231098182     1.007825032230

  Basis Set: AUG-CC-PVTZ
    Blend: AUG-CC-PVTZ
  Basis Set: (AUG-CC-PVTZ AUX)
    Blend: AUG-CC-PVTZ-JKFIT
	 Reference Energy          =    -305.9403273972813508 [Eh]
	 Singles Energy            =      -0.0000000000000000 [Eh]
	 Same-Spin Energy          =      -0.2982199389721424 [Eh]
	 Opposite-Spin Energy      =      -0.9804237421002899 [Eh]
	 Correlation Energy        =      -1.2786436810724324 [Eh]
	 Total Energy              =    -307.2189710783537748 [Eh]

	 ================> DF-SCS-MP2 Energies <==================
	-----------------------------------------------------------
	 SCS Same-Spin Scale       =       0.3333333333333333 [-]
	 SCS Opposite-Spin Scale   =       1.2000000000000000 [-]
	 SCS Same-Spin Energy      =      -0.0994066463240475 [Eh]
	 SCS Opposite-Spin Energy  =      -1.1765084905203478 [Eh]
	 SCS Correlation Energy    =      -1.2759151368443953 [Eh]
	 SCS Total Energy          =    -307.2162425341257403 [Eh]
	-----------------------------------------------------------

  Dipole Moment: [D]
     X:     0.0057      Y:    -0.0060      Z:     0.0056     Total:     0.0100

*** Psi4 exiting successfully. Buy a developer a beer!
