                               Psi4 1.3.2 release

  ==> Input File <==

--------------------------------------------------------------------------
#psi4
#
memory 32 gb

molecule  {
0 1
  O        0.0000100    -1.3813680    -0.3010540
  C        1.1670970    -0.7307880     0.2026760
  C        1.1670830     0.7308060    -0.2026730
  O       -0.0000090     1.3813690     0.3010510
  C       -1.1670960     0.7307910    -0.2026650
  C       -1.1670820    -0.7308090     0.2026660
  H        1.2953385    -0.8702236     1.2869937
  H        2.0246160    -1.2633060    -0.2188690
  H        2.0245970     1.2633380     0.2188660
  H        1.1989010     0.8085710    -1.3002050
  H       -1.1989250     0.8085650    -1.3001950
  H       -2.0246200     1.2632970     0.2188880
  H       -2.0246020    -1.2633280    -0.2188810
  H       -1.1989070    -0.8085810     1.3001960
units angstrom
no_reorient  #important for SAPT in psi4, default
symmetry c1  #important for SAPT in psi4, default
}

set PROPERTIES_ORIGIN ["COM"]
properties('MP2/aug-cc-pvtz', properties = ['dipole'])
--------------------------------------------------------------------------

    Molecular point group: c1
  Charge       = 0
  Multiplicity = 1
  Basis Set: AUG-CC-PVTZ
    Blend: AUG-CC-PVTZ
  Basis Set: (AUG-CC-PVTZ AUX)
    Blend: AUG-CC-PVTZ-JKFIT

    Orbital Energies [Eh]
    ---------------------

    Doubly Occupied:

       1A    -20.562505     2A    -20.561098     3A    -11.279051
       4A    -11.278286     5A    -11.277632     6A    -11.277526
       7A     -1.396378     8A     -1.354390     9A     -1.045971
      10A     -0.951803    11A     -0.888983    12A     -0.798666
      13A     -0.697960    14A     -0.651763    15A     -0.646890
      16A     -0.636893    17A     -0.632410    18A     -0.555115
      19A     -0.554060    20A     -0.513759    21A     -0.508657
      22A     -0.461189    23A     -0.457387    24A     -0.399698

  @DF-RHF Final Energy:  -305.93918872829630

   => Energetics <=

    Nuclear Repulsion Energy =            264.0658845362166858
    One-Electron Energy =                -941.2340014199039615
    Two-Electron Energy =                 371.2289281553909746
    Total Energy =                       -305.9391887282963012
  Basis Set: (AUG-CC-PVTZ AUX)
    Blend: AUG-CC-PVTZ-RI
    Molecular point group: c1

    Geometry (in Angstrom), charge = 0, multiplicity = 1:

       Center              X                  Y                   Z               Mass
    ------------   -----------------  -----------------  -----------------  -----------------
         O           -0.001093806185    -1.380662350464    -0.300902844324    15.994914619570
         C            1.165993193815    -0.730082350464     0.202827155676    12.000000000000
         C            1.165979193815     0.731511649536    -0.202521844324    12.000000000000
         O           -0.001112806185     1.382074649536     0.301202155676    15.994914619570
         C           -1.168199806185     0.731496649536    -0.202513844324    12.000000000000
         C           -1.168185806185    -0.730103350464     0.202817155676    12.000000000000
         H            1.294234693815    -0.869517950464     1.287144855676     1.007825032230
         H            2.023512193815    -1.262600350464    -0.218717844324     1.007825032230
         H            2.023493193815     1.264043649536     0.219017155676     1.007825032230
         H            1.197797193815     0.809276649536    -1.300053844324     1.007825032230
         H           -1.200028806185     0.809270649536    -1.300043844324     1.007825032230
         H           -2.025723806185     1.264002649536     0.219039155676     1.007825032230
         H           -2.025705806185    -1.262622350464    -0.218729844324     1.007825032230
         H           -1.200010806185    -0.807875350464     1.300347155676     1.007825032230

  Basis Set: AUG-CC-PVTZ
    Blend: AUG-CC-PVTZ
  Basis Set: (AUG-CC-PVTZ AUX)
    Blend: AUG-CC-PVTZ-JKFIT
	 Reference Energy          =    -305.9391887282963012 [Eh]
	 Singles Energy            =      -0.0000000000000000 [Eh]
	 Same-Spin Energy          =      -0.2981951886973025 [Eh]
	 Opposite-Spin Energy      =      -0.9804023126683666 [Eh]
	 Correlation Energy        =      -1.2785975013656692 [Eh]
	 Total Energy              =    -307.2177862296619537 [Eh]

	 ================> DF-SCS-MP2 Energies <==================
	-----------------------------------------------------------
	 SCS Same-Spin Scale       =       0.3333333333333333 [-]
	 SCS Opposite-Spin Scale   =       1.2000000000000000 [-]
	 SCS Same-Spin Energy      =      -0.0993983962324342 [Eh]
	 SCS Opposite-Spin Energy  =      -1.1764827752020399 [Eh]
	 SCS Correlation Energy    =      -1.2758811714344740 [Eh]
	 SCS Total Energy          =    -307.2150698997307927 [Eh]
	-----------------------------------------------------------

  Dipole Moment: [D]
     X:     0.0181      Y:    -0.0190      Z:     0.0143     Total:     0.0299

*** Psi4 exiting successfully. Buy a developer a beer!
