                               Psi4 1.4a3.dev225

  ==> Input File <==

--------------------------------------------------------------------------
#psi4
#
memory 32 gb

molecule  {
0 1
  O       -0.0000180     1.3809610     0.3010860
  C        1.1672200     0.7307320    -0.2027760
  C        1.1672390    -0.7307030     0.2027780
  O        0.0000190    -1.3809610    -0.3010890
  C       -1.1672200    -0.7307320     0.2027770
  C       -1.1672400     0.7307030    -0.2027760
  H        1.1977606     0.8040728    -1.2504341
  H        2.0246220     1.2638070     0.2183330
  H        2.0246560    -1.2637540    -0.2183310
  H        1.1992320    -0.8075370     1.3002920
  H       -1.1992100    -0.8075640     1.3002920
  H       -2.0246220    -1.2638090    -0.2183310
  H       -2.0246550     1.2637560     0.2183340
  H       -1.1992350     0.8075320    -1.3002910
units angstrom
no_reorient  #important for SAPT in psi4, default
symmetry c1  #important for SAPT in psi4, default
}

set PROPERTIES_ORIGIN ["COM"]
properties('MP2/aug-cc-pvtz', properties = ['dipole'])
--------------------------------------------------------------------------

    Molecular point group: c1
  Charge       = 0
  Multiplicity = 1
  Basis Set: AUG-CC-PVTZ
    Blend: AUG-CC-PVTZ
  Basis Set: (AUG-CC-PVTZ AUX)
    Blend: AUG-CC-PVTZ-JKFIT

    Orbital Energies [Eh]
    ---------------------

    Doubly Occupied:

       1A    -20.561242     2A    -20.560296     3A    -11.278130
       4A    -11.277475     5A    -11.277403     6A    -11.271786
       7A     -1.396199     8A     -1.353892     9A     -1.047109
      10A     -0.952995    11A     -0.889188    12A     -0.802000
      13A     -0.696749    14A     -0.653654    15A     -0.649836
      16A     -0.636473    17A     -0.634012    18A     -0.554327
      19A     -0.553537    20A     -0.514710    21A     -0.511253
      22A     -0.462011    23A     -0.459784    24A     -0.398259

  @DF-RHF Final Energy:  -305.93972052991671

   => Energetics <=

    Nuclear Repulsion Energy =            264.5038571566168457
    One-Electron Energy =                -942.1025140026014242
    Two-Electron Energy =                 371.6589363160678658
    Total Energy =                       -305.9397205299167126
  Basis Set: (AUG-CC-PVTZ AUX)
    Blend: AUG-CC-PVTZ-RI
    Molecular point group: c1

    Geometry (in Angstrom), charge = 0, multiplicity = 1:

       Center              X                  Y                   Z               Mass
    ------------   -----------------  -----------------  -----------------  -----------------
         O           -0.000001433026     1.381001016589     0.300515406978    15.994914619570
         C            1.167236566974     0.730772016589    -0.203346593022    12.000000000000
         C            1.167255566974    -0.730662983411     0.202207406978    12.000000000000
         O            0.000035566974    -1.380920983411    -0.301659593022    15.994914619570
         C           -1.167203433026    -0.730691983411     0.202206406978    12.000000000000
         C           -1.167223433026     0.730743016589    -0.203346593022    12.000000000000
         H            1.197777166974     0.804112816589    -1.251004693022     1.007825032230
         H            2.024638566974     1.263847016589     0.217762406978     1.007825032230
         H            2.024672566974    -1.263713983411    -0.218901593022     1.007825032230
         H            1.199248566974    -0.807496983411     1.299721406978     1.007825032230
         H           -1.199193433026    -0.807523983411     1.299721406978     1.007825032230
         H           -2.024605433026    -1.263768983411    -0.218901593022     1.007825032230
         H           -2.024638433026     1.263796016589     0.217763406978     1.007825032230
         H           -1.199218433026     0.807572016589    -1.300861593022     1.007825032230

  Basis Set: AUG-CC-PVTZ
    Blend: AUG-CC-PVTZ
  Basis Set: (AUG-CC-PVTZ AUX)
    Blend: AUG-CC-PVTZ-JKFIT
	 Reference Energy          =    -305.9397205299167126 [Eh]
	 Singles Energy            =      -0.0000000000000000 [Eh]
	 Same-Spin Energy          =      -0.2981799379725885 [Eh]
	 Opposite-Spin Energy      =      -0.9801136268470449 [Eh]
	 Correlation Energy        =      -1.2782935648196334 [Eh]
	 Total Energy              =    -307.2180140947363611 [Eh]

	 ================> DF-SCS-MP2 Energies <==================
	-----------------------------------------------------------
	 SCS Same-Spin Scale       =       0.3333333333333333 [-]
	 SCS Opposite-Spin Scale   =       1.2000000000000000 [-]
	 SCS Same-Spin Energy      =      -0.0993933126575295 [Eh]
	 SCS Opposite-Spin Energy  =      -1.1761363522164539 [Eh]
	 SCS Correlation Energy    =      -1.2755296648739833 [Eh]
	 SCS Total Energy          =    -307.2152501947907126 [Eh]
	-----------------------------------------------------------

  Dipole Moment: [D]
     X:     0.0161      Y:     0.0054      Z:    -0.0362     Total:     0.0400

*** Psi4 exiting successfully. Buy a developer a beer!
