                               Psi4 1.3.2 release

  ==> Input File <==

--------------------------------------------------------------------------
#psi4
#
memory 32 gb

molecule  {
0 1
  O        0.0000100    -1.3813680    -0.3010540
  C        1.1670970    -0.7307880     0.2026760
  C        1.1670830     0.7308060    -0.2026730
  O       -0.0000090     1.3813690     0.3010510
  C       -1.1670960     0.7307910    -0.2026650
  C       -1.1670820    -0.7308090     0.2026660
  H        1.2150359    -0.8189157     1.2988367
  H        2.0246160    -1.2633060    -0.2188690
  H        2.0245970     1.2633380     0.2188660
  H        1.1989010     0.8085710    -1.3002050
  H       -1.1989250     0.8085650    -1.3001950
  H       -2.0246200     1.2632970     0.2188880
  H       -2.0246020    -1.2633280    -0.2188810
  H       -1.1989070    -0.8085810     1.3001960
units angstrom
no_reorient  #important for SAPT in psi4, default
symmetry c1  #important for SAPT in psi4, default
}

set PROPERTIES_ORIGIN ["COM"]
properties('MP2/aug-cc-pvtz', properties = ['dipole'])
--------------------------------------------------------------------------

    Molecular point group: c1
  Charge       = 0
  Multiplicity = 1
  Basis Set: AUG-CC-PVTZ
    Blend: AUG-CC-PVTZ
  Basis Set: (AUG-CC-PVTZ AUX)
    Blend: AUG-CC-PVTZ-JKFIT

    Orbital Energies [Eh]
    ---------------------

    Doubly Occupied:

       1A    -20.561537     2A    -20.561300     3A    -11.278405
       4A    -11.278329     5A    -11.277713     6A    -11.277674
       7A     -1.396440     8A     -1.354312     9A     -1.046061
      10A     -0.951903    11A     -0.888270    12A     -0.798501
      13A     -0.697157    14A     -0.650221    15A     -0.649300
      16A     -0.636653    17A     -0.633142    18A     -0.554596
      19A     -0.554093    20A     -0.511938    21A     -0.511148
      22A     -0.461106    23A     -0.459289    24A     -0.398754

  @DF-RHF Final Energy:  -305.94042054534634

   => Energetics <=

    Nuclear Repulsion Energy =            264.2164691739852174
    One-Electron Energy =                -941.5381026470355437
    Two-Electron Energy =                 371.3812129277039276
    Total Energy =                       -305.9404205453463419
  Basis Set: (AUG-CC-PVTZ AUX)
    Blend: AUG-CC-PVTZ-RI
    Molecular point group: c1

    Geometry (in Angstrom), charge = 0, multiplicity = 1:

       Center              X                  Y                   Z               Mass
    ------------   -----------------  -----------------  -----------------  -----------------
         O           -0.000174683670    -1.381249607241    -0.301038396199    15.994914619570
         C            1.166912316330    -0.730669607241     0.202691603801    12.000000000000
         C            1.166898316330     0.730924392759    -0.202657396199    12.000000000000
         O           -0.000193683670     1.381487392759     0.301066603801    15.994914619570
         C           -1.167280683670     0.730909392759    -0.202649396199    12.000000000000
         C           -1.167266683670    -0.730690607241     0.202681603801    12.000000000000
         H            1.214851216330    -0.818797307241     1.298852303801     1.007825032230
         H            2.024431316330    -1.263187607241    -0.218853396199     1.007825032230
         H            2.024412316330     1.263456392759     0.218881603801     1.007825032230
         H            1.198716316330     0.808689392759    -1.300189396199     1.007825032230
         H           -1.199109683670     0.808683392759    -1.300179396199     1.007825032230
         H           -2.024804683670     1.263415392759     0.218903603801     1.007825032230
         H           -2.024786683670    -1.263209607241    -0.218865396199     1.007825032230
         H           -1.199091683670    -0.808462607241     1.300211603801     1.007825032230

  Basis Set: AUG-CC-PVTZ
    Blend: AUG-CC-PVTZ
  Basis Set: (AUG-CC-PVTZ AUX)
    Blend: AUG-CC-PVTZ-JKFIT
	 Reference Energy          =    -305.9404205453463419 [Eh]
	 Singles Energy            =      -0.0000000000000000 [Eh]
	 Same-Spin Energy          =      -0.2982362156791307 [Eh]
	 Opposite-Spin Energy      =      -0.9804448532826681 [Eh]
	 Correlation Energy        =      -1.2786810689617987 [Eh]
	 Total Energy              =    -307.2191016143081583 [Eh]

	 ================> DF-SCS-MP2 Energies <==================
	-----------------------------------------------------------
	 SCS Same-Spin Scale       =       0.3333333333333333 [-]
	 SCS Opposite-Spin Scale   =       1.2000000000000000 [-]
	 SCS Same-Spin Energy      =      -0.0994120718930435 [Eh]
	 SCS Opposite-Spin Energy  =      -1.1765338239392016 [Eh]
	 SCS Correlation Energy    =      -1.2759458958322452 [Eh]
	 SCS Total Energy          =    -307.2163664411785930 [Eh]
	-----------------------------------------------------------

  Dipole Moment: [D]
     X:     0.0028      Y:    -0.0030      Z:     0.0029     Total:     0.0050

*** Psi4 exiting successfully. Buy a developer a beer!
