                               Psi4 1.4a3.dev225

  ==> Input File <==

--------------------------------------------------------------------------
#psi4
#
memory 32 gb

molecule  {
0 1
  O       -0.0000180     1.3809610     0.3010860
  C        1.1672200     0.7307320    -0.2027760
  C        1.1672390    -0.7307030     0.2027780
  O        0.0000190    -1.3809610    -0.3010890
  C       -1.1672200    -0.7307320     0.2027770
  C       -1.1672400     0.7307030    -0.2027760
  H        1.1997954     0.8089591    -1.3202337
  H        2.0246220     1.2638070     0.2183330
  H        2.0246560    -1.2637540    -0.2183310
  H        1.1992320    -0.8075370     1.3002920
  H       -1.1992100    -0.8075640     1.3002920
  H       -2.0246220    -1.2638090    -0.2183310
  H       -2.0246550     1.2637560     0.2183340
  H       -1.1992350     0.8075320    -1.3002910
units angstrom
no_reorient  #important for SAPT in psi4, default
symmetry c1  #important for SAPT in psi4, default
}

set PROPERTIES_ORIGIN ["COM"]
properties('MP2/aug-cc-pvtz', properties = ['dipole'])
--------------------------------------------------------------------------

    Molecular point group: c1
  Charge       = 0
  Multiplicity = 1
  Basis Set: AUG-CC-PVTZ
    Blend: AUG-CC-PVTZ
  Basis Set: (AUG-CC-PVTZ AUX)
    Blend: AUG-CC-PVTZ-JKFIT

    Orbital Energies [Eh]
    ---------------------

    Doubly Occupied:

       1A    -20.561823     2A    -20.561419     3A    -11.280465
       4A    -11.278398     5A    -11.278202     6A    -11.277742
       7A     -1.396608     8A     -1.354443     9A     -1.045838
      10A     -0.951611    11A     -0.887778    12A     -0.797262
      13A     -0.697231    14A     -0.650303    15A     -0.648328
      16A     -0.636720    17A     -0.632550    18A     -0.554900
      19A     -0.554172    20A     -0.511793    21A     -0.510006
      22A     -0.460983    23A     -0.459311    24A     -0.398640

  @DF-RHF Final Energy:  -305.93984541780100

   => Energetics <=

    Nuclear Repulsion Energy =            264.1625238278984966
    One-Electron Energy =                -941.4316838327744108
    Two-Electron Energy =                 371.3293145870748617
    Total Energy =                       -305.9398454178009956
  Basis Set: (AUG-CC-PVTZ AUX)
    Blend: AUG-CC-PVTZ-RI
    Molecular point group: c1

    Geometry (in Angstrom), charge = 0, multiplicity = 1:

       Center              X                  Y                   Z               Mass
    ------------   -----------------  -----------------  -----------------  -----------------
         O           -0.000024722813     1.380945089280     0.301314314907    15.994914619570
         C            1.167213277187     0.730716089280    -0.202547685093    12.000000000000
         C            1.167232277187    -0.730718910720     0.203006314907    12.000000000000
         O            0.000012277187    -1.380976910720    -0.300860685093    15.994914619570
         C           -1.167226722813    -0.730747910720     0.203005314907    12.000000000000
         C           -1.167246722813     0.730687089280    -0.202547685093    12.000000000000
         H            1.199788677187     0.808943189280    -1.320005385093     1.007825032230
         H            2.024615277187     1.263791089280     0.218561314907     1.007825032230
         H            2.024649277187    -1.263769910720    -0.218102685093     1.007825032230
         H            1.199225277187    -0.807552910720     1.300520314907     1.007825032230
         H           -1.199216722813    -0.807579910720     1.300520314907     1.007825032230
         H           -2.024628722813    -1.263824910720    -0.218102685093     1.007825032230
         H           -2.024661722813     1.263740089280     0.218562314907     1.007825032230
         H           -1.199241722813     0.807516089280    -1.300062685093     1.007825032230

  Basis Set: AUG-CC-PVTZ
    Blend: AUG-CC-PVTZ
  Basis Set: (AUG-CC-PVTZ AUX)
    Blend: AUG-CC-PVTZ-JKFIT
	 Reference Energy          =    -305.9398454178009956 [Eh]
	 Singles Energy            =      -0.0000000000000000 [Eh]
	 Same-Spin Energy          =      -0.2982934570157085 [Eh]
	 Opposite-Spin Energy      =      -0.9806350133074112 [Eh]
	 Correlation Energy        =      -1.2789284703231196 [Eh]
	 Total Energy              =    -307.2187738881241330 [Eh]

	 ================> DF-SCS-MP2 Energies <==================
	-----------------------------------------------------------
	 SCS Same-Spin Scale       =       0.3333333333333333 [-]
	 SCS Opposite-Spin Scale   =       1.2000000000000000 [-]
	 SCS Same-Spin Energy      =      -0.0994311523385695 [Eh]
	 SCS Opposite-Spin Energy  =      -1.1767620159688934 [Eh]
	 SCS Correlation Energy    =      -1.2761931683074630 [Eh]
	 SCS Total Energy          =    -307.2160385861084819 [Eh]
	-----------------------------------------------------------

  Dipole Moment: [D]
     X:    -0.0070      Y:    -0.0025      Z:     0.0160     Total:     0.0177

*** Psi4 exiting successfully. Buy a developer a beer!
