                               Psi4 1.4a3.dev225

  ==> Input File <==

--------------------------------------------------------------------------
#psi4
#
memory 32 gb

molecule  {
0 1
  O       -0.0000180     1.3809610     0.3010860
  C        1.1672200     0.7307320    -0.2027760
  C        1.1672393    -0.7499747     0.2081260
  O        0.0000190    -1.3809610    -0.3010890
  C       -1.1672200    -0.7307320     0.2027770
  C       -1.1672400     0.7307030    -0.2027760
  H        1.1992140     0.8075630    -1.3002910
  H        2.0246220     1.2638070     0.2183330
  H        2.0246560    -1.2637540    -0.2183310
  H        1.1992320    -0.8075370     1.3002920
  H       -1.1992100    -0.8075640     1.3002920
  H       -2.0246220    -1.2638090    -0.2183310
  H       -2.0246550     1.2637560     0.2183340
  H       -1.1992350     0.8075320    -1.3002910
units angstrom
no_reorient  #important for SAPT in psi4, default
symmetry c1  #important for SAPT in psi4, default
}

set PROPERTIES_ORIGIN ["COM"]
properties('MP2/aug-cc-pvtz', properties = ['dipole'])
--------------------------------------------------------------------------

    Molecular point group: c1
  Charge       = 0
  Multiplicity = 1
  Basis Set: AUG-CC-PVTZ
    Blend: AUG-CC-PVTZ
  Basis Set: (AUG-CC-PVTZ AUX)
    Blend: AUG-CC-PVTZ-JKFIT

    Orbital Energies [Eh]
    ---------------------

    Doubly Occupied:

       1A    -20.561532     2A    -20.561124     3A    -11.278622
       4A    -11.278179     5A    -11.277783     6A    -11.277378
       7A     -1.396838     8A     -1.355150     9A     -1.044502
      10A     -0.949561    11A     -0.889194    12A     -0.799059
      13A     -0.696532    14A     -0.651247    15A     -0.649840
      16A     -0.636862    17A     -0.633150    18A     -0.554399
      19A     -0.552525    20A     -0.513422    21A     -0.511385
      22A     -0.462050    23A     -0.459890    24A     -0.395859

  @DF-RHF Final Energy:  -305.94042981274629

   => Energetics <=

    Nuclear Repulsion Energy =            264.0880089720372439
    One-Electron Energy =                -941.2847089664434179
    Two-Electron Energy =                 371.2562701816598292
    Total Energy =                       -305.9404298127462880
  Basis Set: (AUG-CC-PVTZ AUX)
    Blend: AUG-CC-PVTZ-RI
    Molecular point group: c1

    Geometry (in Angstrom), charge = 0, multiplicity = 1:

       Center              X                  Y                   Z               Mass
    ------------   -----------------  -----------------  -----------------  -----------------
         O           -0.000018109146     1.383587462987     0.300357217496    15.994914619570
         C            1.167219890854     0.733358462987    -0.203504782504    12.000000000000
         C            1.167239190854    -0.747348237013     0.207397217496    12.000000000000
         O            0.000018890854    -1.378334537013    -0.301817782504    15.994914619570
         C           -1.167220109146    -0.728105537013     0.202048217496    12.000000000000
         C           -1.167240109146     0.733329462987    -0.203504782504    12.000000000000
         H            1.199213890854     0.810189462987    -1.301019782504     1.007825032230
         H            2.024621890854     1.266433462987     0.217604217496     1.007825032230
         H            2.024655890854    -1.261127537013    -0.219059782504     1.007825032230
         H            1.199231890854    -0.804910537013     1.299563217496     1.007825032230
         H           -1.199210109146    -0.804937537013     1.299563217496     1.007825032230
         H           -2.024622109146    -1.261182537013    -0.219059782504     1.007825032230
         H           -2.024655109146     1.266382462987     0.217605217496     1.007825032230
         H           -1.199235109146     0.810158462987    -1.301019782504     1.007825032230

  Basis Set: AUG-CC-PVTZ
    Blend: AUG-CC-PVTZ
  Basis Set: (AUG-CC-PVTZ AUX)
    Blend: AUG-CC-PVTZ-JKFIT
	 Reference Energy          =    -305.9404298127462880 [Eh]
	 Singles Energy            =      -0.0000000000000000 [Eh]
	 Same-Spin Energy          =      -0.2981076247227524 [Eh]
	 Opposite-Spin Energy      =      -0.9802491429011012 [Eh]
	 Correlation Energy        =      -1.2783567676238536 [Eh]
	 Total Energy              =    -307.2187865803701357 [Eh]

	 ================> DF-SCS-MP2 Energies <==================
	-----------------------------------------------------------
	 SCS Same-Spin Scale       =       0.3333333333333333 [-]
	 SCS Opposite-Spin Scale   =       1.2000000000000000 [-]
	 SCS Same-Spin Energy      =      -0.0993692082409175 [Eh]
	 SCS Opposite-Spin Energy  =      -1.1762989714813215 [Eh]
	 SCS Correlation Energy    =      -1.2756681797222389 [Eh]
	 SCS Total Energy          =    -307.2160979924685194 [Eh]
	-----------------------------------------------------------

  Dipole Moment: [D]
     X:    -0.0175      Y:    -0.0248      Z:     0.0065     Total:     0.0310

*** Psi4 exiting successfully. Buy a developer a beer!
