                               Psi4 1.4a3.dev225

  ==> Input File <==

--------------------------------------------------------------------------
#psi4
#
memory 32 gb

molecule  {
0 1
  O       -0.0000180     1.3809610     0.3010860
  C        1.2080903     0.7079645    -0.2204185
  C        1.1672390    -0.7307030     0.2027780
  O        0.0000190    -1.3809610    -0.3010890
  C       -1.1672200    -0.7307320     0.2027770
  C       -1.1672400     0.7307030    -0.2027760
  H        1.1992140     0.8075630    -1.3002910
  H        2.0246220     1.2638070     0.2183330
  H        2.0246560    -1.2637540    -0.2183310
  H        1.1992320    -0.8075370     1.3002920
  H       -1.1992100    -0.8075640     1.3002920
  H       -2.0246220    -1.2638090    -0.2183310
  H       -2.0246550     1.2637560     0.2183340
  H       -1.1992350     0.8075320    -1.3002910
units angstrom
no_reorient  #important for SAPT in psi4, default
symmetry c1  #important for SAPT in psi4, default
}

set PROPERTIES_ORIGIN ["COM"]
properties('MP2/aug-cc-pvtz', properties = ['dipole'])
--------------------------------------------------------------------------

    Molecular point group: c1
  Charge       = 0
  Multiplicity = 1
  Basis Set: AUG-CC-PVTZ
    Blend: AUG-CC-PVTZ
  Basis Set: (AUG-CC-PVTZ AUX)
    Blend: AUG-CC-PVTZ-JKFIT

    Orbital Energies [Eh]
    ---------------------

    Doubly Occupied:

       1A    -20.562400     2A    -20.556967     3A    -11.279419
       4A    -11.278325     5A    -11.276923     6A    -11.275143
       7A     -1.390443     8A     -1.344295     9A     -1.047750
      10A     -0.954132    11A     -0.885163    12A     -0.799328
      13A     -0.694288    14A     -0.652271    15A     -0.649510
      16A     -0.630821    17A     -0.629382    18A     -0.557944
      19A     -0.547653    20A     -0.516240    21A     -0.509063
      22A     -0.460104    23A     -0.457658    24A     -0.400852

  @DF-RHF Final Energy:  -305.93732109535227

   => Energetics <=

    Nuclear Repulsion Energy =            263.6576654016088810
    One-Electron Energy =                -940.4778213170835670
    Two-Electron Energy =                 370.8828348201224685
    Total Energy =                       -305.9373210953522744
  Basis Set: (AUG-CC-PVTZ AUX)
    Blend: AUG-CC-PVTZ-RI
    Molecular point group: c1

    Geometry (in Angstrom), charge = 0, multiplicity = 1:

       Center              X                  Y                   Z               Mass
    ------------   -----------------  -----------------  -----------------  -----------------
         O           -0.005587972497     1.384063879143     0.303490418949    15.994914619570
         C            1.202520327503     0.711067379143    -0.218014081051    12.000000000000
         C            1.161669027503    -0.727600120857     0.205182418949    12.000000000000
         O           -0.005550972497    -1.377858120857    -0.298684581051    15.994914619570
         C           -1.172789972497    -0.727629120857     0.205181418949    12.000000000000
         C           -1.172809972497     0.733805879143    -0.200371581051    12.000000000000
         H            1.193644027503     0.810665879143    -1.297886581051     1.007825032230
         H            2.019052027503     1.266909879143     0.220737418949     1.007825032230
         H            2.019086027503    -1.260651120857    -0.215926581051     1.007825032230
         H            1.193662027503    -0.804434120857     1.302696418949     1.007825032230
         H           -1.204779972497    -0.804461120857     1.302696418949     1.007825032230
         H           -2.030191972497    -1.260706120857    -0.215926581051     1.007825032230
         H           -2.030224972497     1.266858879143     0.220738418949     1.007825032230
         H           -1.204804972497     0.810634879143    -1.297886581051     1.007825032230

  Basis Set: AUG-CC-PVTZ
    Blend: AUG-CC-PVTZ
  Basis Set: (AUG-CC-PVTZ AUX)
    Blend: AUG-CC-PVTZ-JKFIT
	 Reference Energy          =    -305.9373210953522744 [Eh]
	 Singles Energy            =      -0.0000000000000000 [Eh]
	 Same-Spin Energy          =      -0.2984647496577487 [Eh]
	 Opposite-Spin Energy      =      -0.9814108497498469 [Eh]
	 Correlation Energy        =      -1.2798755994075957 [Eh]
	 Total Energy              =    -307.2171966947598776 [Eh]

	 ================> DF-SCS-MP2 Energies <==================
	-----------------------------------------------------------
	 SCS Same-Spin Scale       =       0.3333333333333333 [-]
	 SCS Opposite-Spin Scale   =       1.2000000000000000 [-]
	 SCS Same-Spin Energy      =      -0.0994882498859162 [Eh]
	 SCS Opposite-Spin Energy  =      -1.1776930196998163 [Eh]
	 SCS Correlation Energy    =      -1.2771812695857325 [Eh]
	 SCS Total Energy          =    -307.2145023649380278 [Eh]
	-----------------------------------------------------------

  Dipole Moment: [D]
     X:     0.1460      Y:    -0.0500      Z:    -0.0459     Total:     0.1609

*** Psi4 exiting successfully. Buy a developer a beer!
