                               Psi4 1.4a3.dev225

  ==> Input File <==

--------------------------------------------------------------------------
#psi4
#
memory 32 gb

molecule  {
0 1
  O       -0.0000180     1.3809610     0.3010860
  C        1.1672200     0.7307320    -0.2027760
  C        1.1672396    -0.7788823     0.2161479
  O        0.0000190    -1.3809610    -0.3010890
  C       -1.1672200    -0.7307320     0.2027770
  C       -1.1672400     0.7307030    -0.2027760
  H        1.1992140     0.8075630    -1.3002910
  H        2.0246220     1.2638070     0.2183330
  H        2.0246560    -1.2637540    -0.2183310
  H        1.1992320    -0.8075370     1.3002920
  H       -1.1992100    -0.8075640     1.3002920
  H       -2.0246220    -1.2638090    -0.2183310
  H       -2.0246550     1.2637560     0.2183340
  H       -1.1992350     0.8075320    -1.3002910
units angstrom
no_reorient  #important for SAPT in psi4, default
symmetry c1  #important for SAPT in psi4, default
}

set PROPERTIES_ORIGIN ["COM"]
properties('MP2/aug-cc-pvtz', properties = ['dipole'])
--------------------------------------------------------------------------

    Molecular point group: c1
  Charge       = 0
  Multiplicity = 1
  Basis Set: AUG-CC-PVTZ
    Blend: AUG-CC-PVTZ
  Basis Set: (AUG-CC-PVTZ AUX)
    Blend: AUG-CC-PVTZ-JKFIT

    Orbital Energies [Eh]
    ---------------------

    Doubly Occupied:

       1A    -20.561822     2A    -20.560781     3A    -11.279268
       4A    -11.278051     5A    -11.277802     6A    -11.276943
       7A     -1.397543     8A     -1.356316     9A     -1.042468
      10A     -0.946081    11A     -0.890705    12A     -0.799819
      13A     -0.695841    14A     -0.653156    15A     -0.650633
      16A     -0.637347    17A     -0.632647    18A     -0.554882
      19A     -0.549704    20A     -0.515748    21A     -0.511143
      22A     -0.464011    23A     -0.459516    24A     -0.391483

  @DF-RHF Final Energy:  -305.93903666600045

   => Energetics <=

    Nuclear Repulsion Energy =            263.8355158398613867
    One-Electron Energy =                -940.7816873525194978
    Two-Electron Energy =                 371.0071348466576637
    Total Energy =                       -305.9390366660004474
  Basis Set: (AUG-CC-PVTZ AUX)
    Blend: AUG-CC-PVTZ-RI
    Molecular point group: c1

    Geometry (in Angstrom), charge = 0, multiplicity = 1:

       Center              X                  Y                   Z               Mass
    ------------   -----------------  -----------------  -----------------  -----------------
         O           -0.000018150031     1.387527061269     0.299263973385    15.994914619570
         C            1.167219849969     0.737298061269    -0.204598026615    12.000000000000
         C            1.167239449969    -0.772316238731     0.214325873385    12.000000000000
         O            0.000018849969    -1.374394938731    -0.302911026615    15.994914619570
         C           -1.167220150031    -0.724165938731     0.200954973385    12.000000000000
         C           -1.167240150031     0.737269061269    -0.204598026615    12.000000000000
         H            1.199213849969     0.814129061269    -1.302113026615     1.007825032230
         H            2.024621849969     1.270373061269     0.216510973385     1.007825032230
         H            2.024655849969    -1.257187938731    -0.220153026615     1.007825032230
         H            1.199231849969    -0.800970938731     1.298469973385     1.007825032230
         H           -1.199210150031    -0.800997938731     1.298469973385     1.007825032230
         H           -2.024622150031    -1.257242938731    -0.220153026615     1.007825032230
         H           -2.024655150031     1.270322061269     0.216511973385     1.007825032230
         H           -1.199235150031     0.814098061269    -1.302113026615     1.007825032230

  Basis Set: AUG-CC-PVTZ
    Blend: AUG-CC-PVTZ
  Basis Set: (AUG-CC-PVTZ AUX)
    Blend: AUG-CC-PVTZ-JKFIT
	 Reference Energy          =    -305.9390366660004474 [Eh]
	 Singles Energy            =      -0.0000000000000000 [Eh]
	 Same-Spin Energy          =      -0.2979481398840153 [Eh]
	 Opposite-Spin Energy      =      -0.9800403113622237 [Eh]
	 Correlation Energy        =      -1.2779884512462389 [Eh]
	 Total Energy              =    -307.2170251172466919 [Eh]

	 ================> DF-SCS-MP2 Energies <==================
	-----------------------------------------------------------
	 SCS Same-Spin Scale       =       0.3333333333333333 [-]
	 SCS Opposite-Spin Scale   =       1.2000000000000000 [-]
	 SCS Same-Spin Energy      =      -0.0993160466280051 [Eh]
	 SCS Opposite-Spin Energy  =      -1.1760483736346683 [Eh]
	 SCS Correlation Energy    =      -1.2753644202626735 [Eh]
	 SCS Total Energy          =    -307.2144010862631376 [Eh]
	-----------------------------------------------------------

  Dipole Moment: [D]
     X:    -0.0449      Y:    -0.0618      Z:     0.0159     Total:     0.0781

*** Psi4 exiting successfully. Buy a developer a beer!
