                               Psi4 1.3.2 release

  ==> Input File <==

--------------------------------------------------------------------------
#psi4
#
memory 32 gb

molecule  {
0 1
  O        0.0156803    -1.4237920    -0.2801026
  C        1.1670970    -0.7307880     0.2026760
  C        1.1670830     0.7308060    -0.2026730
  O       -0.0000090     1.3813690     0.3010510
  C       -1.1670960     0.7307910    -0.2026650
  C       -1.1670820    -0.7308090     0.2026660
  H        1.1989120    -0.8085610     1.3002060
  H        2.0246160    -1.2633060    -0.2188690
  H        2.0245970     1.2633380     0.2188660
  H        1.1989010     0.8085710    -1.3002050
  H       -1.1989250     0.8085650    -1.3001950
  H       -2.0246200     1.2632970     0.2188880
  H       -2.0246020    -1.2633280    -0.2188810
  H       -1.1989070    -0.8085810     1.3001960
units angstrom
no_reorient  #important for SAPT in psi4, default
symmetry c1  #important for SAPT in psi4, default
}

set PROPERTIES_ORIGIN ["COM"]
properties('MP2/aug-cc-pvtz', properties = ['dipole'])
--------------------------------------------------------------------------

    Molecular point group: c1
  Charge       = 0
  Multiplicity = 1
  Basis Set: AUG-CC-PVTZ
    Blend: AUG-CC-PVTZ
  Basis Set: (AUG-CC-PVTZ AUX)
    Blend: AUG-CC-PVTZ-JKFIT

    Orbital Energies [Eh]
    ---------------------

    Doubly Occupied:

       1A    -20.562281     2A    -20.562069     3A    -11.280790
       4A    -11.279987     5A    -11.279091     6A    -11.276685
       7A     -1.392808     8A     -1.351534     9A     -1.044960
      10A     -0.954433    11A     -0.886932    12A     -0.797744
      13A     -0.695257    14A     -0.650490    15A     -0.648344
      16A     -0.634223    17A     -0.632503    18A     -0.556163
      19A     -0.553130    20A     -0.512560    21A     -0.509446
      22A     -0.462230    23A     -0.457919    24A     -0.401429

  @DF-RHF Final Energy:  -305.93860674828346

   => Energetics <=

    Nuclear Repulsion Energy =            263.4018636647440985
    One-Electron Energy =                -939.9149276911351762
    Two-Electron Energy =                 370.5744572781075590
    Total Energy =                       -305.9386067482834619
  Basis Set: (AUG-CC-PVTZ AUX)
    Blend: AUG-CC-PVTZ-RI
    Molecular point group: c1

    Geometry (in Angstrom), charge = 0, multiplicity = 1:

       Center              X                  Y                   Z               Mass
    ------------   -----------------  -----------------  -----------------  -----------------
         O            0.012833622313    -1.416085712895    -0.283908536057    15.994914619570
         C            1.164250322313    -0.723081712895     0.198870063943    12.000000000000
         C            1.164236322313     0.738512287105    -0.206478936057    12.000000000000
         O           -0.002855677687     1.389075287105     0.297245063943    15.994914619570
         C           -1.169942677687     0.738497287105    -0.206470936057    12.000000000000
         C           -1.169928677687    -0.723102712895     0.198860063943    12.000000000000
         H            1.196065322313    -0.800854712895     1.296400063943     1.007825032230
         H            2.021769322313    -1.255599712895    -0.222674936057     1.007825032230
         H            2.021750322313     1.271044287105     0.215060063943     1.007825032230
         H            1.196054322313     0.816277287105    -1.304010936057     1.007825032230
         H           -1.201771677687     0.816271287105    -1.304000936057     1.007825032230
         H           -2.027466677687     1.271003287105     0.215082063943     1.007825032230
         H           -2.027448677687    -1.255621712895    -0.222686936057     1.007825032230
         H           -1.201753677687    -0.800874712895     1.296390063943     1.007825032230

  Basis Set: AUG-CC-PVTZ
    Blend: AUG-CC-PVTZ
  Basis Set: (AUG-CC-PVTZ AUX)
    Blend: AUG-CC-PVTZ-JKFIT
	 Reference Energy          =    -305.9386067482834619 [Eh]
	 Singles Energy            =      -0.0000000000000000 [Eh]
	 Same-Spin Energy          =      -0.2983834738631121 [Eh]
	 Opposite-Spin Energy      =      -0.9812296388154003 [Eh]
	 Correlation Energy        =      -1.2796131126785124 [Eh]
	 Total Energy              =    -307.2182198609619945 [Eh]

	 ================> DF-SCS-MP2 Energies <==================
	-----------------------------------------------------------
	 SCS Same-Spin Scale       =       0.3333333333333333 [-]
	 SCS Opposite-Spin Scale   =       1.2000000000000000 [-]
	 SCS Same-Spin Energy      =      -0.0994611579543707 [Eh]
	 SCS Opposite-Spin Energy  =      -1.1774755665784802 [Eh]
	 SCS Correlation Energy    =      -1.2769367245328509 [Eh]
	 SCS Total Energy          =    -307.2155434728163073 [Eh]
	-----------------------------------------------------------

  Dipole Moment: [D]
     X:    -0.0726      Y:     0.1176      Z:    -0.0351     Total:     0.1426

*** Psi4 exiting successfully. Buy a developer a beer!
