                               Psi4 1.3.2 release

  ==> Input File <==

--------------------------------------------------------------------------
#psi4
#
memory 32 gb

molecule  {
0 1
  O        0.0068625    -1.3752460    -0.3242206
  C        1.1670970    -0.7307880     0.2026760
  C        1.1670830     0.7308060    -0.2026730
  O       -0.0000090     1.3813690     0.3010510
  C       -1.1670960     0.7307910    -0.2026650
  C       -1.1670820    -0.7308090     0.2026660
  H        1.1989120    -0.8085610     1.3002060
  H        2.0246160    -1.2633060    -0.2188690
  H        2.0245970     1.2633380     0.2188660
  H        1.1989010     0.8085710    -1.3002050
  H       -1.1989250     0.8085650    -1.3001950
  H       -2.0246200     1.2632970     0.2188880
  H       -2.0246020    -1.2633280    -0.2188810
  H       -1.1989070    -0.8085810     1.3001960
units angstrom
no_reorient  #important for SAPT in psi4, default
symmetry c1  #important for SAPT in psi4, default
}

set PROPERTIES_ORIGIN ["COM"]
properties('MP2/aug-cc-pvtz', properties = ['dipole'])
--------------------------------------------------------------------------

    Molecular point group: c1
  Charge       = 0
  Multiplicity = 1
  Basis Set: AUG-CC-PVTZ
    Blend: AUG-CC-PVTZ
  Basis Set: (AUG-CC-PVTZ AUX)
    Blend: AUG-CC-PVTZ-JKFIT

    Orbital Energies [Eh]
    ---------------------

    Doubly Occupied:

       1A    -20.561885     2A    -20.561211     3A    -11.279183
       4A    -11.278037     5A    -11.277825     6A    -11.277155
       7A     -1.395121     8A     -1.352638     9A     -1.045614
      10A     -0.952029    11A     -0.886656    12A     -0.799292
      13A     -0.696536    14A     -0.650317    15A     -0.649059
      16A     -0.634543    17A     -0.632116    18A     -0.554874
      19A     -0.552994    20A     -0.512050    21A     -0.509417
      22A     -0.463173    23A     -0.459583    24A     -0.398626

  @DF-RHF Final Energy:  -305.93959055515586

   => Energetics <=

    Nuclear Repulsion Energy =            264.1359858105387275
    One-Electron Energy =                -941.3912857826197751
    Two-Electron Energy =                 371.3157094169251877
    Total Energy =                       -305.9395905551558599
  Basis Set: (AUG-CC-PVTZ AUX)
    Blend: AUG-CC-PVTZ-RI
    Molecular point group: c1

    Geometry (in Angstrom), charge = 0, multiplicity = 1:

       Center              X                  Y                   Z               Mass
    ------------   -----------------  -----------------  -----------------  -----------------
         O            0.005617594790    -1.376358198989    -0.320012405758    15.994914619570
         C            1.165852094790    -0.731900198989     0.206884194242    12.000000000000
         C            1.165838094790     0.729693801011    -0.198464805758    12.000000000000
         O           -0.001253905210     1.380256801011     0.305259194242    15.994914619570
         C           -1.168340905210     0.729678801011    -0.198456805758    12.000000000000
         C           -1.168326905210    -0.731921198989     0.206874194242    12.000000000000
         H            1.197667094790    -0.809673198989     1.304414194242     1.007825032230
         H            2.023371094790    -1.264418198989    -0.214660805758     1.007825032230
         H            2.023352094790     1.262225801011     0.223074194242     1.007825032230
         H            1.197656094790     0.807458801011    -1.295996805758     1.007825032230
         H           -1.200169905210     0.807452801011    -1.295986805758     1.007825032230
         H           -2.025864905210     1.262184801011     0.223096194242     1.007825032230
         H           -2.025846905210    -1.264440198989    -0.214672805758     1.007825032230
         H           -1.200151905210    -0.809693198989     1.304404194242     1.007825032230

  Basis Set: AUG-CC-PVTZ
    Blend: AUG-CC-PVTZ
  Basis Set: (AUG-CC-PVTZ AUX)
    Blend: AUG-CC-PVTZ-JKFIT
	 Reference Energy          =    -305.9395905551558599 [Eh]
	 Singles Energy            =      -0.0000000000000000 [Eh]
	 Same-Spin Energy          =      -0.2983570635047267 [Eh]
	 Opposite-Spin Energy      =      -0.9808538360724662 [Eh]
	 Correlation Energy        =      -1.2792108995771929 [Eh]
	 Total Energy              =    -307.2188014547330681 [Eh]

	 ================> DF-SCS-MP2 Energies <==================
	-----------------------------------------------------------
	 SCS Same-Spin Scale       =       0.3333333333333333 [-]
	 SCS Opposite-Spin Scale   =       1.2000000000000000 [-]
	 SCS Same-Spin Energy      =      -0.0994523545015756 [Eh]
	 SCS Opposite-Spin Energy  =      -1.1770246032869593 [Eh]
	 SCS Correlation Energy    =      -1.2764769577885349 [Eh]
	 SCS Total Energy          =    -307.2160675129443916 [Eh]
	-----------------------------------------------------------

  Dipole Moment: [D]
     X:    -0.0323      Y:    -0.0122      Z:     0.0491     Total:     0.0600

*** Psi4 exiting successfully. Buy a developer a beer!
