                               Psi4 1.3.2 release

  ==> Input File <==

--------------------------------------------------------------------------
#psi4
#
memory 32 gb

molecule  {
0 1
  O       -0.0142383    -1.3381513    -0.3213917
  C        1.1670970    -0.7307880     0.2026760
  C        1.1670830     0.7308060    -0.2026730
  O       -0.0000090     1.3813690     0.3010510
  C       -1.1670960     0.7307910    -0.2026650
  C       -1.1670820    -0.7308090     0.2026660
  H        1.1989120    -0.8085610     1.3002060
  H        2.0246160    -1.2633060    -0.2188690
  H        2.0245970     1.2633380     0.2188660
  H        1.1989010     0.8085710    -1.3002050
  H       -1.1989250     0.8085650    -1.3001950
  H       -2.0246200     1.2632970     0.2188880
  H       -2.0246020    -1.2633280    -0.2188810
  H       -1.1989070    -0.8085810     1.3001960
units angstrom
no_reorient  #important for SAPT in psi4, default
symmetry c1  #important for SAPT in psi4, default
}

set PROPERTIES_ORIGIN ["COM"]
properties('MP2/aug-cc-pvtz', properties = ['dipole'])
--------------------------------------------------------------------------

    Molecular point group: c1
  Charge       = 0
  Multiplicity = 1
  Basis Set: AUG-CC-PVTZ
    Blend: AUG-CC-PVTZ
  Basis Set: (AUG-CC-PVTZ AUX)
    Blend: AUG-CC-PVTZ-JKFIT

    Orbital Energies [Eh]
    ---------------------

    Doubly Occupied:

       1A    -20.560637     2A    -20.560330     3A    -11.279347
       4A    -11.276947     5A    -11.276175     6A    -11.275269
       7A     -1.401028     8A     -1.356203     9A     -1.047399
      10A     -0.949389    11A     -0.889060    12A     -0.799481
      13A     -0.699065    14A     -0.652495    15A     -0.649898
      16A     -0.637419    17A     -0.633708    18A     -0.556023
      19A     -0.551963    20A     -0.513057    21A     -0.510560
      22A     -0.462730    23A     -0.458320    24A     -0.395427

  @DF-RHF Final Energy:  -305.94047117190632

   => Energetics <=

    Nuclear Repulsion Energy =            265.1009087051041320
    One-Electron Energy =                -943.2988966811159344
    Two-Electron Energy =                 372.2575168041054212
    Total Energy =                       -305.9404711719063243
  Basis Set: (AUG-CC-PVTZ AUX)
    Blend: AUG-CC-PVTZ-RI
    Molecular point group: c1

    Geometry (in Angstrom), charge = 0, multiplicity = 1:

       Center              X                  Y                   Z               Mass
    ------------   -----------------  -----------------  -----------------  -----------------
         O           -0.011650199167    -1.346001831625    -0.317697381573    15.994914619570
         C            1.169685100833    -0.738638531625     0.206370318427    12.000000000000
         C            1.169671100833     0.722955468375    -0.198978681573    12.000000000000
         O            0.002579100833     1.373518468375     0.304745318427    15.994914619570
         C           -1.164507899167     0.722940468375    -0.198970681573    12.000000000000
         C           -1.164493899167    -0.738659531625     0.206360318427    12.000000000000
         H            1.201500100833    -0.816411531625     1.303900318427     1.007825032230
         H            2.027204100833    -1.271156531625    -0.215174681573     1.007825032230
         H            2.027185100833     1.255487468375     0.222560318427     1.007825032230
         H            1.201489100833     0.800720468375    -1.296510681573     1.007825032230
         H           -1.196336899167     0.800714468375    -1.296500681573     1.007825032230
         H           -2.022031899167     1.255446468375     0.222582318427     1.007825032230
         H           -2.022013899167    -1.271178531625    -0.215186681573     1.007825032230
         H           -1.196318899167    -0.816431531625     1.303890318427     1.007825032230

  Basis Set: AUG-CC-PVTZ
    Blend: AUG-CC-PVTZ
  Basis Set: (AUG-CC-PVTZ AUX)
    Blend: AUG-CC-PVTZ-JKFIT
	 Reference Energy          =    -305.9404711719063243 [Eh]
	 Singles Energy            =      -0.0000000000000000 [Eh]
	 Same-Spin Energy          =      -0.2982016766525775 [Eh]
	 Opposite-Spin Energy      =      -0.9798792745687005 [Eh]
	 Correlation Energy        =      -1.2780809512212779 [Eh]
	 Total Energy              =    -307.2185521231276084 [Eh]

	 ================> DF-SCS-MP2 Energies <==================
	-----------------------------------------------------------
	 SCS Same-Spin Scale       =       0.3333333333333333 [-]
	 SCS Opposite-Spin Scale   =       1.2000000000000000 [-]
	 SCS Same-Spin Energy      =      -0.0994005588841925 [Eh]
	 SCS Opposite-Spin Energy  =      -1.1758551294824406 [Eh]
	 SCS Correlation Energy    =      -1.2752556883666331 [Eh]
	 SCS Total Energy          =    -307.2157268602729800 [Eh]
	-----------------------------------------------------------

  Dipole Moment: [D]
     X:     0.0703      Y:    -0.1212      Z:     0.0342     Total:     0.1442

*** Psi4 exiting successfully. Buy a developer a beer!
