                               Psi4 1.3.2 release

  ==> Input File <==

--------------------------------------------------------------------------
#psi4
#
memory 32 gb

molecule  {
0 1
  O        0.0000100    -1.3813680    -0.3010540
  C        1.1951013    -0.7633897     0.1774330
  C        1.1670830     0.7308060    -0.2026730
  O       -0.0000090     1.3813690     0.3010510
  C       -1.1670960     0.7307910    -0.2026650
  C       -1.1670820    -0.7308090     0.2026660
  H        1.1989120    -0.8085610     1.3002060
  H        2.0246160    -1.2633060    -0.2188690
  H        2.0245970     1.2633380     0.2188660
  H        1.1989010     0.8085710    -1.3002050
  H       -1.1989250     0.8085650    -1.3001950
  H       -2.0246200     1.2632970     0.2188880
  H       -2.0246020    -1.2633280    -0.2188810
  H       -1.1989070    -0.8085810     1.3001960
units angstrom
no_reorient  #important for SAPT in psi4, default
symmetry c1  #important for SAPT in psi4, default
}

set PROPERTIES_ORIGIN ["COM"]
properties('MP2/aug-cc-pvtz', properties = ['dipole'])
--------------------------------------------------------------------------

    Molecular point group: c1
  Charge       = 0
  Multiplicity = 1
  Basis Set: AUG-CC-PVTZ
    Blend: AUG-CC-PVTZ
  Basis Set: (AUG-CC-PVTZ AUX)
    Blend: AUG-CC-PVTZ-JKFIT

    Orbital Energies [Eh]
    ---------------------

    Doubly Occupied:

       1A    -20.562470     2A    -20.559994     3A    -11.278825
       4A    -11.278810     5A    -11.278098     6A    -11.277855
       7A     -1.394880     8A     -1.353742     9A     -1.044885
      10A     -0.949580    11A     -0.890610    12A     -0.796981
      13A     -0.697743    14A     -0.655648    15A     -0.646329
      16A     -0.637192    17A     -0.630844    18A     -0.557776
      19A     -0.552267    20A     -0.517628    21A     -0.507314
      22A     -0.460481    23A     -0.458262    24A     -0.395174

  @DF-RHF Final Energy:  -305.93791432911576

   => Energetics <=

    Nuclear Repulsion Energy =            263.6867997554346061
    One-Electron Energy =                -940.4826567529454451
    Two-Electron Energy =                 370.8579426683950260
    Total Energy =                       -305.9379143291157561
  Basis Set: (AUG-CC-PVTZ AUX)
    Blend: AUG-CC-PVTZ-RI
    Molecular point group: c1

    Geometry (in Angstrom), charge = 0, multiplicity = 1:

       Center              X                  Y                   Z               Mass
    ------------   -----------------  -----------------  -----------------  -----------------
         O           -0.003806628090    -1.376925085177    -0.297613891198    15.994914619570
         C            1.191284671910    -0.758946785177     0.180873108802    12.000000000000
         C            1.163266371910     0.735248914823    -0.199232891198    12.000000000000
         O           -0.003825628090     1.385811914823     0.304491108802    15.994914619570
         C           -1.170912628090     0.735233914823    -0.199224891198    12.000000000000
         C           -1.170898628090    -0.726366085177     0.206106108802    12.000000000000
         H            1.195095371910    -0.804118085177     1.303646108802     1.007825032230
         H            2.020799371910    -1.258863085177    -0.215428891198     1.007825032230
         H            2.020780371910     1.267780914823     0.222306108802     1.007825032230
         H            1.195084371910     0.813013914823    -1.296764891198     1.007825032230
         H           -1.202741628090     0.813007914823    -1.296754891198     1.007825032230
         H           -2.028436628090     1.267739914823     0.222328108802     1.007825032230
         H           -2.028418628090    -1.258885085177    -0.215440891198     1.007825032230
         H           -1.202723628090    -0.804138085177     1.303636108802     1.007825032230

  Basis Set: AUG-CC-PVTZ
    Blend: AUG-CC-PVTZ
  Basis Set: (AUG-CC-PVTZ AUX)
    Blend: AUG-CC-PVTZ-JKFIT
	 Reference Energy          =    -305.9379143291157561 [Eh]
	 Singles Energy            =      -0.0000000000000000 [Eh]
	 Same-Spin Energy          =      -0.2980378878074836 [Eh]
	 Opposite-Spin Energy      =      -0.9802683337951446 [Eh]
	 Correlation Energy        =      -1.2783062216026282 [Eh]
	 Total Energy              =    -307.2162205507183899 [Eh]

	 ================> DF-SCS-MP2 Energies <==================
	-----------------------------------------------------------
	 SCS Same-Spin Scale       =       0.3333333333333333 [-]
	 SCS Opposite-Spin Scale   =       1.2000000000000000 [-]
	 SCS Same-Spin Energy      =      -0.0993459626024945 [Eh]
	 SCS Opposite-Spin Energy  =      -1.1763220005541735 [Eh]
	 SCS Correlation Energy    =      -1.2756679631566681 [Eh]
	 SCS Total Energy          =    -307.2135822922724060 [Eh]
	-----------------------------------------------------------

  Dipole Moment: [D]
     X:     0.0163      Y:    -0.0335      Z:    -0.0353     Total:     0.0513

*** Psi4 exiting successfully. Buy a developer a beer!
