                               Psi4 1.3.2 release

  ==> Input File <==

--------------------------------------------------------------------------
#psi4
#
memory 32 gb

molecule  {
0 1
  O        0.0000100    -1.3813680    -0.3010540
  C        1.3006549    -0.6999485     0.2827802
  C        1.1670830     0.7308060    -0.2026730
  O       -0.0000090     1.3813690     0.3010510
  C       -1.1670960     0.7307910    -0.2026650
  C       -1.1670820    -0.7308090     0.2026660
  H        1.1989120    -0.8085610     1.3002060
  H        2.0246160    -1.2633060    -0.2188690
  H        2.0245970     1.2633380     0.2188660
  H        1.1989010     0.8085710    -1.3002050
  H       -1.1989250     0.8085650    -1.3001950
  H       -2.0246200     1.2632970     0.2188880
  H       -2.0246020    -1.2633280    -0.2188810
  H       -1.1989070    -0.8085810     1.3001960
units angstrom
no_reorient  #important for SAPT in psi4, default
symmetry c1  #important for SAPT in psi4, default
}

set PROPERTIES_ORIGIN ["COM"]
properties('MP2/aug-cc-pvtz', properties = ['dipole'])
--------------------------------------------------------------------------

    Molecular point group: c1
  Charge       = 0
  Multiplicity = 1
  Basis Set: AUG-CC-PVTZ
    Blend: AUG-CC-PVTZ
  Basis Set: (AUG-CC-PVTZ AUX)
    Blend: AUG-CC-PVTZ-JKFIT

    Orbital Energies [Eh]
    ---------------------

    Doubly Occupied:

       1A    -20.564215     2A    -20.546732     3A    -11.284055
       4A    -11.281221     5A    -11.274424     6A    -11.270024
       7A     -1.384340     8A     -1.321538     9A     -1.047326
      10A     -0.954019    11A     -0.882859    12A     -0.802669
      13A     -0.687647    14A     -0.661239    15A     -0.652559
      16A     -0.629399    17A     -0.614253    18A     -0.558354
      19A     -0.535438    20A     -0.530285    21A     -0.504681
      22A     -0.457898    23A     -0.446927    24A     -0.397793

  @DF-RHF Final Energy:  -305.91783770196366

   => Energetics <=

    Nuclear Repulsion Energy =            261.8862527426389306
    One-Electron Energy =                -937.0283914191836629
    Two-Electron Energy =                 369.2243009745810696
    Total Energy =                       -305.9178377019636628
  Basis Set: (AUG-CC-PVTZ AUX)
    Blend: AUG-CC-PVTZ-RI
    Molecular point group: c1

    Geometry (in Angstrom), charge = 0, multiplicity = 1:

       Center              X                  Y                   Z               Mass
    ------------   -----------------  -----------------  -----------------  -----------------
         O           -0.018191730321    -1.385571006753    -0.311970864733    15.994914619570
         C            1.282453169679    -0.704151506753     0.271863335267    12.000000000000
         C            1.148881269679     0.726602993247    -0.213589864733    12.000000000000
         O           -0.018210730321     1.377165993247     0.290134135267    15.994914619570
         C           -1.185297730321     0.726587993247    -0.213581864733    12.000000000000
         C           -1.185283730321    -0.735012006753     0.191749135267    12.000000000000
         H            1.180710269679    -0.812764006753     1.289289135267     1.007825032230
         H            2.006414269679    -1.267509006753    -0.229785864733     1.007825032230
         H            2.006395269679     1.259134993247     0.207949135267     1.007825032230
         H            1.180699269679     0.804367993247    -1.311121864733     1.007825032230
         H           -1.217126730321     0.804361993247    -1.311111864733     1.007825032230
         H           -2.042821730321     1.259093993247     0.207971135267     1.007825032230
         H           -2.042803730321    -1.267531006753    -0.229797864733     1.007825032230
         H           -1.217108730321    -0.812784006753     1.289279135267     1.007825032230

  Basis Set: AUG-CC-PVTZ
    Blend: AUG-CC-PVTZ
  Basis Set: (AUG-CC-PVTZ AUX)
    Blend: AUG-CC-PVTZ-JKFIT
	 Reference Energy          =    -305.9178377019636628 [Eh]
	 Singles Energy            =      -0.0000000000000000 [Eh]
	 Same-Spin Energy          =      -0.2989562432922707 [Eh]
	 Opposite-Spin Energy      =      -0.9838580856523735 [Eh]
	 Correlation Energy        =      -1.2828143289446441 [Eh]
	 Total Energy              =    -307.2006520309083157 [Eh]

	 ================> DF-SCS-MP2 Energies <==================
	-----------------------------------------------------------
	 SCS Same-Spin Scale       =       0.3333333333333333 [-]
	 SCS Opposite-Spin Scale   =       1.2000000000000000 [-]
	 SCS Same-Spin Energy      =      -0.0996520810974235 [Eh]
	 SCS Opposite-Spin Energy  =      -1.1806297027828483 [Eh]
	 SCS Correlation Energy    =      -1.2802817838802718 [Eh]
	 SCS Total Energy          =    -307.1981194858439608 [Eh]
	-----------------------------------------------------------

  Dipole Moment: [D]
     X:     0.3958      Y:     0.1122      Z:     0.1528     Total:     0.4388

*** Psi4 exiting successfully. Buy a developer a beer!
