                               Psi4 1.3.2 release

  ==> Input File <==

--------------------------------------------------------------------------
#psi4
#
memory 32 gb

molecule  {
0 1
  O        0.0000100    -1.3813680    -0.3010540
  C        1.1525594    -0.7147820     0.2150692
  C        1.1670830     0.7308060    -0.2026730
  O       -0.0000090     1.3813690     0.3010510
  C       -1.1670960     0.7307910    -0.2026650
  C       -1.1670820    -0.7308090     0.2026660
  H        1.1989120    -0.8085610     1.3002060
  H        2.0246160    -1.2633060    -0.2188690
  H        2.0245970     1.2633380     0.2188660
  H        1.1989010     0.8085710    -1.3002050
  H       -1.1989250     0.8085650    -1.3001950
  H       -2.0246200     1.2632970     0.2188880
  H       -2.0246020    -1.2633280    -0.2188810
  H       -1.1989070    -0.8085810     1.3001960
units angstrom
no_reorient  #important for SAPT in psi4, default
symmetry c1  #important for SAPT in psi4, default
}

set PROPERTIES_ORIGIN ["COM"]
properties('MP2/aug-cc-pvtz', properties = ['dipole'])
--------------------------------------------------------------------------

    Molecular point group: c1
  Charge       = 0
  Multiplicity = 1
  Basis Set: AUG-CC-PVTZ
    Blend: AUG-CC-PVTZ
  Basis Set: (AUG-CC-PVTZ AUX)
    Blend: AUG-CC-PVTZ-JKFIT

    Orbital Energies [Eh]
    ---------------------

    Doubly Occupied:

       1A    -20.562129     2A    -20.560816     3A    -11.278370
       4A    -11.278297     5A    -11.277594     6A    -11.277575
       7A     -1.397372     8A     -1.354666     9A     -1.046826
      10A     -0.953212    11A     -0.887042    12A     -0.799566
      13A     -0.697255    14A     -0.651098    15A     -0.647672
      16A     -0.636351    17A     -0.634451    18A     -0.555173
      19A     -0.553690    20A     -0.513370    21A     -0.507698
      22A     -0.461684    23A     -0.459602    24A     -0.400000

  @DF-RHF Final Energy:  -305.93937230817426

   => Energetics <=

    Nuclear Repulsion Energy =            264.5334490612726768
    One-Electron Energy =                -942.1626241020293264
    Two-Electron Energy =                 371.6898027325823932
    Total Energy =                       -305.9393723081742564
  Basis Set: (AUG-CC-PVTZ AUX)
    Blend: AUG-CC-PVTZ-RI
    Molecular point group: c1

    Geometry (in Angstrom), charge = 0, multiplicity = 1:

       Center              X                  Y                   Z               Mass
    ------------   -----------------  -----------------  -----------------  -----------------
         O            0.001991085873    -1.383549461169    -0.302743044392    15.994914619570
         C            1.154540485873    -0.716963461169     0.213380155608    12.000000000000
         C            1.169064085873     0.728624538831    -0.204362044392    12.000000000000
         O            0.001972085873     1.379187538831     0.299361955608    15.994914619570
         C           -1.165114914127     0.728609538831    -0.204354044392    12.000000000000
         C           -1.165100914127    -0.732990461169     0.200976955608    12.000000000000
         H            1.200893085873    -0.810742461169     1.298516955608     1.007825032230
         H            2.026597085873    -1.265487461169    -0.220558044392     1.007825032230
         H            2.026578085873     1.261156538831     0.217176955608     1.007825032230
         H            1.200882085873     0.806389538831    -1.301894044392     1.007825032230
         H           -1.196943914127     0.806383538831    -1.301884044392     1.007825032230
         H           -2.022638914127     1.261115538831     0.217198955608     1.007825032230
         H           -2.022620914127    -1.265509461169    -0.220570044392     1.007825032230
         H           -1.196925914127    -0.810762461169     1.298506955608     1.007825032230

  Basis Set: AUG-CC-PVTZ
    Blend: AUG-CC-PVTZ
  Basis Set: (AUG-CC-PVTZ AUX)
    Blend: AUG-CC-PVTZ-JKFIT
	 Reference Energy          =    -305.9393723081742564 [Eh]
	 Singles Energy            =      -0.0000000000000000 [Eh]
	 Same-Spin Energy          =      -0.2984171633004591 [Eh]
	 Opposite-Spin Energy      =      -0.9807085130639248 [Eh]
	 Correlation Energy        =      -1.2791256763643839 [Eh]
	 Total Energy              =    -307.2184979845386579 [Eh]

	 ================> DF-SCS-MP2 Energies <==================
	-----------------------------------------------------------
	 SCS Same-Spin Scale       =       0.3333333333333333 [-]
	 SCS Opposite-Spin Scale   =       1.2000000000000000 [-]
	 SCS Same-Spin Energy      =      -0.0994723877668197 [Eh]
	 SCS Opposite-Spin Energy  =      -1.1768502156767098 [Eh]
	 SCS Correlation Energy    =      -1.2763226034435295 [Eh]
	 SCS Total Energy          =    -307.2156949116177884 [Eh]
	-----------------------------------------------------------

  Dipole Moment: [D]
     X:    -0.0140      Y:     0.0187      Z:     0.0163     Total:     0.0285

*** Psi4 exiting successfully. Buy a developer a beer!
