                               Psi4 1.3.2 release

  ==> Input File <==

--------------------------------------------------------------------------
#psi4
#
memory 32 gb

molecule  {
0 1
  O       -0.0270474    -1.2941947    -0.3410908
  C        1.1670970    -0.7307880     0.2026760
  C        1.1670830     0.7308060    -0.2026730
  O       -0.0000090     1.3813690     0.3010510
  C       -1.1670960     0.7307910    -0.2026650
  C       -1.1670820    -0.7308090     0.2026660
  H        1.1989120    -0.8085610     1.3002060
  H        2.0246160    -1.2633060    -0.2188690
  H        2.0245970     1.2633380     0.2188660
  H        1.1989010     0.8085710    -1.3002050
  H       -1.1989250     0.8085650    -1.3001950
  H       -2.0246200     1.2632970     0.2188880
  H       -2.0246020    -1.2633280    -0.2188810
  H       -1.1989070    -0.8085810     1.3001960
units angstrom
no_reorient  #important for SAPT in psi4, default
symmetry c1  #important for SAPT in psi4, default
}

set PROPERTIES_ORIGIN ["COM"]
properties('MP2/aug-cc-pvtz', properties = ['dipole'])
--------------------------------------------------------------------------

    Molecular point group: c1
  Charge       = 0
  Multiplicity = 1
  Basis Set: AUG-CC-PVTZ
    Blend: AUG-CC-PVTZ
  Basis Set: (AUG-CC-PVTZ AUX)
    Blend: AUG-CC-PVTZ-JKFIT

    Orbital Energies [Eh]
    ---------------------

    Doubly Occupied:

       1A    -20.559954     2A    -20.559267     3A    -11.280593
       4A    -11.275965     5A    -11.274303     6A    -11.272766
       7A     -1.406324     8A     -1.357331     9A     -1.048876
      10A     -0.946805    11A     -0.889660    12A     -0.800727
      13A     -0.701255    14A     -0.656655    15A     -0.649625
      16A     -0.637199    17A     -0.633807    18A     -0.557693
      19A     -0.549522    20A     -0.513879    21A     -0.509694
      22A     -0.464799    23A     -0.456550    24A     -0.392064

  @DF-RHF Final Energy:  -305.93869324605623

   => Energetics <=

    Nuclear Repulsion Energy =            265.9554781883533678
    One-Electron Energy =                -944.9977144326244343
    Two-Electron Energy =                 373.1035429982148344
    Total Energy =                       -305.9386932460562321
  Basis Set: (AUG-CC-PVTZ AUX)
    Blend: AUG-CC-PVTZ-RI
    Molecular point group: c1

    Geometry (in Angstrom), charge = 0, multiplicity = 1:

       Center              X                  Y                   Z               Mass
    ------------   -----------------  -----------------  -----------------  -----------------
         O           -0.022132498396    -1.310030043265    -0.333818097372    15.994914619570
         C            1.172011901604    -0.746623343265     0.209948702628    12.000000000000
         C            1.171997901604     0.714970656735    -0.195400297372    12.000000000000
         O            0.004905901604     1.365533656735     0.308323702628    15.994914619570
         C           -1.162181098396     0.714955656735    -0.195392297372    12.000000000000
         C           -1.162167098396    -0.746644343265     0.209938702628    12.000000000000
         H            1.203826901604    -0.824396343265     1.307478702628     1.007825032230
         H            2.029530901604    -1.279141343265    -0.211596297372     1.007825032230
         H            2.029511901604     1.247502656735     0.226138702628     1.007825032230
         H            1.203815901604     0.792735656735    -1.292932297372     1.007825032230
         H           -1.194010098396     0.792729656735    -1.292922297372     1.007825032230
         H           -2.019705098396     1.247461656735     0.226160702628     1.007825032230
         H           -2.019687098396    -1.279163343265    -0.211608297372     1.007825032230
         H           -1.193992098396    -0.824416343265     1.307468702628     1.007825032230

  Basis Set: AUG-CC-PVTZ
    Blend: AUG-CC-PVTZ
  Basis Set: (AUG-CC-PVTZ AUX)
    Blend: AUG-CC-PVTZ-JKFIT
	 Reference Energy          =    -305.9386932460562321 [Eh]
	 Singles Energy            =      -0.0000000000000000 [Eh]
	 Same-Spin Energy          =      -0.2982198516660887 [Eh]
	 Opposite-Spin Energy      =      -0.9794536310737847 [Eh]
	 Correlation Energy        =      -1.2776734827398735 [Eh]
	 Total Energy              =    -307.2163667287961175 [Eh]

	 ================> DF-SCS-MP2 Energies <==================
	-----------------------------------------------------------
	 SCS Same-Spin Scale       =       0.3333333333333333 [-]
	 SCS Opposite-Spin Scale   =       1.2000000000000000 [-]
	 SCS Same-Spin Energy      =      -0.0994066172220296 [Eh]
	 SCS Opposite-Spin Energy  =      -1.1753443572885416 [Eh]
	 SCS Correlation Energy    =      -1.2747509745105712 [Eh]
	 SCS Total Energy          =    -307.2134442205668279 [Eh]
	-----------------------------------------------------------

  Dipole Moment: [D]
     X:     0.1376      Y:    -0.2455      Z:     0.0674     Total:     0.2893

*** Psi4 exiting successfully. Buy a developer a beer!
