                               Psi4 1.3.2 release

  ==> Input File <==

--------------------------------------------------------------------------
#psi4
#
memory 32 gb

molecule  {
0 1
  O        0.0000100    -1.3813680    -0.3010540
  C        1.0853663    -0.7763479     0.1674000
  C        1.1670830     0.7308060    -0.2026730
  O       -0.0000090     1.3813690     0.3010510
  C       -1.1670960     0.7307910    -0.2026650
  C       -1.1670820    -0.7308090     0.2026660
  H        1.1989120    -0.8085610     1.3002060
  H        2.0246160    -1.2633060    -0.2188690
  H        2.0245970     1.2633380     0.2188660
  H        1.1989010     0.8085710    -1.3002050
  H       -1.1989250     0.8085650    -1.3001950
  H       -2.0246200     1.2632970     0.2188880
  H       -2.0246020    -1.2633280    -0.2188810
  H       -1.1989070    -0.8085810     1.3001960
units angstrom
no_reorient  #important for SAPT in psi4, default
symmetry c1  #important for SAPT in psi4, default
}

set PROPERTIES_ORIGIN ["COM"]
properties('MP2/aug-cc-pvtz', properties = ['dipole'])
--------------------------------------------------------------------------

    Molecular point group: c1
  Charge       = 0
  Multiplicity = 1
  Basis Set: AUG-CC-PVTZ
    Blend: AUG-CC-PVTZ
  Basis Set: (AUG-CC-PVTZ AUX)
    Blend: AUG-CC-PVTZ-JKFIT

    Orbital Energies [Eh]
    ---------------------

    Doubly Occupied:

       1A    -20.570045     2A    -20.559404     3A    -11.284303
       4A    -11.280631     5A    -11.279982     6A    -11.275510
       7A     -1.424309     8A     -1.366082     9A     -1.045616
      10A     -0.946435    11A     -0.895739    12A     -0.797157
      13A     -0.704697    14A     -0.661665    15A     -0.653329
      16A     -0.641777    17A     -0.636959    18A     -0.568517
      19A     -0.548118    20A     -0.515647    21A     -0.506108
      22A     -0.461293    23A     -0.454398    24A     -0.389984

  @DF-RHF Final Energy:  -305.93236895188772

   => Energetics <=

    Nuclear Repulsion Energy =            265.5305825397904869
    One-Electron Energy =                -943.9904927257159670
    Two-Electron Energy =                 372.5275412340378125
    Total Energy =                       -305.9323689518877245
  Basis Set: (AUG-CC-PVTZ AUX)
    Blend: AUG-CC-PVTZ-RI
    Molecular point group: c1

    Geometry (in Angstrom), charge = 0, multiplicity = 1:

       Center              X                  Y                   Z               Mass
    ------------   -----------------  -----------------  -----------------  -----------------
         O            0.011148325538    -1.375159110054    -0.296246569470    15.994914619570
         C            1.096504625538    -0.770139010054     0.172207430530    12.000000000000
         C            1.178221325538     0.737014889946    -0.197865569470    12.000000000000
         O            0.011129325538     1.387577889946     0.305858430530    15.994914619570
         C           -1.155957674462     0.736999889946    -0.197857569470    12.000000000000
         C           -1.155943674462    -0.724600110054     0.207473430530    12.000000000000
         H            1.210050325538    -0.802352110054     1.305013430530     1.007825032230
         H            2.035754325538    -1.257097110054    -0.214061569470     1.007825032230
         H            2.035735325538     1.269546889946     0.223673430530     1.007825032230
         H            1.210039325538     0.814779889946    -1.295397569470     1.007825032230
         H           -1.187786674462     0.814773889946    -1.295387569470     1.007825032230
         H           -2.013481674462     1.269505889946     0.223695430530     1.007825032230
         H           -2.013463674462    -1.257119110054    -0.214073569470     1.007825032230
         H           -1.187768674462    -0.802372110054     1.305003430530     1.007825032230

  Basis Set: AUG-CC-PVTZ
    Blend: AUG-CC-PVTZ
  Basis Set: (AUG-CC-PVTZ AUX)
    Blend: AUG-CC-PVTZ-JKFIT
	 Reference Energy          =    -305.9323689518877245 [Eh]
	 Singles Energy            =      -0.0000000000000000 [Eh]
	 Same-Spin Energy          =      -0.2983679754619976 [Eh]
	 Opposite-Spin Energy      =      -0.9794885567538397 [Eh]
	 Correlation Energy        =      -1.2778565322158373 [Eh]
	 Total Energy              =    -307.2102254841035460 [Eh]

	 ================> DF-SCS-MP2 Energies <==================
	-----------------------------------------------------------
	 SCS Same-Spin Scale       =       0.3333333333333333 [-]
	 SCS Opposite-Spin Scale   =       1.2000000000000000 [-]
	 SCS Same-Spin Energy      =      -0.0994559918206658 [Eh]
	 SCS Opposite-Spin Energy  =      -1.1753862681046077 [Eh]
	 SCS Correlation Energy    =      -1.2748422599252736 [Eh]
	 SCS Total Energy          =    -307.2072112118129894 [Eh]
	-----------------------------------------------------------

  Dipole Moment: [D]
     X:    -0.3491      Y:    -0.1069      Z:    -0.1158     Total:     0.3830

*** Psi4 exiting successfully. Buy a developer a beer!
