                               Psi4 1.3.2 release

  ==> Input File <==

--------------------------------------------------------------------------
#psi4
#
memory 32 gb

molecule  {
0 1
  O        0.0000100    -1.3813680    -0.3010540
  C        1.1670970    -0.7307880     0.2026760
  C        1.1670812     0.9235316    -0.2561223
  O       -0.0000090     1.3813690     0.3010510
  C       -1.1670960     0.7307910    -0.2026650
  C       -1.1670820    -0.7308090     0.2026660
  H        1.1989120    -0.8085610     1.3002060
  H        2.0246160    -1.2633060    -0.2188690
  H        2.0245970     1.2633380     0.2188660
  H        1.1989010     0.8085710    -1.3002050
  H       -1.1989250     0.8085650    -1.3001950
  H       -2.0246200     1.2632970     0.2188880
  H       -2.0246020    -1.2633280    -0.2188810
  H       -1.1989070    -0.8085810     1.3001960
units angstrom
no_reorient  #important for SAPT in psi4, default
symmetry c1  #important for SAPT in psi4, default
}

set PROPERTIES_ORIGIN ["COM"]
properties('MP2/aug-cc-pvtz', properties = ['dipole'])
--------------------------------------------------------------------------

    Molecular point group: c1
  Charge       = 0
  Multiplicity = 1
  Basis Set: AUG-CC-PVTZ
    Blend: AUG-CC-PVTZ
  Basis Set: (AUG-CC-PVTZ AUX)
    Blend: AUG-CC-PVTZ-JKFIT

    Orbital Energies [Eh]
    ---------------------

    Doubly Occupied:

       1A    -20.564103     2A    -20.559298     3A    -11.283040
       4A    -11.278621     5A    -11.277774     6A    -11.275461
       7A     -1.403218     8A     -1.359717     9A     -1.037429
      10A     -0.931613    11A     -0.896236    12A     -0.802955
      13A     -0.694604    14A     -0.664925    15A     -0.659582
      16A     -0.635523    17A     -0.630568    18A     -0.556493
      19A     -0.544850    20A     -0.520567    21A     -0.505367
      22A     -0.472844    23A     -0.456425    24A     -0.363271

  @DF-RHF Final Energy:  -305.91255061458332

   => Energetics <=

    Nuclear Repulsion Energy =            262.5535125564562691
    One-Electron Energy =                -938.1831589917840120
    Two-Electron Energy =                 369.7170958207443618
    Total Energy =                       -305.9125506145833242
  Basis Set: (AUG-CC-PVTZ AUX)
    Blend: AUG-CC-PVTZ-RI
    Molecular point group: c1

    Geometry (in Angstrom), charge = 0, multiplicity = 1:

       Center              X                  Y                   Z               Mass
    ------------   -----------------  -----------------  -----------------  -----------------
         O            0.000010111572    -1.407633239574    -0.293769867791    15.994914619570
         C            1.167097111572    -0.757053239574     0.209960132209    12.000000000000
         C            1.167081311572     0.897266360426    -0.248838167791    12.000000000000
         O           -0.000008888428     1.355103760426     0.308335132209    15.994914619570
         C           -1.167095888428     0.704525760426    -0.195380867791    12.000000000000
         C           -1.167081888428    -0.757074239574     0.209950132209    12.000000000000
         H            1.198912111572    -0.834826239574     1.307490132209     1.007825032230
         H            2.024616111572    -1.289571239574    -0.211584867791     1.007825032230
         H            2.024597111572     1.237072760426     0.226150132209     1.007825032230
         H            1.198901111572     0.782305760426    -1.292920867791     1.007825032230
         H           -1.198924888428     0.782299760426    -1.292910867791     1.007825032230
         H           -2.024619888428     1.237031760426     0.226172132209     1.007825032230
         H           -2.024601888428    -1.289593239574    -0.211596867791     1.007825032230
         H           -1.198906888428    -0.834846239574     1.307480132209     1.007825032230

  Basis Set: AUG-CC-PVTZ
    Blend: AUG-CC-PVTZ
  Basis Set: (AUG-CC-PVTZ AUX)
    Blend: AUG-CC-PVTZ-JKFIT
	 Reference Energy          =    -305.9125506145833242 [Eh]
	 Singles Energy            =      -0.0000000000000000 [Eh]
	 Same-Spin Energy          =      -0.2982277214266833 [Eh]
	 Opposite-Spin Energy      =      -0.9811089128950965 [Eh]
	 Correlation Energy        =      -1.2793366343217798 [Eh]
	 Total Energy              =    -307.1918872489051182 [Eh]

	 ================> DF-SCS-MP2 Energies <==================
	-----------------------------------------------------------
	 SCS Same-Spin Scale       =       0.3333333333333333 [-]
	 SCS Opposite-Spin Scale   =       1.2000000000000000 [-]
	 SCS Same-Spin Energy      =      -0.0994092404755611 [Eh]
	 SCS Opposite-Spin Energy  =      -1.1773306954741158 [Eh]
	 SCS Correlation Energy    =      -1.2767399359496769 [Eh]
	 SCS Total Energy          =    -307.1892905505329736 [Eh]
	-----------------------------------------------------------

  Dipole Moment: [D]
     X:    -0.2040      Y:     0.2362      Z:    -0.0559     Total:     0.3171

*** Psi4 exiting successfully. Buy a developer a beer!
