                               Psi4 1.3.2 release

  ==> Input File <==

--------------------------------------------------------------------------
#psi4
#
memory 32 gb

molecule  {
0 1
  O        0.0000100    -1.3813680    -0.3010540
  C        1.0036357    -0.8219077     0.1321240
  C        1.1670830     0.7308060    -0.2026730
  O       -0.0000090     1.3813690     0.3010510
  C       -1.1670960     0.7307910    -0.2026650
  C       -1.1670820    -0.7308090     0.2026660
  H        1.1989120    -0.8085610     1.3002060
  H        2.0246160    -1.2633060    -0.2188690
  H        2.0245970     1.2633380     0.2188660
  H        1.1989010     0.8085710    -1.3002050
  H       -1.1989250     0.8085650    -1.3001950
  H       -2.0246200     1.2632970     0.2188880
  H       -2.0246020    -1.2633280    -0.2188810
  H       -1.1989070    -0.8085810     1.3001960
units angstrom
no_reorient  #important for SAPT in psi4, default
symmetry c1  #important for SAPT in psi4, default
}

set PROPERTIES_ORIGIN ["COM"]
properties('MP2/aug-cc-pvtz', properties = ['dipole'])
--------------------------------------------------------------------------

    Molecular point group: c1
  Charge       = 0
  Multiplicity = 1
  Basis Set: AUG-CC-PVTZ
    Blend: AUG-CC-PVTZ
  Basis Set: (AUG-CC-PVTZ AUX)
    Blend: AUG-CC-PVTZ-JKFIT

    Orbital Energies [Eh]
    ---------------------

    Doubly Occupied:

       1A    -20.580099     2A    -20.557688     3A    -11.292183
       4A    -11.285647     5A    -11.284125     6A    -11.272587
       7A     -1.473452     8A     -1.369675     9A     -1.049961
      10A     -0.940127    11A     -0.905288    12A     -0.797280
      13A     -0.716993    14A     -0.681920    15A     -0.668123
      16A     -0.640378    17A     -0.638352    18A     -0.584323
      19A     -0.543980    20A     -0.520293    21A     -0.506643
      22A     -0.460378    23A     -0.435588    24A     -0.375520

  @DF-RHF Final Energy:  -305.89784675279213

   => Energetics <=

    Nuclear Repulsion Energy =            266.9755728587390990
    One-Electron Energy =                -946.5856312545098490
    Two-Electron Energy =                 373.7122116429785592
    Total Energy =                       -305.8978467527921339
  Basis Set: (AUG-CC-PVTZ AUX)
    Blend: AUG-CC-PVTZ-RI
    Molecular point group: c1

    Geometry (in Angstrom), charge = 0, multiplicity = 1:

       Center              X                  Y                   Z               Mass
    ------------   -----------------  -----------------  -----------------  -----------------
         O            0.022286771185    -1.368950109313    -0.291439070093    15.994914619570
         C            1.025912471185    -0.809489809313     0.141738929907    12.000000000000
         C            1.189359771185     0.743223890687    -0.193058070093    12.000000000000
         O            0.022267771185     1.393786890687     0.310665929907    15.994914619570
         C           -1.144819228815     0.743208890687    -0.193050070093    12.000000000000
         C           -1.144805228815    -0.718391109313     0.212280929907    12.000000000000
         H            1.221188771185    -0.796143109313     1.309820929907     1.007825032230
         H            2.046892771185    -1.250888109313    -0.209254070093     1.007825032230
         H            2.046873771185     1.275755890687     0.228480929907     1.007825032230
         H            1.221177771185     0.820988890687    -1.290590070093     1.007825032230
         H           -1.176648228815     0.820982890687    -1.290580070093     1.007825032230
         H           -2.002343228815     1.275714890687     0.228502929907     1.007825032230
         H           -2.002325228815    -1.250910109313    -0.209266070093     1.007825032230
         H           -1.176630228815    -0.796163109313     1.309810929907     1.007825032230

  Basis Set: AUG-CC-PVTZ
    Blend: AUG-CC-PVTZ
  Basis Set: (AUG-CC-PVTZ AUX)
    Blend: AUG-CC-PVTZ-JKFIT
	 Reference Energy          =    -305.8978467527921339 [Eh]
	 Singles Energy            =      -0.0000000000000000 [Eh]
	 Same-Spin Energy          =      -0.2992258418736486 [Eh]
	 Opposite-Spin Energy      =      -0.9798234441255823 [Eh]
	 Correlation Energy        =      -1.2790492859992311 [Eh]
	 Total Energy              =    -307.1768960387913694 [Eh]

	 ================> DF-SCS-MP2 Energies <==================
	-----------------------------------------------------------
	 SCS Same-Spin Scale       =       0.3333333333333333 [-]
	 SCS Opposite-Spin Scale   =       1.2000000000000000 [-]
	 SCS Same-Spin Energy      =      -0.0997419472912162 [Eh]
	 SCS Opposite-Spin Energy  =      -1.1757881329506987 [Eh]
	 SCS Correlation Energy    =      -1.2755300802419149 [Eh]
	 SCS Total Energy          =    -307.1733768330340695 [Eh]
	-----------------------------------------------------------

  Dipole Moment: [D]
     X:    -0.8027      Y:    -0.2297      Z:    -0.2746     Total:     0.8789

*** Psi4 exiting successfully. Buy a developer a beer!
