                               Psi4 1.3.2 release

  ==> Input File <==

--------------------------------------------------------------------------
#psi4
#
memory 32 gb

molecule  {
0 1
  O        0.0000100    -1.3813680    -0.3010540
  C        1.1893963    -0.7267532     0.2163595
  C        1.1670830     0.7308060    -0.2026730
  O       -0.0000090     1.3813690     0.3010510
  C       -1.1670960     0.7307910    -0.2026650
  C       -1.1670820    -0.7308090     0.2026660
  H        1.1989120    -0.8085610     1.3002060
  H        2.0246160    -1.2633060    -0.2188690
  H        2.0245970     1.2633380     0.2188660
  H        1.1989010     0.8085710    -1.3002050
  H       -1.1989250     0.8085650    -1.3001950
  H       -2.0246200     1.2632970     0.2188880
  H       -2.0246020    -1.2633280    -0.2188810
  H       -1.1989070    -0.8085810     1.3001960
units angstrom
no_reorient  #important for SAPT in psi4, default
symmetry c1  #important for SAPT in psi4, default
}

set PROPERTIES_ORIGIN ["COM"]
properties('MP2/aug-cc-pvtz', properties = ['dipole'])
--------------------------------------------------------------------------

    Molecular point group: c1
  Charge       = 0
  Multiplicity = 1
  Basis Set: AUG-CC-PVTZ
    Blend: AUG-CC-PVTZ
  Basis Set: (AUG-CC-PVTZ AUX)
    Blend: AUG-CC-PVTZ-JKFIT

    Orbital Energies [Eh]
    ---------------------

    Doubly Occupied:

       1A    -20.561771     2A    -20.559013     3A    -11.278911
       4A    -11.277765     5A    -11.277468     6A    -11.276505
       7A     -1.392598     8A     -1.349437     9A     -1.045963
      10A     -0.952153    11A     -0.886885    12A     -0.799289
      13A     -0.695080    14A     -0.651075    15A     -0.649648
      16A     -0.632851    17A     -0.631999    18A     -0.555326
      19A     -0.550549    20A     -0.514559    21A     -0.510790
      22A     -0.460681    23A     -0.459310    24A     -0.398881

  @DF-RHF Final Energy:  -305.93938263297531

   => Energetics <=

    Nuclear Repulsion Energy =            263.8340572576994418
    One-Electron Energy =                -940.8098618736397611
    Two-Electron Energy =                 371.0364219829650096
    Total Energy =                       -305.9393826329753097
  Basis Set: (AUG-CC-PVTZ AUX)
    Blend: AUG-CC-PVTZ-RI
    Molecular point group: c1

    Geometry (in Angstrom), charge = 0, multiplicity = 1:

       Center              X                  Y                   Z               Mass
    ------------   -----------------  -----------------  -----------------  -----------------
         O           -0.003029136766    -1.381917996815    -0.302918889625    15.994914619570
         C            1.186357163234    -0.727303196815     0.214494610375    12.000000000000
         C            1.164043863234     0.730256003185    -0.204537889625    12.000000000000
         O           -0.003048136766     1.380819003185     0.299186110375    15.994914619570
         C           -1.170135136766     0.730241003185    -0.204529889625    12.000000000000
         C           -1.170121136766    -0.731358996815     0.200801110375    12.000000000000
         H            1.195872863234    -0.809110996815     1.298341110375     1.007825032230
         H            2.021576863234    -1.263855996815    -0.220733889625     1.007825032230
         H            2.021557863234     1.262788003185     0.217001110375     1.007825032230
         H            1.195861863234     0.808021003185    -1.302069889625     1.007825032230
         H           -1.201964136766     0.808015003185    -1.302059889625     1.007825032230
         H           -2.027659136766     1.262747003185     0.217023110375     1.007825032230
         H           -2.027641136766    -1.263877996815    -0.220745889625     1.007825032230
         H           -1.201946136766    -0.809130996815     1.298331110375     1.007825032230

  Basis Set: AUG-CC-PVTZ
    Blend: AUG-CC-PVTZ
  Basis Set: (AUG-CC-PVTZ AUX)
    Blend: AUG-CC-PVTZ-JKFIT
	 Reference Energy          =    -305.9393826329753097 [Eh]
	 Singles Energy            =      -0.0000000000000000 [Eh]
	 Same-Spin Energy          =      -0.2982691537711131 [Eh]
	 Opposite-Spin Energy      =      -0.9808453344754953 [Eh]
	 Correlation Energy        =      -1.2791144882466083 [Eh]
	 Total Energy              =    -307.2184971212219011 [Eh]

	 ================> DF-SCS-MP2 Energies <==================
	-----------------------------------------------------------
	 SCS Same-Spin Scale       =       0.3333333333333333 [-]
	 SCS Opposite-Spin Scale   =       1.2000000000000000 [-]
	 SCS Same-Spin Energy      =      -0.0994230512570377 [Eh]
	 SCS Opposite-Spin Energy  =      -1.1770144013705943 [Eh]
	 SCS Correlation Energy    =      -1.2764374526276321 [Eh]
	 SCS Total Energy          =    -307.2158200856029566 [Eh]
	-----------------------------------------------------------

  Dipole Moment: [D]
     X:     0.0758      Y:     0.0174      Z:     0.0314     Total:     0.0839

*** Psi4 exiting successfully. Buy a developer a beer!
