                               Psi4 1.3.2 release

  ==> Input File <==

--------------------------------------------------------------------------
#psi4
#
memory 32 gb

molecule  {
0 1
  O        0.0000100    -1.3813680    -0.3010540
  C        1.1670970    -0.7307880     0.2026760
  C        1.1670830     0.7308060    -0.2026730
  O       -0.0000090     1.3813690     0.3010510
  C       -1.1670960     0.7307910    -0.2026650
  C       -1.1670820    -0.7308090     0.2026660
  H        1.1960217    -0.8014955     1.2004978
  H        2.0246160    -1.2633060    -0.2188690
  H        2.0245970     1.2633380     0.2188660
  H        1.1989010     0.8085710    -1.3002050
  H       -1.1989250     0.8085650    -1.3001950
  H       -2.0246200     1.2632970     0.2188880
  H       -2.0246020    -1.2633280    -0.2188810
  H       -1.1989070    -0.8085810     1.3001960
units angstrom
no_reorient  #important for SAPT in psi4, default
symmetry c1  #important for SAPT in psi4, default
}

set PROPERTIES_ORIGIN ["COM"]
properties('MP2/aug-cc-pvtz', properties = ['dipole'])
--------------------------------------------------------------------------

    Molecular point group: c1
  Charge       = 0
  Multiplicity = 1
  Basis Set: AUG-CC-PVTZ
    Blend: AUG-CC-PVTZ
  Basis Set: (AUG-CC-PVTZ AUX)
    Blend: AUG-CC-PVTZ-JKFIT

    Orbital Energies [Eh]
    ---------------------

    Doubly Occupied:

       1A    -20.561141     2A    -20.559341     3A    -11.278004
       4A    -11.277348     5A    -11.276904     6A    -11.265540
       7A     -1.396006     8A     -1.353621     9A     -1.048410
      10A     -0.954438    11A     -0.890623    12A     -0.805831
      13A     -0.696481    14A     -0.658215    15A     -0.649592
      16A     -0.636499    17A     -0.634434    18A     -0.553920
      19A     -0.553199    20A     -0.518046    21A     -0.510957
      22A     -0.462875    23A     -0.459613    24A     -0.398054

  @DF-RHF Final Energy:  -305.93512756892341

   => Energetics <=

    Nuclear Repulsion Energy =            264.7563267932659983
    One-Electron Energy =                -942.5847279286072080
    Two-Electron Energy =                 371.8932735664178040
    Total Energy =                       -305.9351275689234058
  Basis Set: (AUG-CC-PVTZ AUX)
    Blend: AUG-CC-PVTZ-RI
    Molecular point group: c1

    Geometry (in Angstrom), charge = 0, multiplicity = 1:

       Center              X                  Y                   Z               Mass
    ------------   -----------------  -----------------  -----------------  -----------------
         O            0.000042947880    -1.381448994285    -0.299912834921    15.994914619570
         C            1.167129947880    -0.730868994285     0.203817165079    12.000000000000
         C            1.167115947880     0.730725005715    -0.201531834921    12.000000000000
         O            0.000023947880     1.381288005715     0.302192165079    15.994914619570
         C           -1.167063052120     0.730710005715    -0.201523834921    12.000000000000
         C           -1.167049052120    -0.730889994285     0.203807165079    12.000000000000
         H            1.196054647880    -0.801576494285     1.201638965079     1.007825032230
         H            2.024648947880    -1.263386994285    -0.217727834921     1.007825032230
         H            2.024629947880     1.263257005715     0.220007165079     1.007825032230
         H            1.198933947880     0.808490005715    -1.299063834921     1.007825032230
         H           -1.198892052120     0.808484005715    -1.299053834921     1.007825032230
         H           -2.024587052120     1.263216005715     0.220029165079     1.007825032230
         H           -2.024569052120    -1.263408994285    -0.217739834921     1.007825032230
         H           -1.198874052120    -0.808661994285     1.301337165079     1.007825032230

  Basis Set: AUG-CC-PVTZ
    Blend: AUG-CC-PVTZ
  Basis Set: (AUG-CC-PVTZ AUX)
    Blend: AUG-CC-PVTZ-JKFIT
	 Reference Energy          =    -305.9351275689234058 [Eh]
	 Singles Energy            =      -0.0000000000000000 [Eh]
	 Same-Spin Energy          =      -0.2981168551567409 [Eh]
	 Opposite-Spin Energy      =      -0.9798382951086235 [Eh]
	 Correlation Energy        =      -1.2779551502653645 [Eh]
	 Total Energy              =    -307.2130827191887761 [Eh]

	 ================> DF-SCS-MP2 Energies <==================
	-----------------------------------------------------------
	 SCS Same-Spin Scale       =       0.3333333333333333 [-]
	 SCS Opposite-Spin Scale   =       1.2000000000000000 [-]
	 SCS Same-Spin Energy      =      -0.0993722850522470 [Eh]
	 SCS Opposite-Spin Energy  =      -1.1758059541303483 [Eh]
	 SCS Correlation Energy    =      -1.2751782391825952 [Eh]
	 SCS Total Energy          =    -307.2103058081059999 [Eh]
	-----------------------------------------------------------

  Dipole Moment: [D]
     X:     0.0304      Y:    -0.0097      Z:     0.0670     Total:     0.0742

*** Psi4 exiting successfully. Buy a developer a beer!
