                               Psi4 1.4a3.dev225

  ==> Input File <==

--------------------------------------------------------------------------
#psi4
#
memory 32 gb

molecule  {
0 1
  O       -0.0000180     1.3809610     0.3010860
  C        1.1835681     0.7216250    -0.2098330
  C        1.1672390    -0.7307030     0.2027780
  O        0.0000190    -1.3809610    -0.3010890
  C       -1.1672200    -0.7307320     0.2027770
  C       -1.1672400     0.7307030    -0.2027760
  H        1.1992140     0.8075630    -1.3002910
  H        2.0246220     1.2638070     0.2183330
  H        2.0246560    -1.2637540    -0.2183310
  H        1.1992320    -0.8075370     1.3002920
  H       -1.1992100    -0.8075640     1.3002920
  H       -2.0246220    -1.2638090    -0.2183310
  H       -2.0246550     1.2637560     0.2183340
  H       -1.1992350     0.8075320    -1.3002910
units angstrom
no_reorient  #important for SAPT in psi4, default
symmetry c1  #important for SAPT in psi4, default
}

set PROPERTIES_ORIGIN ["COM"]
properties('MP2/aug-cc-pvtz', properties = ['dipole'])
--------------------------------------------------------------------------

    Molecular point group: c1
  Charge       = 0
  Multiplicity = 1
  Basis Set: AUG-CC-PVTZ
    Blend: AUG-CC-PVTZ
  Basis Set: (AUG-CC-PVTZ AUX)
    Blend: AUG-CC-PVTZ-JKFIT

    Orbital Energies [Eh]
    ---------------------

    Doubly Occupied:

       1A    -20.561772     2A    -20.559623     3A    -11.278679
       4A    -11.277874     5A    -11.277658     6A    -11.276721
       7A     -1.393570     8A     -1.350508     9A     -1.046687
      10A     -0.952863    11A     -0.886869    12A     -0.798848
      13A     -0.695897    14A     -0.650734    15A     -0.649461
      16A     -0.633778    17A     -0.632185    18A     -0.556023
      19A     -0.551387    20A     -0.513215    21A     -0.510653
      22A     -0.460734    23A     -0.459209    24A     -0.399605

  @DF-RHF Final Energy:  -305.93967124163396

   => Energetics <=

    Nuclear Repulsion Energy =            264.0148571188036613
    One-Electron Energy =                -941.1599519917688212
    Two-Electron Energy =                 371.2054236313312003
    Total Energy =                       -305.9396712416339597
  Basis Set: (AUG-CC-PVTZ AUX)
    Blend: AUG-CC-PVTZ-RI
    Molecular point group: c1

    Geometry (in Angstrom), charge = 0, multiplicity = 1:

       Center              X                  Y                   Z               Mass
    ------------   -----------------  -----------------  -----------------  -----------------
         O           -0.002246027230     1.382202192862     0.302047801173    15.994914619570
         C            1.181340072770     0.722866192862    -0.208871198827    12.000000000000
         C            1.165010972770    -0.729461807138     0.203739801173    12.000000000000
         O           -0.002209027230    -1.379719807138    -0.300127198827    15.994914619570
         C           -1.169448027230    -0.729490807138     0.203738801173    12.000000000000
         C           -1.169468027230     0.731944192862    -0.201814198827    12.000000000000
         H            1.196985972770     0.808804192862    -1.299329198827     1.007825032230
         H            2.022393972770     1.265048192862     0.219294801173     1.007825032230
         H            2.022427972770    -1.262512807138    -0.217369198827     1.007825032230
         H            1.197003972770    -0.806295807138     1.301253801173     1.007825032230
         H           -1.201438027230    -0.806322807138     1.301253801173     1.007825032230
         H           -2.026850027230    -1.262567807138    -0.217369198827     1.007825032230
         H           -2.026883027230     1.264997192862     0.219295801173     1.007825032230
         H           -1.201463027230     0.808773192862    -1.299329198827     1.007825032230

  Basis Set: AUG-CC-PVTZ
    Blend: AUG-CC-PVTZ
  Basis Set: (AUG-CC-PVTZ AUX)
    Blend: AUG-CC-PVTZ-JKFIT
	 Reference Energy          =    -305.9396712416339597 [Eh]
	 Singles Energy            =      -0.0000000000000000 [Eh]
	 Same-Spin Energy          =      -0.2983211173611565 [Eh]
	 Opposite-Spin Energy      =      -0.9808140627297282 [Eh]
	 Correlation Energy        =      -1.2791351800908846 [Eh]
	 Total Energy              =    -307.2188064217248211 [Eh]

	 ================> DF-SCS-MP2 Energies <==================
	-----------------------------------------------------------
	 SCS Same-Spin Scale       =       0.3333333333333333 [-]
	 SCS Opposite-Spin Scale   =       1.2000000000000000 [-]
	 SCS Same-Spin Energy      =      -0.0994403724537188 [Eh]
	 SCS Opposite-Spin Energy  =      -1.1769768752756737 [Eh]
	 SCS Correlation Energy    =      -1.2764172477293925 [Eh]
	 SCS Total Energy          =    -307.2160884893633579 [Eh]
	-----------------------------------------------------------

  Dipole Moment: [D]
     X:     0.0604      Y:    -0.0202      Z:    -0.0192     Total:     0.0665

*** Psi4 exiting successfully. Buy a developer a beer!
