                               Psi4 1.3.2 release

  ==> Input File <==

--------------------------------------------------------------------------
#psi4
#
memory 32 gb

molecule  {
0 1
  O        0.0327533    -1.4653718    -0.2585630
  C        1.1670970    -0.7307880     0.2026760
  C        1.1670830     0.7308060    -0.2026730
  O       -0.0000090     1.3813690     0.3010510
  C       -1.1670960     0.7307910    -0.2026650
  C       -1.1670820    -0.7308090     0.2026660
  H        1.1989120    -0.8085610     1.3002060
  H        2.0246160    -1.2633060    -0.2188690
  H        2.0245970     1.2633380     0.2188660
  H        1.1989010     0.8085710    -1.3002050
  H       -1.1989250     0.8085650    -1.3001950
  H       -2.0246200     1.2632970     0.2188880
  H       -2.0246020    -1.2633280    -0.2188810
  H       -1.1989070    -0.8085810     1.3001960
units angstrom
no_reorient  #important for SAPT in psi4, default
symmetry c1  #important for SAPT in psi4, default
}

set PROPERTIES_ORIGIN ["COM"]
properties('MP2/aug-cc-pvtz', properties = ['dipole'])
--------------------------------------------------------------------------

    Molecular point group: c1
  Charge       = 0
  Multiplicity = 1
  Basis Set: AUG-CC-PVTZ
    Blend: AUG-CC-PVTZ
  Basis Set: (AUG-CC-PVTZ AUX)
    Blend: AUG-CC-PVTZ-JKFIT

    Orbital Energies [Eh]
    ---------------------

    Doubly Occupied:

       1A    -20.563120     2A    -20.562807     3A    -11.283327
       4A    -11.282326     5A    -11.280099     6A    -11.275435
       7A     -1.390126     8A     -1.347937     9A     -1.044021
      10A     -0.956873    11A     -0.885477    12A     -0.797219
      13A     -0.693711    14A     -0.650812    15A     -0.648484
      16A     -0.631620    17A     -0.630675    18A     -0.557813
      19A     -0.552108    20A     -0.513710    21A     -0.506601
      22A     -0.463876    23A     -0.455553    24A     -0.404001

  @DF-RHF Final Energy:  -305.93503175397200

   => Energetics <=

    Nuclear Repulsion Energy =            262.5636789695794846
    One-Electron Energy =                -938.2419558495771525
    Two-Electron Energy =                 369.7432451260256130
    Total Energy =                       -305.9350317539719981
  Basis Set: (AUG-CC-PVTZ AUX)
    Blend: AUG-CC-PVTZ-RI
    Molecular point group: c1

    Geometry (in Angstrom), charge = 0, multiplicity = 1:

       Center              X                  Y                   Z               Mass
    ------------   -----------------  -----------------  -----------------  -----------------
         O            0.026805274867    -1.450112452125    -0.266281651072    15.994914619570
         C            1.161148974867    -0.715528652125     0.194957348928    12.000000000000
         C            1.161134974867     0.746065347875    -0.210391651072    12.000000000000
         O           -0.005957025133     1.396628347875     0.293332348928    15.994914619570
         C           -1.173044025133     0.746050347875    -0.210383651072    12.000000000000
         C           -1.173030025133    -0.715549652125     0.194947348928    12.000000000000
         H            1.192963974867    -0.793301652125     1.292487348928     1.007825032230
         H            2.018667974867    -1.248046652125    -0.226587651072     1.007825032230
         H            2.018648974867     1.278597347875     0.211147348928     1.007825032230
         H            1.192952974867     0.823830347875    -1.307923651072     1.007825032230
         H           -1.204873025133     0.823824347875    -1.307913651072     1.007825032230
         H           -2.030568025133     1.278556347875     0.211169348928     1.007825032230
         H           -2.030550025133    -1.248068652125    -0.226599651072     1.007825032230
         H           -1.204855025133    -0.793321652125     1.292477348928     1.007825032230

  Basis Set: AUG-CC-PVTZ
    Blend: AUG-CC-PVTZ
  Basis Set: (AUG-CC-PVTZ AUX)
    Blend: AUG-CC-PVTZ-JKFIT
	 Reference Energy          =    -305.9350317539719981 [Eh]
	 Singles Energy            =      -0.0000000000000000 [Eh]
	 Same-Spin Energy          =      -0.2985809416705392 [Eh]
	 Opposite-Spin Energy      =      -0.9821482276909465 [Eh]
	 Correlation Energy        =      -1.2807291693614857 [Eh]
	 Total Energy              =    -307.2157609233335052 [Eh]

	 ================> DF-SCS-MP2 Energies <==================
	-----------------------------------------------------------
	 SCS Same-Spin Scale       =       0.3333333333333333 [-]
	 SCS Opposite-Spin Scale   =       1.2000000000000000 [-]
	 SCS Same-Spin Energy      =      -0.0995269805568464 [Eh]
	 SCS Opposite-Spin Energy  =      -1.1785778732291357 [Eh]
	 SCS Correlation Energy    =      -1.2781048537859820 [Eh]
	 SCS Total Energy          =    -307.2131366077579742 [Eh]
	-----------------------------------------------------------

  Dipole Moment: [D]
     X:    -0.1471      Y:     0.2311      Z:    -0.0709     Total:     0.2830

*** Psi4 exiting successfully. Buy a developer a beer!
