                               Psi4 1.3.2 release

  ==> Input File <==

--------------------------------------------------------------------------
#psi4
#
memory 32 gb

molecule  {
0 1
  O        0.0076685    -1.4026824    -0.2906534
  C        1.1670970    -0.7307880     0.2026760
  C        1.1670830     0.7308060    -0.2026730
  O       -0.0000090     1.3813690     0.3010510
  C       -1.1670960     0.7307910    -0.2026650
  C       -1.1670820    -0.7308090     0.2026660
  H        1.1989120    -0.8085610     1.3002060
  H        2.0246160    -1.2633060    -0.2188690
  H        2.0245970     1.2633380     0.2188660
  H        1.1989010     0.8085710    -1.3002050
  H       -1.1989250     0.8085650    -1.3001950
  H       -2.0246200     1.2632970     0.2188880
  H       -2.0246020    -1.2633280    -0.2188810
  H       -1.1989070    -0.8085810     1.3001960
units angstrom
no_reorient  #important for SAPT in psi4, default
symmetry c1  #important for SAPT in psi4, default
}

set PROPERTIES_ORIGIN ["COM"]
properties('MP2/aug-cc-pvtz', properties = ['dipole'])
--------------------------------------------------------------------------

    Molecular point group: c1
  Charge       = 0
  Multiplicity = 1
  Basis Set: AUG-CC-PVTZ
    Blend: AUG-CC-PVTZ
  Basis Set: (AUG-CC-PVTZ AUX)
    Blend: AUG-CC-PVTZ-JKFIT

    Orbital Energies [Eh]
    ---------------------

    Doubly Occupied:

       1A    -20.561823     2A    -20.561704     3A    -11.279543
       4A    -11.278841     5A    -11.278616     6A    -11.277286
       7A     -1.394512     8A     -1.353027     9A     -1.045501
      10A     -0.953191    11A     -0.887569    12A     -0.798088
      13A     -0.696125    14A     -0.650342    15A     -0.648727
      16A     -0.635602    17A     -0.632899    18A     -0.555245
      19A     -0.553731    20A     -0.512027    21A     -0.510609
      22A     -0.461459    23A     -0.458969    24A     -0.400030

  @DF-RHF Final Energy:  -305.93974376655819

   => Energetics <=

    Nuclear Repulsion Energy =            263.8243537407740291
    One-Electron Energy =                -940.7572597189207499
    Two-Electron Energy =                 370.9931622115884693
    Total Energy =                       -305.9397437665581947
  Basis Set: (AUG-CC-PVTZ AUX)
    Blend: AUG-CC-PVTZ-RI
    Molecular point group: c1

    Geometry (in Angstrom), charge = 0, multiplicity = 1:

       Center              X                  Y                   Z               Mass
    ------------   -----------------  -----------------  -----------------  -----------------
         O            0.006277183143    -1.398810717477    -0.292542760375    15.994914619570
         C            1.165705683143    -0.726916317477     0.200786639625    12.000000000000
         C            1.165691683143     0.734677682523    -0.204562360375    12.000000000000
         O           -0.001400316857     1.385240682523     0.299161639625    15.994914619570
         C           -1.168487316857     0.734662682523    -0.204554360375    12.000000000000
         C           -1.168473316857    -0.726937317477     0.200776639625    12.000000000000
         H            1.197520683143    -0.804689317477     1.298316639625     1.007825032230
         H            2.023224683143    -1.259434317477    -0.220758360375     1.007825032230
         H            2.023205683143     1.267209682523     0.216976639625     1.007825032230
         H            1.197509683143     0.812442682523    -1.302094360375     1.007825032230
         H           -1.200316316857     0.812436682523    -1.302084360375     1.007825032230
         H           -2.026011316857     1.267168682523     0.216998639625     1.007825032230
         H           -2.025993316857    -1.259456317477    -0.220770360375     1.007825032230
         H           -1.200298316857    -0.804709317477     1.298306639625     1.007825032230

  Basis Set: AUG-CC-PVTZ
    Blend: AUG-CC-PVTZ
  Basis Set: (AUG-CC-PVTZ AUX)
    Blend: AUG-CC-PVTZ-JKFIT
	 Reference Energy          =    -305.9397437665581947 [Eh]
	 Singles Energy            =      -0.0000000000000000 [Eh]
	 Same-Spin Energy          =      -0.2983110925480530 [Eh]
	 Opposite-Spin Energy      =      -0.9808305709292860 [Eh]
	 Correlation Energy        =      -1.2791416634773389 [Eh]
	 Total Energy              =    -307.2188854300355274 [Eh]

	 ================> DF-SCS-MP2 Energies <==================
	-----------------------------------------------------------
	 SCS Same-Spin Scale       =       0.3333333333333333 [-]
	 SCS Opposite-Spin Scale   =       1.2000000000000000 [-]
	 SCS Same-Spin Energy      =      -0.0994370308493510 [Eh]
	 SCS Opposite-Spin Energy  =      -1.1769966851151432 [Eh]
	 SCS Correlation Energy    =      -1.2764337159644943 [Eh]
	 SCS Total Energy          =    -307.2161774825227099 [Eh]
	-----------------------------------------------------------

  Dipole Moment: [D]
     X:    -0.0360      Y:     0.0593      Z:    -0.0174     Total:     0.0715

*** Psi4 exiting successfully. Buy a developer a beer!
