                               Psi4 1.3.2 release

  ==> Input File <==

--------------------------------------------------------------------------
#psi4
#
memory 32 gb

molecule  {
0 1
  O       -0.0064870    -1.3872918    -0.2777340
  C        1.1670970    -0.7307880     0.2026760
  C        1.1670830     0.7308060    -0.2026730
  O       -0.0000090     1.3813690     0.3010510
  C       -1.1670960     0.7307910    -0.2026650
  C       -1.1670820    -0.7308090     0.2026660
  H        1.1989120    -0.8085610     1.3002060
  H        2.0246160    -1.2633060    -0.2188690
  H        2.0245970     1.2633380     0.2188660
  H        1.1989010     0.8085710    -1.3002050
  H       -1.1989250     0.8085650    -1.3001950
  H       -2.0246200     1.2632970     0.2188880
  H       -2.0246020    -1.2633280    -0.2188810
  H       -1.1989070    -0.8085810     1.3001960
units angstrom
no_reorient  #important for SAPT in psi4, default
symmetry c1  #important for SAPT in psi4, default
}

set PROPERTIES_ORIGIN ["COM"]
properties('MP2/aug-cc-pvtz', properties = ['dipole'])
--------------------------------------------------------------------------

    Molecular point group: c1
  Charge       = 0
  Multiplicity = 1
  Basis Set: AUG-CC-PVTZ
    Blend: AUG-CC-PVTZ
  Basis Set: (AUG-CC-PVTZ AUX)
    Blend: AUG-CC-PVTZ-JKFIT

    Orbital Energies [Eh]
    ---------------------

    Doubly Occupied:

       1A    -20.561482     2A    -20.560786     3A    -11.278871
       4A    -11.278201     5A    -11.278022     6A    -11.276890
       7A     -1.397871     8A     -1.355869     9A     -1.046562
      10A     -0.951864    11A     -0.889611    12A     -0.797674
      13A     -0.697564    14A     -0.651514    15A     -0.648748
      16A     -0.638616    17A     -0.634186    18A     -0.555410
      19A     -0.554059    20A     -0.513809    21A     -0.510897
      22A     -0.461249    23A     -0.457211    24A     -0.398490

  @DF-RHF Final Energy:  -305.94087898195477

   => Energetics <=

    Nuclear Repulsion Energy =            264.3569942282270517
    One-Electron Energy =                -941.8048328986702700
    Two-Electron Energy =                 371.5069596884883936
    Total Energy =                       -305.9408789819547678
  Basis Set: (AUG-CC-PVTZ AUX)
    Blend: AUG-CC-PVTZ-RI
    Molecular point group: c1

    Geometry (in Angstrom), charge = 0, multiplicity = 1:

       Center              X                  Y                   Z               Mass
    ------------   -----------------  -----------------  -----------------  -----------------
         O           -0.005306939608    -1.386215853317    -0.281970197380    15.994914619570
         C            1.168277060392    -0.729712053317     0.198439802620    12.000000000000
         C            1.168263060392     0.731881946683    -0.206909197380    12.000000000000
         O            0.001171060392     1.382444946683     0.296814802620    15.994914619570
         C           -1.165915939608     0.731866946683    -0.206901197380    12.000000000000
         C           -1.165901939608    -0.729733053317     0.198429802620    12.000000000000
         H            1.200092060392    -0.807485053317     1.295969802620     1.007825032230
         H            2.025796060392    -1.262230053317    -0.223105197380     1.007825032230
         H            2.025777060392     1.264413946683     0.214629802620     1.007825032230
         H            1.200081060392     0.809646946683    -1.304441197380     1.007825032230
         H           -1.197744939608     0.809640946683    -1.304431197380     1.007825032230
         H           -2.023439939608     1.264372946683     0.214651802620     1.007825032230
         H           -2.023421939608    -1.262252053317    -0.223117197380     1.007825032230
         H           -1.197726939608    -0.807505053317     1.295959802620     1.007825032230

  Basis Set: AUG-CC-PVTZ
    Blend: AUG-CC-PVTZ
  Basis Set: (AUG-CC-PVTZ AUX)
    Blend: AUG-CC-PVTZ-JKFIT
	 Reference Energy          =    -305.9408789819547678 [Eh]
	 Singles Energy            =      -0.0000000000000000 [Eh]
	 Same-Spin Energy          =      -0.2981702515770046 [Eh]
	 Opposite-Spin Energy      =      -0.9801280467211413 [Eh]
	 Correlation Energy        =      -1.2782982982981459 [Eh]
	 Total Energy              =    -307.2191772802528931 [Eh]

	 ================> DF-SCS-MP2 Energies <==================
	-----------------------------------------------------------
	 SCS Same-Spin Scale       =       0.3333333333333333 [-]
	 SCS Opposite-Spin Scale   =       1.2000000000000000 [-]
	 SCS Same-Spin Energy      =      -0.0993900838590015 [Eh]
	 SCS Opposite-Spin Energy  =      -1.1761536560653696 [Eh]
	 SCS Correlation Energy    =      -1.2755437399243712 [Eh]
	 SCS Total Energy          =    -307.2164227218791552 [Eh]
	-----------------------------------------------------------

  Dipole Moment: [D]
     X:     0.0315      Y:     0.0119      Z:    -0.0498     Total:     0.0601

*** Psi4 exiting successfully. Buy a developer a beer!
