                               Psi4 1.3.2 release

  ==> Input File <==

--------------------------------------------------------------------------
#psi4
#
memory 32 gb

molecule  {
0 1
  O        0.0000100    -1.3813680    -0.3010540
  C        1.2467095    -0.8308110     0.1252296
  C        1.1670830     0.7308060    -0.2026730
  O       -0.0000090     1.3813690     0.3010510
  C       -1.1670960     0.7307910    -0.2026650
  C       -1.1670820    -0.7308090     0.2026660
  H        1.1989120    -0.8085610     1.3002060
  H        2.0246160    -1.2633060    -0.2188690
  H        2.0245970     1.2633380     0.2188660
  H        1.1989010     0.8085710    -1.3002050
  H       -1.1989250     0.8085650    -1.3001950
  H       -2.0246200     1.2632970     0.2188880
  H       -2.0246020    -1.2633280    -0.2188810
  H       -1.1989070    -0.8085810     1.3001960
units angstrom
no_reorient  #important for SAPT in psi4, default
symmetry c1  #important for SAPT in psi4, default
}

set PROPERTIES_ORIGIN ["COM"]
properties('MP2/aug-cc-pvtz', properties = ['dipole'])
--------------------------------------------------------------------------

    Molecular point group: c1
  Charge       = 0
  Multiplicity = 1
  Basis Set: AUG-CC-PVTZ
    Blend: AUG-CC-PVTZ
  Basis Set: (AUG-CC-PVTZ AUX)
    Blend: AUG-CC-PVTZ-JKFIT

    Orbital Energies [Eh]
    ---------------------

    Doubly Occupied:

       1A    -20.564941     2A    -20.558178     3A    -11.280979
       4A    -11.280913     5A    -11.280488     6A    -11.278311
       7A     -1.392605     8A     -1.353215     9A     -1.043735
      10A     -0.946617    11A     -0.896326    12A     -0.797490
      13A     -0.703860    14A     -0.665660    15A     -0.641914
      16A     -0.636298    17A     -0.626867    18A     -0.567112
      19A     -0.549527    20A     -0.522943    21A     -0.498590
      22A     -0.460556    23A     -0.452579    24A     -0.386404

  @DF-RHF Final Energy:  -305.91151557663238

   => Energetics <=

    Nuclear Repulsion Energy =            262.6061704194402751
    One-Electron Energy =                -938.2631518867303839
    Two-Electron Energy =                 369.7454658906576697
    Total Energy =                       -305.9115155766323824
  Basis Set: (AUG-CC-PVTZ AUX)
    Blend: AUG-CC-PVTZ-RI
    Molecular point group: c1

    Geometry (in Angstrom), charge = 0, multiplicity = 1:

       Center              X                  Y                   Z               Mass
    ------------   -----------------  -----------------  -----------------  -----------------
         O           -0.010839919545    -1.367736745859    -0.290499484434    15.994914619570
         C            1.235859580455    -0.817179745859     0.135784115566    12.000000000000
         C            1.156233080455     0.744437254141    -0.192118484434    12.000000000000
         O           -0.010858919545     1.395000254141     0.311605515566    15.994914619570
         C           -1.177945919545     0.744422254141    -0.192110484434    12.000000000000
         C           -1.177931919545    -0.717177745859     0.213220515566    12.000000000000
         H            1.188062080455    -0.794929745859     1.310760515566     1.007825032230
         H            2.013766080455    -1.249674745859    -0.208314484434     1.007825032230
         H            2.013747080455     1.276969254141     0.229420515566     1.007825032230
         H            1.188051080455     0.822202254141    -1.289650484434     1.007825032230
         H           -1.209774919545     0.822196254141    -1.289640484434     1.007825032230
         H           -2.035469919545     1.276928254141     0.229442515566     1.007825032230
         H           -2.035451919545    -1.249696745859    -0.208326484434     1.007825032230
         H           -1.209756919545    -0.794949745859     1.310750515566     1.007825032230

  Basis Set: AUG-CC-PVTZ
    Blend: AUG-CC-PVTZ
  Basis Set: (AUG-CC-PVTZ AUX)
    Blend: AUG-CC-PVTZ-JKFIT
	 Reference Energy          =    -305.9115155766323824 [Eh]
	 Singles Energy            =      -0.0000000000000000 [Eh]
	 Same-Spin Energy          =      -0.2980175512948917 [Eh]
	 Opposite-Spin Energy      =      -0.9809782687464741 [Eh]
	 Correlation Energy        =      -1.2789958200413658 [Eh]
	 Total Energy              =    -307.1905113966737417 [Eh]

	 ================> DF-SCS-MP2 Energies <==================
	-----------------------------------------------------------
	 SCS Same-Spin Scale       =       0.3333333333333333 [-]
	 SCS Opposite-Spin Scale   =       1.2000000000000000 [-]
	 SCS Same-Spin Energy      =      -0.0993391837649639 [Eh]
	 SCS Opposite-Spin Energy  =      -1.1771739224957689 [Eh]
	 SCS Correlation Energy    =      -1.2765131062607329 [Eh]
	 SCS Total Energy          =    -307.1880286828931048 [Eh]
	-----------------------------------------------------------

  Dipole Moment: [D]
     X:     0.0027      Y:    -0.0845      Z:    -0.1184     Total:     0.1454

*** Psi4 exiting successfully. Buy a developer a beer!
