                               Psi4 1.3.2 release

  ==> Input File <==

--------------------------------------------------------------------------
#psi4
#
memory 32 gb

molecule  {
0 1
  O       -0.0335738    -1.4138773    -0.1590823
  C        1.1670970    -0.7307880     0.2026760
  C        1.1670830     0.7308060    -0.2026730
  O       -0.0000090     1.3813690     0.3010510
  C       -1.1670960     0.7307910    -0.2026650
  C       -1.1670820    -0.7308090     0.2026660
  H        1.1989120    -0.8085610     1.3002060
  H        2.0246160    -1.2633060    -0.2188690
  H        2.0245970     1.2633380     0.2188660
  H        1.1989010     0.8085710    -1.3002050
  H       -1.1989250     0.8085650    -1.3001950
  H       -2.0246200     1.2632970     0.2188880
  H       -2.0246020    -1.2633280    -0.2188810
  H       -1.1989070    -0.8085810     1.3001960
units angstrom
no_reorient  #important for SAPT in psi4, default
symmetry c1  #important for SAPT in psi4, default
}

set PROPERTIES_ORIGIN ["COM"]
properties('MP2/aug-cc-pvtz', properties = ['dipole'])
--------------------------------------------------------------------------

    Molecular point group: c1
  Charge       = 0
  Multiplicity = 1
  Basis Set: AUG-CC-PVTZ
    Blend: AUG-CC-PVTZ
  Basis Set: (AUG-CC-PVTZ AUX)
    Blend: AUG-CC-PVTZ-JKFIT

    Orbital Energies [Eh]
    ---------------------

    Doubly Occupied:

       1A    -20.562241     2A    -20.557854     3A    -11.281605
       4A    -11.280431     5A    -11.277930     6A    -11.272585
       7A     -1.405594     8A     -1.362220     9A     -1.048807
      10A     -0.951843    11A     -0.896601    12A     -0.793361
      13A     -0.699968    14A     -0.659887    15A     -0.650049
      16A     -0.642535    17A     -0.636764    18A     -0.560801
      19A     -0.552898    20A     -0.524094    21A     -0.507220
      22A     -0.464445    23A     -0.442323    24A     -0.397865

  @DF-RHF Final Energy:  -305.93718457209189

   => Energetics <=

    Nuclear Repulsion Energy =            264.8194514291266159
    One-Electron Energy =                -942.6534288066197860
    Two-Electron Energy =                 371.8967928054012759
    Total Energy =                       -305.9371845720918941
  Basis Set: (AUG-CC-PVTZ AUX)
    Blend: AUG-CC-PVTZ-RI
    Molecular point group: c1

    Geometry (in Angstrom), charge = 0, multiplicity = 1:

       Center              X                  Y                   Z               Mass
    ------------   -----------------  -----------------  -----------------  -----------------
         O           -0.027473363693    -1.407972039634    -0.184871835792    15.994914619570
         C            1.173197436307    -0.724882739634     0.176886464208    12.000000000000
         C            1.173183436307     0.736711260366    -0.228462535792    12.000000000000
         O            0.006091436307     1.387274260366     0.275261464208    15.994914619570
         C           -1.160995563693     0.736696260366    -0.228454535792    12.000000000000
         C           -1.160981563693    -0.724903739634     0.176876464208    12.000000000000
         H            1.205012436307    -0.802655739634     1.274416464208     1.007825032230
         H            2.030716436307    -1.257400739634    -0.244658535792     1.007825032230
         H            2.030697436307     1.269243260366     0.193076464208     1.007825032230
         H            1.205001436307     0.814476260366    -1.325994535792     1.007825032230
         H           -1.192824563693     0.814470260366    -1.325984535792     1.007825032230
         H           -2.018519563693     1.269202260366     0.193098464208     1.007825032230
         H           -2.018501563693    -1.257422739634    -0.244670535792     1.007825032230
         H           -1.192806563693    -0.802675739634     1.274406464208     1.007825032230

  Basis Set: AUG-CC-PVTZ
    Blend: AUG-CC-PVTZ
  Basis Set: (AUG-CC-PVTZ AUX)
    Blend: AUG-CC-PVTZ-JKFIT
	 Reference Energy          =    -305.9371845720918941 [Eh]
	 Singles Energy            =      -0.0000000000000000 [Eh]
	 Same-Spin Energy          =      -0.2979445953842782 [Eh]
	 Opposite-Spin Energy      =      -0.9789592836368264 [Eh]
	 Correlation Energy        =      -1.2769038790211047 [Eh]
	 Total Energy              =    -307.2140884511130139 [Eh]

	 ================> DF-SCS-MP2 Energies <==================
	-----------------------------------------------------------
	 SCS Same-Spin Scale       =       0.3333333333333333 [-]
	 SCS Opposite-Spin Scale   =       1.2000000000000000 [-]
	 SCS Same-Spin Energy      =      -0.0993148651280927 [Eh]
	 SCS Opposite-Spin Energy  =      -1.1747511403641917 [Eh]
	 SCS Correlation Energy    =      -1.2740660054922843 [Eh]
	 SCS Total Energy          =    -307.2112505775841669 [Eh]
	-----------------------------------------------------------

  Dipole Moment: [D]
     X:     0.1734      Y:     0.0665      Z:    -0.3054     Total:     0.3575

*** Psi4 exiting successfully. Buy a developer a beer!
