                               Psi4 1.4a3.dev225

  ==> Input File <==

--------------------------------------------------------------------------
#psi4
#
memory 32 gb

molecule  {
0 1
  O       -0.0000180     1.3809610     0.3010860
  C        1.1508719     0.7398390    -0.1957190
  C        1.1672390    -0.7307030     0.2027780
  O        0.0000190    -1.3809610    -0.3010890
  C       -1.1672200    -0.7307320     0.2027770
  C       -1.1672400     0.7307030    -0.2027760
  H        1.1992140     0.8075630    -1.3002910
  H        2.0246220     1.2638070     0.2183330
  H        2.0246560    -1.2637540    -0.2183310
  H        1.1992320    -0.8075370     1.3002920
  H       -1.1992100    -0.8075640     1.3002920
  H       -2.0246220    -1.2638090    -0.2183310
  H       -2.0246550     1.2637560     0.2183340
  H       -1.1992350     0.8075320    -1.3002910
units angstrom
no_reorient  #important for SAPT in psi4, default
symmetry c1  #important for SAPT in psi4, default
}

set PROPERTIES_ORIGIN ["COM"]
properties('MP2/aug-cc-pvtz', properties = ['dipole'])
--------------------------------------------------------------------------

    Molecular point group: c1
  Charge       = 0
  Multiplicity = 1
  Basis Set: AUG-CC-PVTZ
    Blend: AUG-CC-PVTZ
  Basis Set: (AUG-CC-PVTZ AUX)
    Blend: AUG-CC-PVTZ-JKFIT

    Orbital Energies [Eh]
    ---------------------

    Doubly Occupied:

       1A    -20.563084     2A    -20.560958     3A    -11.279283
       4A    -11.278337     5A    -11.278212     6A    -11.277348
       7A     -1.400188     8A     -1.357603     9A     -1.045725
      10A     -0.950950    11A     -0.889457    12A     -0.798218
      13A     -0.698355    14A     -0.650941    15A     -0.649337
      16A     -0.639135    17A     -0.634019    18A     -0.556765
      19A     -0.553307    20A     -0.512541    21A     -0.509700
      22A     -0.461399    23A     -0.459651    24A     -0.397245

  @DF-RHF Final Energy:  -305.94047967510744

   => Energetics <=

    Nuclear Repulsion Energy =            264.5039106996831038
    One-Electron Energy =                -942.0852678863790288
    Two-Electron Energy =                 371.6408775115884282
    Total Energy =                       -305.9404796751074400
  Basis Set: (AUG-CC-PVTZ AUX)
    Blend: AUG-CC-PVTZ-RI
    Molecular point group: c1

    Geometry (in Angstrom), charge = 0, multiplicity = 1:

       Center              X                  Y                   Z               Mass
    ------------   -----------------  -----------------  -----------------  -----------------
         O            0.002209890707     1.379719944487     0.300124310805    15.994914619570
         C            1.153099790707     0.738597944487    -0.196680689195    12.000000000000
         C            1.169466890707    -0.731944055513     0.201816310805    12.000000000000
         O            0.002246890707    -1.382202055513    -0.302050689195    15.994914619570
         C           -1.164992109293    -0.731973055513     0.201815310805    12.000000000000
         C           -1.165012109293     0.729461944487    -0.203737689195    12.000000000000
         H            1.201441890707     0.806321944487    -1.301252689195     1.007825032230
         H            2.026849890707     1.262565944487     0.217371310805     1.007825032230
         H            2.026883890707    -1.264995055513    -0.219292689195     1.007825032230
         H            1.201459890707    -0.808778055513     1.299330310805     1.007825032230
         H           -1.196982109293    -0.808805055513     1.299330310805     1.007825032230
         H           -2.022394109293    -1.265050055513    -0.219292689195     1.007825032230
         H           -2.022427109293     1.262514944487     0.217372310805     1.007825032230
         H           -1.197007109293     0.806290944487    -1.301252689195     1.007825032230

  Basis Set: AUG-CC-PVTZ
    Blend: AUG-CC-PVTZ
  Basis Set: (AUG-CC-PVTZ AUX)
    Blend: AUG-CC-PVTZ-JKFIT
	 Reference Energy          =    -305.9404796751074400 [Eh]
	 Singles Energy            =      -0.0000000000000000 [Eh]
	 Same-Spin Energy          =      -0.2982229452855740 [Eh]
	 Opposite-Spin Energy      =      -0.9801763761836554 [Eh]
	 Correlation Energy        =      -1.2783993214692293 [Eh]
	 Total Energy              =    -307.2188789965766773 [Eh]

	 ================> DF-SCS-MP2 Energies <==================
	-----------------------------------------------------------
	 SCS Same-Spin Scale       =       0.3333333333333333 [-]
	 SCS Opposite-Spin Scale   =       1.2000000000000000 [-]
	 SCS Same-Spin Energy      =      -0.0994076484285247 [Eh]
	 SCS Opposite-Spin Energy  =      -1.1762116514203864 [Eh]
	 SCS Correlation Energy    =      -1.2756192998489111 [Eh]
	 SCS Total Energy          =    -307.2160989749563669 [Eh]
	-----------------------------------------------------------

  Dipole Moment: [D]
     X:    -0.0632      Y:     0.0205      Z:     0.0204     Total:     0.0695

*** Psi4 exiting successfully. Buy a developer a beer!
