                               Psi4 1.3.2 release

  ==> Input File <==

--------------------------------------------------------------------------
#psi4
#
memory 32 gb

molecule  {
0 1
  O        0.0000100    -1.3813680    -0.3010540
  C        1.1812791    -0.7469922     0.1901293
  C        1.1670830     0.7308060    -0.2026730
  O       -0.0000090     1.3813690     0.3010510
  C       -1.1670960     0.7307910    -0.2026650
  C       -1.1670820    -0.7308090     0.2026660
  H        1.1989120    -0.8085610     1.3002060
  H        2.0246160    -1.2633060    -0.2188690
  H        2.0245970     1.2633380     0.2188660
  H        1.1989010     0.8085710    -1.3002050
  H       -1.1989250     0.8085650    -1.3001950
  H       -2.0246200     1.2632970     0.2188880
  H       -2.0246020    -1.2633280    -0.2188810
  H       -1.1989070    -0.8085810     1.3001960
units angstrom
no_reorient  #important for SAPT in psi4, default
symmetry c1  #important for SAPT in psi4, default
}

set PROPERTIES_ORIGIN ["COM"]
properties('MP2/aug-cc-pvtz', properties = ['dipole'])
--------------------------------------------------------------------------

    Molecular point group: c1
  Charge       = 0
  Multiplicity = 1
  Basis Set: AUG-CC-PVTZ
    Blend: AUG-CC-PVTZ
  Basis Set: (AUG-CC-PVTZ AUX)
    Blend: AUG-CC-PVTZ-JKFIT

    Orbital Energies [Eh]
    ---------------------

    Doubly Occupied:

       1A    -20.561896     2A    -20.560632     3A    -11.278523
       4A    -11.278505     5A    -11.277839     6A    -11.277779
       7A     -1.395631     8A     -1.353994     9A     -1.045440
      10A     -0.950716    11A     -0.889331    12A     -0.797618
      13A     -0.697205    14A     -0.652891    15A     -0.647929
      16A     -0.636911    17A     -0.632011    18A     -0.555938
      19A     -0.553133    20A     -0.514974    21A     -0.509440
      22A     -0.460656    23A     -0.459143    24A     -0.396951

  @DF-RHF Final Energy:  -305.93998310571482

   => Energetics <=

    Nuclear Repulsion Energy =            263.9662563391823937
    One-Electron Energy =                -941.0423063685105944
    Two-Electron Energy =                 371.1360669236133276
    Total Energy =                       -305.9399831057148162
  Basis Set: (AUG-CC-PVTZ AUX)
    Blend: AUG-CC-PVTZ-RI
    Molecular point group: c1

    Geometry (in Angstrom), charge = 0, multiplicity = 1:

       Center              X                  Y                   Z               Mass
    ------------   -----------------  -----------------  -----------------  -----------------
         O           -0.001922904938    -1.379159776498    -0.299344173949    15.994914619570
         C            1.179346195062    -0.744783976498     0.191839126051    12.000000000000
         C            1.165150095062     0.733014223502    -0.200963173949    12.000000000000
         O           -0.001941904938     1.383577223502     0.302760826051    15.994914619570
         C           -1.169028904938     0.732999223502    -0.200955173949    12.000000000000
         C           -1.169014904938    -0.728600776498     0.204375826051    12.000000000000
         H            1.196979095062    -0.806352776498     1.301915826051     1.007825032230
         H            2.022683095062    -1.261097776498    -0.217159173949     1.007825032230
         H            2.022664095062     1.265546223502     0.220575826051     1.007825032230
         H            1.196968095062     0.810779223502    -1.298495173949     1.007825032230
         H           -1.200857904938     0.810773223502    -1.298485173949     1.007825032230
         H           -2.026552904938     1.265505223502     0.220597826051     1.007825032230
         H           -2.026534904938    -1.261119776498    -0.217171173949     1.007825032230
         H           -1.200839904938    -0.806372776498     1.301905826051     1.007825032230

  Basis Set: AUG-CC-PVTZ
    Blend: AUG-CC-PVTZ
  Basis Set: (AUG-CC-PVTZ AUX)
    Blend: AUG-CC-PVTZ-JKFIT
	 Reference Energy          =    -305.9399831057148162 [Eh]
	 Singles Energy            =      -0.0000000000000000 [Eh]
	 Same-Spin Energy          =      -0.2981300603759113 [Eh]
	 Opposite-Spin Energy      =      -0.9803249316234618 [Eh]
	 Correlation Energy        =      -1.2784549919993731 [Eh]
	 Total Energy              =    -307.2184380977141700 [Eh]

	 ================> DF-SCS-MP2 Energies <==================
	-----------------------------------------------------------
	 SCS Same-Spin Scale       =       0.3333333333333333 [-]
	 SCS Opposite-Spin Scale   =       1.2000000000000000 [-]
	 SCS Same-Spin Energy      =      -0.0993766867919704 [Eh]
	 SCS Opposite-Spin Energy  =      -1.1763899179481541 [Eh]
	 SCS Correlation Energy    =      -1.2757666047401246 [Eh]
	 SCS Total Energy          =    -307.2157497104549293 [Eh]
	-----------------------------------------------------------

  Dipole Moment: [D]
     X:     0.0101      Y:    -0.0174      Z:    -0.0172     Total:     0.0265

*** Psi4 exiting successfully. Buy a developer a beer!
