                               Psi4 1.4a3.dev225

  ==> Input File <==

--------------------------------------------------------------------------
#psi4
#
memory 32 gb

molecule  {
0 1
  O       -0.0000180     1.3809610     0.3010860
  C        1.1672200     0.7307320    -0.2027760
  C        1.1672387    -0.7114313     0.1974300
  O        0.0000190    -1.3809610    -0.3010890
  C       -1.1672200    -0.7307320     0.2027770
  C       -1.1672400     0.7307030    -0.2027760
  H        1.1992140     0.8075630    -1.3002910
  H        2.0246220     1.2638070     0.2183330
  H        2.0246560    -1.2637540    -0.2183310
  H        1.1992320    -0.8075370     1.3002920
  H       -1.1992100    -0.8075640     1.3002920
  H       -2.0246220    -1.2638090    -0.2183310
  H       -2.0246550     1.2637560     0.2183340
  H       -1.1992350     0.8075320    -1.3002910
units angstrom
no_reorient  #important for SAPT in psi4, default
symmetry c1  #important for SAPT in psi4, default
}

set PROPERTIES_ORIGIN ["COM"]
properties('MP2/aug-cc-pvtz', properties = ['dipole'])
--------------------------------------------------------------------------

    Molecular point group: c1
  Charge       = 0
  Multiplicity = 1
  Basis Set: AUG-CC-PVTZ
    Blend: AUG-CC-PVTZ
  Basis Set: (AUG-CC-PVTZ AUX)
    Blend: AUG-CC-PVTZ-JKFIT

    Orbital Energies [Eh]
    ---------------------

    Doubly Occupied:

       1A    -20.561605     2A    -20.561206     3A    -11.278705
       4A    -11.278195     5A    -11.277708     6A    -11.277357
       7A     -1.396195     8A     -1.353307     9A     -1.048024
      10A     -0.954336    11A     -0.886989    12A     -0.797982
      13A     -0.697688    14A     -0.650007    15A     -0.648977
      16A     -0.636723    17A     -0.632514    18A     -0.556951
      19A     -0.553641    20A     -0.511263    21A     -0.509590
      22A     -0.461088    23A     -0.458431    24A     -0.401002

  @DF-RHF Final Energy:  -305.93962754917857

   => Energetics <=

    Nuclear Repulsion Energy =            264.4280131682802448
    One-Electron Energy =                -941.9563128098150173
    Two-Electron Energy =                 371.5886720923562052
    Total Energy =                       -305.9396275491785673
  Basis Set: (AUG-CC-PVTZ AUX)
    Blend: AUG-CC-PVTZ-RI
    Molecular point group: c1

    Geometry (in Angstrom), charge = 0, multiplicity = 1:

       Center              X                  Y                   Z               Mass
    ------------   -----------------  -----------------  -----------------  -----------------
         O           -0.000018027376     1.378334674362     0.301814894482    15.994914619570
         C            1.167219972624     0.728105674362    -0.202047105518    12.000000000000
         C            1.167238672624    -0.714057625638     0.198158894482    12.000000000000
         O            0.000018972624    -1.383587325638    -0.300360105518    15.994914619570
         C           -1.167220027376    -0.733358325638     0.203505894482    12.000000000000
         C           -1.167240027376     0.728076674362    -0.202047105518    12.000000000000
         H            1.199213972624     0.804936674362    -1.299562105518     1.007825032230
         H            2.024621972624     1.261180674362     0.219061894482     1.007825032230
         H            2.024655972624    -1.266380325638    -0.217602105518     1.007825032230
         H            1.199231972624    -0.810163325638     1.301020894482     1.007825032230
         H           -1.199210027376    -0.810190325638     1.301020894482     1.007825032230
         H           -2.024622027376    -1.266435325638    -0.217602105518     1.007825032230
         H           -2.024655027376     1.261129674362     0.219062894482     1.007825032230
         H           -1.199235027376     0.804905674362    -1.299562105518     1.007825032230

  Basis Set: AUG-CC-PVTZ
    Blend: AUG-CC-PVTZ
  Basis Set: (AUG-CC-PVTZ AUX)
    Blend: AUG-CC-PVTZ-JKFIT
	 Reference Energy          =    -305.9396275491785673 [Eh]
	 Singles Energy            =      -0.0000000000000000 [Eh]
	 Same-Spin Energy          =      -0.2984457959978103 [Eh]
	 Opposite-Spin Energy      =      -0.9807628901433794 [Eh]
	 Correlation Energy        =      -1.2792086861411898 [Eh]
	 Total Energy              =    -307.2188362353197704 [Eh]

	 ================> DF-SCS-MP2 Energies <==================
	-----------------------------------------------------------
	 SCS Same-Spin Scale       =       0.3333333333333333 [-]
	 SCS Opposite-Spin Scale   =       1.2000000000000000 [-]
	 SCS Same-Spin Energy      =      -0.0994819319992701 [Eh]
	 SCS Opposite-Spin Energy  =      -1.1769154681720553 [Eh]
	 SCS Correlation Energy    =      -1.2763974001713254 [Eh]
	 SCS Total Energy          =    -307.2160249493499009 [Eh]
	-----------------------------------------------------------

  Dipole Moment: [D]
     X:     0.0170      Y:     0.0248      Z:    -0.0066     Total:     0.0308

*** Psi4 exiting successfully. Buy a developer a beer!
