                               Psi4 1.3.2 release

  ==> Input File <==

--------------------------------------------------------------------------
#psi4
#
memory 32 gb

molecule  {
0 1
  O        0.0000100    -1.3813680    -0.3010540
  C        1.1670970    -0.7307880     0.2026760
  C        1.1670830     0.7308060    -0.2026730
  O       -0.0000090     1.3813690     0.3010510
  C       -1.1670960     0.7307910    -0.2026650
  C       -1.1670820    -0.7308090     0.2026660
  H        1.1343685    -0.7669371     1.3023373
  H        2.0246160    -1.2633060    -0.2188690
  H        2.0245970     1.2633380     0.2188660
  H        1.1989010     0.8085710    -1.3002050
  H       -1.1989250     0.8085650    -1.3001950
  H       -2.0246200     1.2632970     0.2188880
  H       -2.0246020    -1.2633280    -0.2188810
  H       -1.1989070    -0.8085810     1.3001960
units angstrom
no_reorient  #important for SAPT in psi4, default
symmetry c1  #important for SAPT in psi4, default
}

set PROPERTIES_ORIGIN ["COM"]
properties('MP2/aug-cc-pvtz', properties = ['dipole'])
--------------------------------------------------------------------------

    Molecular point group: c1
  Charge       = 0
  Multiplicity = 1
  Basis Set: AUG-CC-PVTZ
    Blend: AUG-CC-PVTZ
  Basis Set: (AUG-CC-PVTZ AUX)
    Blend: AUG-CC-PVTZ-JKFIT

    Orbital Energies [Eh]
    ---------------------

    Doubly Occupied:

       1A    -20.561536     2A    -20.560573     3A    -11.278408
       4A    -11.278391     5A    -11.277747     6A    -11.277315
       7A     -1.396578     8A     -1.354276     9A     -1.046240
      10A     -0.952111    11A     -0.887658    12A     -0.798532
      13A     -0.696846    14A     -0.652180    15A     -0.648508
      16A     -0.636411    17A     -0.633450    18A     -0.555016
      19A     -0.553741    20A     -0.513112    21A     -0.509732
      22A     -0.461174    23A     -0.460306    24A     -0.397780

  @DF-RHF Final Energy:  -305.93972768341808

   => Energetics <=

    Nuclear Repulsion Energy =            264.3841651658707406
    One-Electron Energy =                -941.8725442544773614
    Two-Electron Energy =                 371.5486514051885365
    Total Energy =                       -305.9397276834180843
  Basis Set: (AUG-CC-PVTZ AUX)
    Blend: AUG-CC-PVTZ-RI
    Molecular point group: c1

    Geometry (in Angstrom), charge = 0, multiplicity = 1:

       Center              X                  Y                   Z               Mass
    ------------   -----------------  -----------------  -----------------  -----------------
         O            0.000748614250    -1.381844540675    -0.301078463149    15.994914619570
         C            1.167835614250    -0.731264540675     0.202651536851    12.000000000000
         C            1.167821614250     0.730329459325    -0.202697463149    12.000000000000
         O            0.000729614250     1.380892459325     0.301026536851    15.994914619570
         C           -1.166357385750     0.730314459325    -0.202689463149    12.000000000000
         C           -1.166343385750    -0.731285540675     0.202641536851    12.000000000000
         H            1.135107114250    -0.767413640675     1.302312836851     1.007825032230
         H            2.025354614250    -1.263782540675    -0.218893463149     1.007825032230
         H            2.025335614250     1.262861459325     0.218841536851     1.007825032230
         H            1.199639614250     0.808094459325    -1.300229463149     1.007825032230
         H           -1.198186385750     0.808088459325    -1.300219463149     1.007825032230
         H           -2.023881385750     1.262820459325     0.218863536851     1.007825032230
         H           -2.023863385750    -1.263804540675    -0.218905463149     1.007825032230
         H           -1.198168385750    -0.809057540675     1.300171536851     1.007825032230

  Basis Set: AUG-CC-PVTZ
    Blend: AUG-CC-PVTZ
  Basis Set: (AUG-CC-PVTZ AUX)
    Blend: AUG-CC-PVTZ-JKFIT
	 Reference Energy          =    -305.9397276834180843 [Eh]
	 Singles Energy            =      -0.0000000000000000 [Eh]
	 Same-Spin Energy          =      -0.2983790458434864 [Eh]
	 Opposite-Spin Energy      =      -0.9806441603310201 [Eh]
	 Correlation Energy        =      -1.2790232061745064 [Eh]
	 Total Energy              =    -307.2187508895925703 [Eh]

	 ================> DF-SCS-MP2 Energies <==================
	-----------------------------------------------------------
	 SCS Same-Spin Scale       =       0.3333333333333333 [-]
	 SCS Opposite-Spin Scale   =       1.2000000000000000 [-]
	 SCS Same-Spin Energy      =      -0.0994596819478288 [Eh]
	 SCS Opposite-Spin Energy  =      -1.1767729923972241 [Eh]
	 SCS Correlation Energy    =      -1.2762326743450529 [Eh]
	 SCS Total Energy          =    -307.2159603577631515 [Eh]
	-----------------------------------------------------------

  Dipole Moment: [D]
     X:    -0.0106      Y:     0.0111      Z:    -0.0137     Total:     0.0206

*** Psi4 exiting successfully. Buy a developer a beer!
