                               Psi4 1.3.2 release

  ==> Input File <==

--------------------------------------------------------------------------
#psi4
#
memory 32 gb

molecule  {
0 1
  O        0.0000100    -1.3813680    -0.3010540
  C        1.2116887    -0.7222744     0.2299153
  C        1.1670830     0.7308060    -0.2026730
  O       -0.0000090     1.3813690     0.3010510
  C       -1.1670960     0.7307910    -0.2026650
  C       -1.1670820    -0.7308090     0.2026660
  H        1.1989120    -0.8085610     1.3002060
  H        2.0246160    -1.2633060    -0.2188690
  H        2.0245970     1.2633380     0.2188660
  H        1.1989010     0.8085710    -1.3002050
  H       -1.1989250     0.8085650    -1.3001950
  H       -2.0246200     1.2632970     0.2188880
  H       -2.0246020    -1.2633280    -0.2188810
  H       -1.1989070    -0.8085810     1.3001960
units angstrom
no_reorient  #important for SAPT in psi4, default
symmetry c1  #important for SAPT in psi4, default
}

set PROPERTIES_ORIGIN ["COM"]
properties('MP2/aug-cc-pvtz', properties = ['dipole'])
--------------------------------------------------------------------------

    Molecular point group: c1
  Charge       = 0
  Multiplicity = 1
  Basis Set: AUG-CC-PVTZ
    Blend: AUG-CC-PVTZ
  Basis Set: (AUG-CC-PVTZ AUX)
    Blend: AUG-CC-PVTZ-JKFIT

    Orbital Energies [Eh]
    ---------------------

    Doubly Occupied:

       1A    -20.562223     2A    -20.556658     3A    -11.279751
       4A    -11.277935     5A    -11.276772     6A    -11.275211
       7A     -1.389758     8A     -1.344100     9A     -1.045977
      10A     -0.952444    11A     -0.885789    12A     -0.800063
      13A     -0.693267    14A     -0.652590    15A     -0.649865
      16A     -0.631499    17A     -0.628447    18A     -0.556089
      19A     -0.547178    20A     -0.517891    21A     -0.509789
      22A     -0.459947    23A     -0.458366    24A     -0.399017

  @DF-RHF Final Energy:  -305.93710084091981

   => Energetics <=

    Nuclear Repulsion Energy =            263.4284154992685103
    One-Electron Energy =                -940.0297750301298265
    Two-Electron Energy =                 370.6642586899415619
    Total Energy =                       -305.9371008409198112
  Basis Set: (AUG-CC-PVTZ AUX)
    Blend: AUG-CC-PVTZ-RI
    Molecular point group: c1

    Geometry (in Angstrom), charge = 0, multiplicity = 1:

       Center              X                  Y                   Z               Mass
    ------------   -----------------  -----------------  -----------------  -----------------
         O           -0.006067199447    -1.382528378610    -0.304766307134    15.994914619570
         C            1.205611500553    -0.723434778610     0.226202992866    12.000000000000
         C            1.161005800553     0.729645621390    -0.206385307134    12.000000000000
         O           -0.006086199447     1.380208621390     0.297338692866    15.994914619570
         C           -1.173173199447     0.729630621390    -0.206377307134    12.000000000000
         C           -1.173159199447    -0.731969378610     0.198953692866    12.000000000000
         H            1.192834800553    -0.809721378610     1.296493692866     1.007825032230
         H            2.018538800553    -1.264466378610    -0.222581307134     1.007825032230
         H            2.018519800553     1.262177621390     0.215153692866     1.007825032230
         H            1.192823800553     0.807410621390    -1.303917307134     1.007825032230
         H           -1.205002199447     0.807404621390    -1.303907307134     1.007825032230
         H           -2.030697199447     1.262136621390     0.215175692866     1.007825032230
         H           -2.030679199447    -1.264488378610    -0.222593307134     1.007825032230
         H           -1.204984199447    -0.809741378610     1.296483692866     1.007825032230

  Basis Set: AUG-CC-PVTZ
    Blend: AUG-CC-PVTZ
  Basis Set: (AUG-CC-PVTZ AUX)
    Blend: AUG-CC-PVTZ-JKFIT
	 Reference Energy          =    -305.9371008409198112 [Eh]
	 Singles Energy            =      -0.0000000000000000 [Eh]
	 Same-Spin Energy          =      -0.2983256150224905 [Eh]
	 Opposite-Spin Energy      =      -0.9813000862763583 [Eh]
	 Correlation Energy        =      -1.2796257012988488 [Eh]
	 Total Energy              =    -307.2167265422186802 [Eh]

	 ================> DF-SCS-MP2 Energies <==================
	-----------------------------------------------------------
	 SCS Same-Spin Scale       =       0.3333333333333333 [-]
	 SCS Opposite-Spin Scale   =       1.2000000000000000 [-]
	 SCS Same-Spin Energy      =      -0.0994418716741635 [Eh]
	 SCS Opposite-Spin Energy  =      -1.1775601035316299 [Eh]
	 SCS Correlation Energy    =      -1.2770019752057933 [Eh]
	 SCS Total Energy          =    -307.2141028161256031 [Eh]
	-----------------------------------------------------------

  Dipole Moment: [D]
     X:     0.1475      Y:     0.0355      Z:     0.0602     Total:     0.1632

*** Psi4 exiting successfully. Buy a developer a beer!
