                               Psi4 1.3.2 release

  ==> Input File <==

--------------------------------------------------------------------------
#psi4
#
memory 32 gb

molecule  {
0 1
  O       -0.0126264    -1.3930157    -0.2542676
  C        1.1670970    -0.7307880     0.2026760
  C        1.1670830     0.7308060    -0.2026730
  O       -0.0000090     1.3813690     0.3010510
  C       -1.1670960     0.7307910    -0.2026650
  C       -1.1670820    -0.7308090     0.2026660
  H        1.1989120    -0.8085610     1.3002060
  H        2.0246160    -1.2633060    -0.2188690
  H        2.0245970     1.2633380     0.2188660
  H        1.1989010     0.8085710    -1.3002050
  H       -1.1989250     0.8085650    -1.3001950
  H       -2.0246200     1.2632970     0.2188880
  H       -2.0246020    -1.2633280    -0.2188810
  H       -1.1989070    -0.8085810     1.3001960
units angstrom
no_reorient  #important for SAPT in psi4, default
symmetry c1  #important for SAPT in psi4, default
}

set PROPERTIES_ORIGIN ["COM"]
properties('MP2/aug-cc-pvtz', properties = ['dipole'])
--------------------------------------------------------------------------

    Molecular point group: c1
  Charge       = 0
  Multiplicity = 1
  Basis Set: AUG-CC-PVTZ
    Blend: AUG-CC-PVTZ
  Basis Set: (AUG-CC-PVTZ AUX)
    Blend: AUG-CC-PVTZ-JKFIT

    Orbital Energies [Eh]
    ---------------------

    Doubly Occupied:

       1A    -20.561625     2A    -20.560215     3A    -11.279410
       4A    -11.278693     5A    -11.277908     6A    -11.275963
       7A     -1.399345     8A     -1.357339     9A     -1.047030
      10A     -0.951814    11A     -0.891065    12A     -0.796840
      13A     -0.698071    14A     -0.652980    15A     -0.648002
      16A     -0.640536    17A     -0.634967    18A     -0.556525
      19A     -0.553774    20A     -0.515965    21A     -0.510260
      22A     -0.461848    23A     -0.454326    24A     -0.398408

  @DF-RHF Final Energy:  -305.94091958581453

   => Energetics <=

    Nuclear Repulsion Energy =            264.4606627501680123
    One-Electron Energy =                -941.9973426054917809
    Two-Electron Energy =                 371.5957602695092419
    Total Energy =                       -305.9409195858145267
  Basis Set: (AUG-CC-PVTZ AUX)
    Blend: AUG-CC-PVTZ-RI
    Molecular point group: c1

    Geometry (in Angstrom), charge = 0, multiplicity = 1:

       Center              X                  Y                   Z               Mass
    ------------   -----------------  -----------------  -----------------  -----------------
         O           -0.010331104294    -1.390899994479    -0.262766519789    15.994914619570
         C            1.169392295706    -0.728672294479     0.194177080211    12.000000000000
         C            1.169378295706     0.732921705521    -0.211171919789    12.000000000000
         O            0.002286295706     1.383484705521     0.292552080211    15.994914619570
         C           -1.164800704294     0.732906705521    -0.211163919789    12.000000000000
         C           -1.164786704294    -0.728693294479     0.194167080211    12.000000000000
         H            1.201207295706    -0.806445294479     1.291707080211     1.007825032230
         H            2.026911295706    -1.261190294479    -0.227367919789     1.007825032230
         H            2.026892295706     1.265453705521     0.210367080211     1.007825032230
         H            1.201196295706     0.810686705521    -1.308703919789     1.007825032230
         H           -1.196629704294     0.810680705521    -1.308693919789     1.007825032230
         H           -2.022324704294     1.265412705521     0.210389080211     1.007825032230
         H           -2.022306704294    -1.261212294479    -0.227379919789     1.007825032230
         H           -1.196611704294    -0.806465294479     1.291697080211     1.007825032230

  Basis Set: AUG-CC-PVTZ
    Blend: AUG-CC-PVTZ
  Basis Set: (AUG-CC-PVTZ AUX)
    Blend: AUG-CC-PVTZ-JKFIT
	 Reference Energy          =    -305.9409195858145267 [Eh]
	 Singles Energy            =      -0.0000000000000000 [Eh]
	 Same-Spin Energy          =      -0.2980979611196948 [Eh]
	 Opposite-Spin Energy      =      -0.9798210965648653 [Eh]
	 Correlation Energy        =      -1.2779190576845600 [Eh]
	 Total Energy              =    -307.2188386434991116 [Eh]

	 ================> DF-SCS-MP2 Energies <==================
	-----------------------------------------------------------
	 SCS Same-Spin Scale       =       0.3333333333333333 [-]
	 SCS Opposite-Spin Scale   =       1.2000000000000000 [-]
	 SCS Same-Spin Energy      =      -0.0993659870398983 [Eh]
	 SCS Opposite-Spin Energy  =      -1.1757853158778382 [Eh]
	 SCS Correlation Energy    =      -1.2751513029177364 [Eh]
	 SCS Total Energy          =    -307.2160708887322471 [Eh]
	-----------------------------------------------------------

  Dipole Moment: [D]
     X:     0.0621      Y:     0.0234      Z:    -0.1001     Total:     0.1201

*** Psi4 exiting successfully. Buy a developer a beer!
