                               Psi4 1.3.2 release

  ==> Input File <==

--------------------------------------------------------------------------
#psi4
#
memory 32 gb

molecule  {
0 1
  O        0.0295315    -1.3557099    -0.3927294
  C        1.1670970    -0.7307880     0.2026760
  C        1.1670830     0.7308060    -0.2026730
  O       -0.0000090     1.3813690     0.3010510
  C       -1.1670960     0.7307910    -0.2026650
  C       -1.1670820    -0.7308090     0.2026660
  H        1.1989120    -0.8085610     1.3002060
  H        2.0246160    -1.2633060    -0.2188690
  H        2.0245970     1.2633380     0.2188660
  H        1.1989010     0.8085710    -1.3002050
  H       -1.1989250     0.8085650    -1.3001950
  H       -2.0246200     1.2632970     0.2188880
  H       -2.0246020    -1.2633280    -0.2188810
  H       -1.1989070    -0.8085810     1.3001960
units angstrom
no_reorient  #important for SAPT in psi4, default
symmetry c1  #important for SAPT in psi4, default
}

set PROPERTIES_ORIGIN ["COM"]
properties('MP2/aug-cc-pvtz', properties = ['dipole'])
--------------------------------------------------------------------------

    Molecular point group: c1
  Charge       = 0
  Multiplicity = 1
  Basis Set: AUG-CC-PVTZ
    Blend: AUG-CC-PVTZ
  Basis Set: (AUG-CC-PVTZ AUX)
    Blend: AUG-CC-PVTZ-JKFIT

    Orbital Energies [Eh]
    ---------------------

    Doubly Occupied:

       1A    -20.563384     2A    -20.560844     3A    -11.282565
       4A    -11.278650     5A    -11.276336     6A    -11.275471
       7A     -1.391589     8A     -1.347159     9A     -1.044199
      10A     -0.952433    11A     -0.882185    12A     -0.801582
      13A     -0.695003    14A     -0.652493    15A     -0.646671
      16A     -0.628289    17A     -0.627792    18A     -0.556191
      19A     -0.549492    20A     -0.513500    21A     -0.503091
      22A     -0.470205    23A     -0.457652    24A     -0.398796

  @DF-RHF Final Energy:  -305.93463507146413

   => Energetics <=

    Nuclear Repulsion Energy =            263.7768555121998588
    One-Electron Energy =                -940.7118370028174468
    Two-Electron Energy =                 371.0003464191534590
    Total Energy =                       -305.9346350714641289
  Basis Set: (AUG-CC-PVTZ AUX)
    Blend: AUG-CC-PVTZ-RI
    Molecular point group: c1

    Geometry (in Angstrom), charge = 0, multiplicity = 1:

       Center              X                  Y                   Z               Mass
    ------------   -----------------  -----------------  -----------------  -----------------
         O            0.024168721818    -1.360370873887    -0.376076433786    15.994914619570
         C            1.161734221818    -0.735448973887     0.219328966214    12.000000000000
         C            1.161720221818     0.726145026113    -0.186020033786    12.000000000000
         O           -0.005371778182     1.376708026113     0.317703966214    15.994914619570
         C           -1.172458778182     0.726130026113    -0.186012033786    12.000000000000
         C           -1.172444778182    -0.735469973887     0.219318966214    12.000000000000
         H            1.193549221818    -0.813221973887     1.316858966214     1.007825032230
         H            2.019253221818    -1.267966973887    -0.202216033786     1.007825032230
         H            2.019234221818     1.258677026113     0.235518966214     1.007825032230
         H            1.193538221818     0.803910026113    -1.283552033786     1.007825032230
         H           -1.204287778182     0.803904026113    -1.283542033786     1.007825032230
         H           -2.029982778182     1.258636026113     0.235540966214     1.007825032230
         H           -2.029964778182    -1.267988973887    -0.202228033786     1.007825032230
         H           -1.204269778182    -0.813241973887     1.316848966214     1.007825032230

  Basis Set: AUG-CC-PVTZ
    Blend: AUG-CC-PVTZ
  Basis Set: (AUG-CC-PVTZ AUX)
    Blend: AUG-CC-PVTZ-JKFIT
	 Reference Energy          =    -305.9346350714641289 [Eh]
	 Singles Energy            =      -0.0000000000000000 [Eh]
	 Same-Spin Energy          =      -0.2987451134356449 [Eh]
	 Opposite-Spin Energy      =      -0.9822238173233813 [Eh]
	 Correlation Energy        =      -1.2809689307590262 [Eh]
	 Total Energy              =    -307.2156040022231309 [Eh]

	 ================> DF-SCS-MP2 Energies <==================
	-----------------------------------------------------------
	 SCS Same-Spin Scale       =       0.3333333333333333 [-]
	 SCS Opposite-Spin Scale   =       1.2000000000000000 [-]
	 SCS Same-Spin Energy      =      -0.0995817044785483 [Eh]
	 SCS Opposite-Spin Energy  =      -1.1786685807880575 [Eh]
	 SCS Correlation Energy    =      -1.2782502852666058 [Eh]
	 SCS Total Energy          =    -307.2128853567307374 [Eh]
	-----------------------------------------------------------

  Dipole Moment: [D]
     X:    -0.1336      Y:    -0.0507      Z:     0.1911     Total:     0.2386

*** Psi4 exiting successfully. Buy a developer a beer!
