                               Psi4 1.3.2 release

  ==> Input File <==

--------------------------------------------------------------------------
#psi4
#
memory 32 gb

molecule  {
0 1
  O        0.0000100    -1.3813680    -0.3010540
  C        1.1447977    -0.7343776     0.1888691
  C        1.1670830     0.7308060    -0.2026730
  O       -0.0000090     1.3813690     0.3010510
  C       -1.1670960     0.7307910    -0.2026650
  C       -1.1670820    -0.7308090     0.2026660
  H        1.1989120    -0.8085610     1.3002060
  H        2.0246160    -1.2633060    -0.2188690
  H        2.0245970     1.2633380     0.2188660
  H        1.1989010     0.8085710    -1.3002050
  H       -1.1989250     0.8085650    -1.3001950
  H       -2.0246200     1.2632970     0.2188880
  H       -2.0246020    -1.2633280    -0.2188810
  H       -1.1989070    -0.8085810     1.3001960
units angstrom
no_reorient  #important for SAPT in psi4, default
symmetry c1  #important for SAPT in psi4, default
}

set PROPERTIES_ORIGIN ["COM"]
properties('MP2/aug-cc-pvtz', properties = ['dipole'])
--------------------------------------------------------------------------

    Molecular point group: c1
  Charge       = 0
  Multiplicity = 1
  Basis Set: AUG-CC-PVTZ
    Blend: AUG-CC-PVTZ
  Basis Set: (AUG-CC-PVTZ AUX)
    Blend: AUG-CC-PVTZ-JKFIT

    Orbital Energies [Eh]
    ---------------------

    Doubly Occupied:

       1A    -20.563668     2A    -20.560942     3A    -11.279563
       4A    -11.278600     5A    -11.278524     6A    -11.277226
       7A     -1.401564     8A     -1.358510     9A     -1.046363
      10A     -0.951807    11A     -0.889554    12A     -0.797690
      13A     -0.699191    14A     -0.650813    15A     -0.649080
      16A     -0.640197    17A     -0.634302    18A     -0.557749
      19A     -0.553895    20A     -0.512337    21A     -0.508864
      22A     -0.461317    23A     -0.458832    24A     -0.398052

  @DF-RHF Final Energy:  -305.94015832359332

   => Energetics <=

    Nuclear Repulsion Energy =            264.6724834910124855
    One-Electron Energy =                -942.4080054675714564
    Two-Electron Energy =                 371.7953636529656478
    Total Energy =                       -305.9401583235933231
  Basis Set: (AUG-CC-PVTZ AUX)
    Blend: AUG-CC-PVTZ-RI
    Molecular point group: c1

    Geometry (in Angstrom), charge = 0, multiplicity = 1:

       Center              X                  Y                   Z               Mass
    ------------   -----------------  -----------------  -----------------  -----------------
         O            0.003048869293    -1.380878924974    -0.299172430817    15.994914619570
         C            1.147836569293    -0.733888524974     0.190750669183    12.000000000000
         C            1.170121869293     0.731295075026    -0.200791430817    12.000000000000
         O            0.003029869293     1.381858075026     0.302932569183    15.994914619570
         C           -1.164057130707     0.731280075026    -0.200783430817    12.000000000000
         C           -1.164043130707    -0.730319924974     0.204547569183    12.000000000000
         H            1.201950869293    -0.808071924974     1.302087569183     1.007825032230
         H            2.027654869293    -1.262816924974    -0.216987430817     1.007825032230
         H            2.027635869293     1.263827075026     0.220747569183     1.007825032230
         H            1.201939869293     0.809060075026    -1.298323430817     1.007825032230
         H           -1.195886130707     0.809054075026    -1.298313430817     1.007825032230
         H           -2.021581130707     1.263786075026     0.220769569183     1.007825032230
         H           -2.021563130707    -1.262838924974    -0.216999430817     1.007825032230
         H           -1.195868130707    -0.808091924974     1.302077569183     1.007825032230

  Basis Set: AUG-CC-PVTZ
    Blend: AUG-CC-PVTZ
  Basis Set: (AUG-CC-PVTZ AUX)
    Blend: AUG-CC-PVTZ-JKFIT
	 Reference Energy          =    -305.9401583235933231 [Eh]
	 Singles Energy            =      -0.0000000000000000 [Eh]
	 Same-Spin Energy          =      -0.2982890520033378 [Eh]
	 Opposite-Spin Energy      =      -0.9801838812970789 [Eh]
	 Correlation Energy        =      -1.2784729333004168 [Eh]
	 Total Energy              =    -307.2186312568937296 [Eh]

	 ================> DF-SCS-MP2 Energies <==================
	-----------------------------------------------------------
	 SCS Same-Spin Scale       =       0.3333333333333333 [-]
	 SCS Opposite-Spin Scale   =       1.2000000000000000 [-]
	 SCS Same-Spin Energy      =      -0.0994296840011126 [Eh]
	 SCS Opposite-Spin Energy  =      -1.1762206575564946 [Eh]
	 SCS Correlation Energy    =      -1.2756503415576073 [Eh]
	 SCS Total Energy          =    -307.2158086651509166 [Eh]
	-----------------------------------------------------------

  Dipole Moment: [D]
     X:    -0.0802      Y:    -0.0166      Z:    -0.0342     Total:     0.0887

*** Psi4 exiting successfully. Buy a developer a beer!
