                               Psi4 1.3.2 release

  ==> Input File <==

--------------------------------------------------------------------------
#psi4
#
memory 32 gb

molecule  {
0 1
  O        0.0512085    -1.5060565    -0.2364615
  C        1.1670970    -0.7307880     0.2026760
  C        1.1670830     0.7308060    -0.2026730
  O       -0.0000090     1.3813690     0.3010510
  C       -1.1670960     0.7307910    -0.2026650
  C       -1.1670820    -0.7308090     0.2026660
  H        1.1989120    -0.8085610     1.3002060
  H        2.0246160    -1.2633060    -0.2188690
  H        2.0245970     1.2633380     0.2188660
  H        1.1989010     0.8085710    -1.3002050
  H       -1.1989250     0.8085650    -1.3001950
  H       -2.0246200     1.2632970     0.2188880
  H       -2.0246020    -1.2633280    -0.2188810
  H       -1.1989070    -0.8085810     1.3001960
units angstrom
no_reorient  #important for SAPT in psi4, default
symmetry c1  #important for SAPT in psi4, default
}

set PROPERTIES_ORIGIN ["COM"]
properties('MP2/aug-cc-pvtz', properties = ['dipole'])
--------------------------------------------------------------------------

    Molecular point group: c1
  Charge       = 0
  Multiplicity = 1
  Basis Set: AUG-CC-PVTZ
    Blend: AUG-CC-PVTZ
  Basis Set: (AUG-CC-PVTZ AUX)
    Blend: AUG-CC-PVTZ-JKFIT

    Orbital Energies [Eh]
    ---------------------

    Doubly Occupied:

       1A    -20.563845     2A    -20.563555     3A    -11.285858
       4A    -11.284768     5A    -11.281114     6A    -11.274195
       7A     -1.388326     8A     -1.343677     9A     -1.043277
      10A     -0.959247    11A     -0.883823    12A     -0.796897
      13A     -0.692428    14A     -0.651189    15A     -0.649263
      16A     -0.630576    17A     -0.626753    18A     -0.559169
      19A     -0.551359    20A     -0.514969    21A     -0.503175
      22A     -0.465412    23A     -0.452990    24A     -0.406251

  @DF-RHF Final Energy:  -305.92979101739667

   => Energetics <=

    Nuclear Repulsion Energy =            261.7368607714046789
    One-Electron Energy =                -936.5890715102249260
    Two-Electron Energy =                 368.9224197214236369
    Total Energy =                       -305.9297910173966670
  Basis Set: (AUG-CC-PVTZ AUX)
    Blend: AUG-CC-PVTZ-RI
    Molecular point group: c1

    Geometry (in Angstrom), charge = 0, multiplicity = 1:

       Center              X                  Y                   Z               Mass
    ------------   -----------------  -----------------  -----------------  -----------------
         O            0.041908047796    -1.483406688210    -0.248194936439    15.994914619570
         C            1.157796547796    -0.708138188210     0.190942563561    12.000000000000
         C            1.157782547796     0.753455811790    -0.214406436439    12.000000000000
         O           -0.009309452204     1.404018811790     0.289317563561    15.994914619570
         C           -1.176396452204     0.753440811790    -0.214398436439    12.000000000000
         C           -1.176382452204    -0.708159188210     0.190932563561    12.000000000000
         H            1.189611547796    -0.785911188210     1.288472563561     1.007825032230
         H            2.015315547796    -1.240656188210    -0.230602436439     1.007825032230
         H            2.015296547796     1.285987811790     0.207132563561     1.007825032230
         H            1.189600547796     0.831220811790    -1.311938436439     1.007825032230
         H           -1.208225452204     0.831214811790    -1.311928436439     1.007825032230
         H           -2.033920452204     1.285946811790     0.207154563561     1.007825032230
         H           -2.033902452204    -1.240678188210    -0.230614436439     1.007825032230
         H           -1.208207452204    -0.785931188210     1.288462563561     1.007825032230

  Basis Set: AUG-CC-PVTZ
    Blend: AUG-CC-PVTZ
  Basis Set: (AUG-CC-PVTZ AUX)
    Blend: AUG-CC-PVTZ-JKFIT
	 Reference Energy          =    -305.9297910173966670 [Eh]
	 Singles Energy            =      -0.0000000000000000 [Eh]
	 Same-Spin Energy          =      -0.2988469019144536 [Eh]
	 Opposite-Spin Energy      =      -0.9832240920614130 [Eh]
	 Correlation Energy        =      -1.2820709939758665 [Eh]
	 Total Energy              =    -307.2118620113725456 [Eh]

	 ================> DF-SCS-MP2 Energies <==================
	-----------------------------------------------------------
	 SCS Same-Spin Scale       =       0.3333333333333333 [-]
	 SCS Opposite-Spin Scale   =       1.2000000000000000 [-]
	 SCS Same-Spin Energy      =      -0.0996156339714845 [Eh]
	 SCS Opposite-Spin Energy  =      -1.1798689104736957 [Eh]
	 SCS Correlation Energy    =      -1.2794845444451801 [Eh]
	 SCS Total Energy          =    -307.2092755618418209 [Eh]
	-----------------------------------------------------------

  Dipole Moment: [D]
     X:    -0.2230      Y:     0.3403      Z:    -0.1074     Total:     0.4208

*** Psi4 exiting successfully. Buy a developer a beer!
