                               Psi4 1.4a3.dev225

  ==> Input File <==

--------------------------------------------------------------------------
#psi4
#
memory 32 gb

molecule  {
0 1
  O       -0.0000180     1.3809610     0.3010860
  C        1.1672200     0.7307320    -0.2027760
  C        1.1672384    -0.6825237     0.1894081
  O        0.0000190    -1.3809610    -0.3010890
  C       -1.1672200    -0.7307320     0.2027770
  C       -1.1672400     0.7307030    -0.2027760
  H        1.1992140     0.8075630    -1.3002910
  H        2.0246220     1.2638070     0.2183330
  H        2.0246560    -1.2637540    -0.2183310
  H        1.1992320    -0.8075370     1.3002920
  H       -1.1992100    -0.8075640     1.3002920
  H       -2.0246220    -1.2638090    -0.2183310
  H       -2.0246550     1.2637560     0.2183340
  H       -1.1992350     0.8075320    -1.3002910
units angstrom
no_reorient  #important for SAPT in psi4, default
symmetry c1  #important for SAPT in psi4, default
}

set PROPERTIES_ORIGIN ["COM"]
properties('MP2/aug-cc-pvtz', properties = ['dipole'])
--------------------------------------------------------------------------

    Molecular point group: c1
  Charge       = 0
  Multiplicity = 1
  Basis Set: AUG-CC-PVTZ
    Blend: AUG-CC-PVTZ
  Basis Set: (AUG-CC-PVTZ AUX)
    Blend: AUG-CC-PVTZ-JKFIT

    Orbital Energies [Eh]
    ---------------------

    Doubly Occupied:

       1A    -20.561986     2A    -20.560994     3A    -11.279656
       4A    -11.278198     5A    -11.277442     6A    -11.276740
       7A     -1.395947     8A     -1.351709     9A     -1.051389
      10A     -0.957928    11A     -0.885201    12A     -0.797130
      13A     -0.698732    14A     -0.650717    15A     -0.647842
      16A     -0.637388    17A     -0.630732    18A     -0.560493
      19A     -0.553056    20A     -0.510866    21A     -0.506245
      22A     -0.461396    23A     -0.456041    24A     -0.404366

  @DF-RHF Final Energy:  -305.93679790529376

   => Energetics <=

    Nuclear Repulsion Energy =            264.6872183197582444
    One-Electron Energy =                -942.4636511891098962
    Two-Electron Energy =                 371.8396349640578933
    Total Energy =                       -305.9367979052937585
  Basis Set: (AUG-CC-PVTZ AUX)
    Blend: AUG-CC-PVTZ-RI
    Molecular point group: c1

    Geometry (in Angstrom), charge = 0, multiplicity = 1:

       Center              X                  Y                   Z               Mass
    ------------   -----------------  -----------------  -----------------  -----------------
         O           -0.000017986492     1.374395076080     0.302908138593    15.994914619570
         C            1.167220013508     0.724166076080    -0.200953861407    12.000000000000
         C            1.167238413508    -0.689089623920     0.191230238593    12.000000000000
         O            0.000019013508    -1.387526923920    -0.299266861407    15.994914619570
         C           -1.167219986492    -0.737297923920     0.204599138593    12.000000000000
         C           -1.167239986492     0.724137076080    -0.200953861407    12.000000000000
         H            1.199214013508     0.800997076080    -1.298468861407     1.007825032230
         H            2.024622013508     1.257241076080     0.220155138593     1.007825032230
         H            2.024656013508    -1.270319923920    -0.216508861407     1.007825032230
         H            1.199232013508    -0.814102923920     1.302114138593     1.007825032230
         H           -1.199209986492    -0.814129923920     1.302114138593     1.007825032230
         H           -2.024621986492    -1.270374923920    -0.216508861407     1.007825032230
         H           -2.024654986492     1.257190076080     0.220156138593     1.007825032230
         H           -1.199234986492     0.800966076080    -1.298468861407     1.007825032230

  Basis Set: AUG-CC-PVTZ
    Blend: AUG-CC-PVTZ
  Basis Set: (AUG-CC-PVTZ AUX)
    Blend: AUG-CC-PVTZ-JKFIT
	 Reference Energy          =    -305.9367979052937585 [Eh]
	 Singles Energy            =      -0.0000000000000000 [Eh]
	 Same-Spin Energy          =      -0.2987986842604085 [Eh]
	 Opposite-Spin Energy      =      -0.9813295939266687 [Eh]
	 Correlation Energy        =      -1.2801282781870773 [Eh]
	 Total Energy              =    -307.2169261834808367 [Eh]

	 ================> DF-SCS-MP2 Energies <==================
	-----------------------------------------------------------
	 SCS Same-Spin Scale       =       0.3333333333333333 [-]
	 SCS Opposite-Spin Scale   =       1.2000000000000000 [-]
	 SCS Same-Spin Energy      =      -0.0995995614201362 [Eh]
	 SCS Opposite-Spin Energy  =      -1.1775955127120024 [Eh]
	 SCS Correlation Energy    =      -1.2771950741321385 [Eh]
	 SCS Total Energy          =    -307.2139929794258819 [Eh]
	-----------------------------------------------------------

  Dipole Moment: [D]
     X:     0.0415      Y:     0.0621      Z:    -0.0167     Total:     0.0765

*** Psi4 exiting successfully. Buy a developer a beer!
