                               Psi4 1.3.2 release

  ==> Input File <==

--------------------------------------------------------------------------
#psi4
#
memory 32 gb

molecule  {
0 1
  O        0.0000100    -1.3813680    -0.3010540
  C        1.1670970    -0.7307880     0.2026760
  C        1.1670848     0.5380804    -0.1492237
  O       -0.0000090     1.3813690     0.3010510
  C       -1.1670960     0.7307910    -0.2026650
  C       -1.1670820    -0.7308090     0.2026660
  H        1.1989120    -0.8085610     1.3002060
  H        2.0246160    -1.2633060    -0.2188690
  H        2.0245970     1.2633380     0.2188660
  H        1.1989010     0.8085710    -1.3002050
  H       -1.1989250     0.8085650    -1.3001950
  H       -2.0246200     1.2632970     0.2188880
  H       -2.0246020    -1.2633280    -0.2188810
  H       -1.1989070    -0.8085810     1.3001960
units angstrom
no_reorient  #important for SAPT in psi4, default
symmetry c1  #important for SAPT in psi4, default
}

set PROPERTIES_ORIGIN ["COM"]
properties('MP2/aug-cc-pvtz', properties = ['dipole'])
--------------------------------------------------------------------------

    Molecular point group: c1
  Charge       = 0
  Multiplicity = 1
  Basis Set: AUG-CC-PVTZ
    Blend: AUG-CC-PVTZ
  Basis Set: (AUG-CC-PVTZ AUX)
    Blend: AUG-CC-PVTZ-JKFIT

    Orbital Energies [Eh]
    ---------------------

    Doubly Occupied:

       1A    -20.564277     2A    -20.559789     3A    -11.286858
       4A    -11.278707     5A    -11.273442     6A    -11.273419
       7A     -1.397851     8A     -1.341268     9A     -1.080376
      10A     -0.973296    11A     -0.874886    12A     -0.792311
      13A     -0.706306    14A     -0.659265    15A     -0.654698
      16A     -0.635327    17A     -0.618681    18A     -0.577020
      19A     -0.550042    20A     -0.506411    21A     -0.484827
      22A     -0.462392    23A     -0.439806    24A     -0.415800

  @DF-RHF Final Energy:  -305.88649227517936

   => Energetics <=

    Nuclear Repulsion Energy =            266.0788253373900147
    One-Electron Energy =                -945.1165237482797465
    Two-Electron Energy =                 373.1512061357104244
    Total Energy =                       -305.8864922751793642
  Basis Set: (AUG-CC-PVTZ AUX)
    Blend: AUG-CC-PVTZ-RI
    Molecular point group: c1

    Geometry (in Angstrom), charge = 0, multiplicity = 1:

       Center              X                  Y                   Z               Mass
    ------------   -----------------  -----------------  -----------------  -----------------
         O            0.000009620955    -1.355103009273    -0.308338269905    15.994914619570
         C            1.167096620955    -0.704523009273     0.195391730095    12.000000000000
         C            1.167084420955     0.564345390727    -0.156507969905    12.000000000000
         O           -0.000009379045     1.407633990727     0.293766730095    15.994914619570
         C           -1.167096379045     0.757055990727    -0.209949269905    12.000000000000
         C           -1.167082379045    -0.704544009273     0.195381730095    12.000000000000
         H            1.198911620955    -0.782296009273     1.292921730095     1.007825032230
         H            2.024615620955    -1.237041009273    -0.226153269905     1.007825032230
         H            2.024596620955     1.289602990727     0.211581730095     1.007825032230
         H            1.198900620955     0.834835990727    -1.307489269905     1.007825032230
         H           -1.198925379045     0.834829990727    -1.307479269905     1.007825032230
         H           -2.024620379045     1.289561990727     0.211603730095     1.007825032230
         H           -2.024602379045    -1.237063009273    -0.226165269905     1.007825032230
         H           -1.198907379045    -0.782316009273     1.292911730095     1.007825032230

  Basis Set: AUG-CC-PVTZ
    Blend: AUG-CC-PVTZ
  Basis Set: (AUG-CC-PVTZ AUX)
    Blend: AUG-CC-PVTZ-JKFIT
	 Reference Energy          =    -305.8864922751793642 [Eh]
	 Singles Energy            =      -0.0000000000000000 [Eh]
	 Same-Spin Energy          =      -0.3020059553269581 [Eh]
	 Opposite-Spin Energy      =      -0.9866349138415341 [Eh]
	 Correlation Energy        =      -1.2886408691684923 [Eh]
	 Total Energy              =    -307.1751331443478534 [Eh]

	 ================> DF-SCS-MP2 Energies <==================
	-----------------------------------------------------------
	 SCS Same-Spin Scale       =       0.3333333333333333 [-]
	 SCS Opposite-Spin Scale   =       1.2000000000000000 [-]
	 SCS Same-Spin Energy      =      -0.1006686517756527 [Eh]
	 SCS Opposite-Spin Energy  =      -1.1839618966098409 [Eh]
	 SCS Correlation Energy    =      -1.2846305483854936 [Eh]
	 SCS Total Energy          =    -307.1711228235648719 [Eh]
	-----------------------------------------------------------

  Dipole Moment: [D]
     X:     0.1531      Y:    -0.2591      Z:     0.0741     Total:     0.3099

*** Psi4 exiting successfully. Buy a developer a beer!
