                               Psi4 1.3.2 release

  ==> Input File <==

--------------------------------------------------------------------------
#psi4
#
memory 32 gb

molecule  {
0 1
  O        0.0000100    -1.3813680    -0.3010540
  C        1.1670970    -0.7307880     0.2026760
  C        1.1670830     0.7308060    -0.2026730
  O       -0.0000090     1.3813690     0.3010510
  C       -1.1670960     0.7307910    -0.2026650
  C       -1.1670820    -0.7308090     0.2026660
  H        1.2633005    -0.8498060     1.2927276
  H        2.0246160    -1.2633060    -0.2188690
  H        2.0245970     1.2633380     0.2188660
  H        1.1989010     0.8085710    -1.3002050
  H       -1.1989250     0.8085650    -1.3001950
  H       -2.0246200     1.2632970     0.2188880
  H       -2.0246020    -1.2633280    -0.2188810
  H       -1.1989070    -0.8085810     1.3001960
units angstrom
no_reorient  #important for SAPT in psi4, default
symmetry c1  #important for SAPT in psi4, default
}

set PROPERTIES_ORIGIN ["COM"]
properties('MP2/aug-cc-pvtz', properties = ['dipole'])
--------------------------------------------------------------------------

    Molecular point group: c1
  Charge       = 0
  Multiplicity = 1
  Basis Set: AUG-CC-PVTZ
    Blend: AUG-CC-PVTZ
  Basis Set: (AUG-CC-PVTZ AUX)
    Blend: AUG-CC-PVTZ-JKFIT

    Orbital Energies [Eh]
    ---------------------

    Doubly Occupied:

       1A    -20.562119     2A    -20.561175     3A    -11.278753
       4A    -11.278301     5A    -11.277648     6A    -11.277631
       7A     -1.396395     8A     -1.354355     9A     -1.045996
      10A     -0.951830    11A     -0.888685    12A     -0.798577
      13A     -0.697586    14A     -0.651105    15A     -0.647850
      16A     -0.636802    17A     -0.632753    18A     -0.554820
      19A     -0.554096    20A     -0.513069    21A     -0.509717
      22A     -0.461151    23A     -0.458250    24A     -0.399324

  @DF-RHF Final Energy:  -305.93991095727165

   => Energetics <=

    Nuclear Repulsion Energy =            264.1241023858674453
    One-Electron Energy =                -941.3520467859134442
    Two-Electron Energy =                 371.2880334427743492
    Total Energy =                       -305.9399109572716497
  Basis Set: (AUG-CC-PVTZ AUX)
    Blend: AUG-CC-PVTZ-RI
    Molecular point group: c1

    Geometry (in Angstrom), charge = 0, multiplicity = 1:

       Center              X                  Y                   Z               Mass
    ------------   -----------------  -----------------  -----------------  -----------------
         O           -0.000727107633    -1.380896044963    -0.300968473041    15.994914619570
         C            1.166359892367    -0.730316044963     0.202761526959    12.000000000000
         C            1.166345892367     0.731277955037    -0.202587473041    12.000000000000
         O           -0.000746107633     1.381840955037     0.301136526959    15.994914619570
         C           -1.167833107633     0.731262955037    -0.202579473041    12.000000000000
         C           -1.167819107633    -0.730337044963     0.202751526959    12.000000000000
         H            1.262563392367    -0.849334044963     1.292813126959     1.007825032230
         H            2.023878892367    -1.262834044963    -0.218783473041     1.007825032230
         H            2.023859892367     1.263809955037     0.218951526959     1.007825032230
         H            1.198163892367     0.809042955037    -1.300119473041     1.007825032230
         H           -1.199662107633     0.809036955037    -1.300109473041     1.007825032230
         H           -2.025357107633     1.263768955037     0.218973526959     1.007825032230
         H           -2.025339107633    -1.262856044963    -0.218795473041     1.007825032230
         H           -1.199644107633    -0.808109044963     1.300281526959     1.007825032230

  Basis Set: AUG-CC-PVTZ
    Blend: AUG-CC-PVTZ
  Basis Set: (AUG-CC-PVTZ AUX)
    Blend: AUG-CC-PVTZ-JKFIT
	 Reference Energy          =    -305.9399109572716497 [Eh]
	 Singles Energy            =      -0.0000000000000000 [Eh]
	 Same-Spin Energy          =      -0.2981995180909016 [Eh]
	 Opposite-Spin Energy      =      -0.9804003810278104 [Eh]
	 Correlation Energy        =      -1.2785998991187120 [Eh]
	 Total Energy              =    -307.2185108563903668 [Eh]

	 ================> DF-SCS-MP2 Energies <==================
	-----------------------------------------------------------
	 SCS Same-Spin Scale       =       0.3333333333333333 [-]
	 SCS Opposite-Spin Scale   =       1.2000000000000000 [-]
	 SCS Same-Spin Energy      =      -0.0993998393636339 [Eh]
	 SCS Opposite-Spin Energy  =      -1.1764804572333725 [Eh]
	 SCS Correlation Energy    =      -1.2758802965970064 [Eh]
	 SCS Total Energy          =    -307.2157912538686446 [Eh]
	-----------------------------------------------------------

  Dipole Moment: [D]
     X:     0.0117      Y:    -0.0123      Z:     0.0104     Total:     0.0199

*** Psi4 exiting successfully. Buy a developer a beer!
