                               Psi4 1.3.2 release

  ==> Input File <==

--------------------------------------------------------------------------
#psi4
#
memory 32 gb

molecule  {
0 1
  O        0.0000100    -1.3813680    -0.3010540
  C        1.1670970    -0.7307880     0.2026760
  C        1.1670830     0.7308060    -0.2026730
  O       -0.0000090     1.3813690     0.3010510
  C       -1.1670960     0.7307910    -0.2026650
  C       -1.1670820    -0.7308090     0.2026660
  H        1.2046926    -0.8226920     1.4996224
  H        2.0246160    -1.2633060    -0.2188690
  H        2.0245970     1.2633380     0.2188660
  H        1.1989010     0.8085710    -1.3002050
  H       -1.1989250     0.8085650    -1.3001950
  H       -2.0246200     1.2632970     0.2188880
  H       -2.0246020    -1.2633280    -0.2188810
  H       -1.1989070    -0.8085810     1.3001960
units angstrom
no_reorient  #important for SAPT in psi4, default
symmetry c1  #important for SAPT in psi4, default
}

set PROPERTIES_ORIGIN ["COM"]
properties('MP2/aug-cc-pvtz', properties = ['dipole'])
--------------------------------------------------------------------------

    Molecular point group: c1
  Charge       = 0
  Multiplicity = 1
  Basis Set: AUG-CC-PVTZ
    Blend: AUG-CC-PVTZ
  Basis Set: (AUG-CC-PVTZ AUX)
    Blend: AUG-CC-PVTZ-JKFIT

    Orbital Energies [Eh]
    ---------------------

    Doubly Occupied:

       1A    -20.566857     2A    -20.562226     3A    -11.300943
       4A    -11.281233     5A    -11.279434     6A    -11.278773
       7A     -1.398477     8A     -1.356557     9A     -1.044873
      10A     -0.950577    11A     -0.886599    12A     -0.788938
      13A     -0.699175    14A     -0.651963    15A     -0.643359
      16A     -0.638610    17A     -0.623425    18A     -0.557043
      19A     -0.556327    20A     -0.513736    21A     -0.498939
      22A     -0.461889    23A     -0.451124    24A     -0.399581

  @DF-RHF Final Energy:  -305.92047187726212

   => Energetics <=

    Nuclear Repulsion Energy =            263.3802202810166477
    One-Electron Energy =                -939.8200707318414970
    Two-Electron Energy =                 370.5193785735627898
    Total Energy =                       -305.9204718772621163
  Basis Set: (AUG-CC-PVTZ AUX)
    Blend: AUG-CC-PVTZ-RI
    Molecular point group: c1

    Geometry (in Angstrom), charge = 0, multiplicity = 1:

       Center              X                  Y                   Z               Mass
    ------------   -----------------  -----------------  -----------------  -----------------
         O           -0.000056296969    -1.381206384701    -0.303336536701    15.994914619570
         C            1.167030703031    -0.730626384701     0.200393463299    12.000000000000
         C            1.167016703031     0.730967615299    -0.204955536701    12.000000000000
         O           -0.000075296969     1.381530615299     0.298768463299    15.994914619570
         C           -1.167162296969     0.730952615299    -0.204947536701    12.000000000000
         C           -1.167148296969    -0.730647384701     0.200383463299    12.000000000000
         H            1.204626303031    -0.822530384701     1.497339863299     1.007825032230
         H            2.024549703031    -1.263144384701    -0.221151536701     1.007825032230
         H            2.024530703031     1.263499615299     0.216583463299     1.007825032230
         H            1.198834703031     0.808732615299    -1.302487536701     1.007825032230
         H           -1.198991296969     0.808726615299    -1.302477536701     1.007825032230
         H           -2.024686296969     1.263458615299     0.216605463299     1.007825032230
         H           -2.024668296969    -1.263166384701    -0.221163536701     1.007825032230
         H           -1.198973296969    -0.808419384701     1.297913463299     1.007825032230

  Basis Set: AUG-CC-PVTZ
    Blend: AUG-CC-PVTZ
  Basis Set: (AUG-CC-PVTZ AUX)
    Blend: AUG-CC-PVTZ-JKFIT
	 Reference Energy          =    -305.9204718772621163 [Eh]
	 Singles Energy            =      -0.0000000000000000 [Eh]
	 Same-Spin Energy          =      -0.2986622848963877 [Eh]
	 Opposite-Spin Energy      =      -0.9824768735988009 [Eh]
	 Correlation Energy        =      -1.2811391584951886 [Eh]
	 Total Energy              =    -307.2016110357573098 [Eh]

	 ================> DF-SCS-MP2 Energies <==================
	-----------------------------------------------------------
	 SCS Same-Spin Scale       =       0.3333333333333333 [-]
	 SCS Opposite-Spin Scale   =       1.2000000000000000 [-]
	 SCS Same-Spin Energy      =      -0.0995540949654626 [Eh]
	 SCS Opposite-Spin Energy  =      -1.1789722483185610 [Eh]
	 SCS Correlation Energy    =      -1.2785263432840235 [Eh]
	 SCS Total Energy          =    -307.1989982205461160 [Eh]
	-----------------------------------------------------------

  Dipole Moment: [D]
     X:    -0.0833      Y:     0.0324      Z:    -0.1983     Total:     0.2176

*** Psi4 exiting successfully. Buy a developer a beer!
