                               Psi4 1.4a3.dev225

  ==> Input File <==

--------------------------------------------------------------------------
#psi4
#
memory 32 gb

molecule  {
0 1
  O       -0.0000180     1.3809610     0.3010860
  C        1.1672200     0.7307320    -0.2027760
  C        1.1672390    -0.7307030     0.2027780
  O        0.0000190    -1.3809610    -0.3010890
  C       -1.1672200    -0.7307320     0.2027770
  C       -1.1672400     0.7307030    -0.2027760
  H        1.1986326     0.8061669    -1.2803483
  H        2.0246220     1.2638070     0.2183330
  H        2.0246560    -1.2637540    -0.2183310
  H        1.1992320    -0.8075370     1.3002920
  H       -1.1992100    -0.8075640     1.3002920
  H       -2.0246220    -1.2638090    -0.2183310
  H       -2.0246550     1.2637560     0.2183340
  H       -1.1992350     0.8075320    -1.3002910
units angstrom
no_reorient  #important for SAPT in psi4, default
symmetry c1  #important for SAPT in psi4, default
}

set PROPERTIES_ORIGIN ["COM"]
properties('MP2/aug-cc-pvtz', properties = ['dipole'])
--------------------------------------------------------------------------

    Molecular point group: c1
  Charge       = 0
  Multiplicity = 1
  Basis Set: AUG-CC-PVTZ
    Blend: AUG-CC-PVTZ
  Basis Set: (AUG-CC-PVTZ AUX)
    Blend: AUG-CC-PVTZ-JKFIT

    Orbital Energies [Eh]
    ---------------------

    Doubly Occupied:

       1A    -20.561309     2A    -20.560920     3A    -11.278237
       4A    -11.277783     5A    -11.277581     6A    -11.275483
       7A     -1.396352     8A     -1.354110     9A     -1.046485
      10A     -0.952317    11A     -0.888507    12A     -0.799867
      13A     -0.696935    14A     -0.651160    15A     -0.650017
      16A     -0.636534    17A     -0.633561    18A     -0.554552
      19A     -0.553797    20A     -0.512713    21A     -0.511468
      22A     -0.461453    23A     -0.459761    24A     -0.398417

  @DF-RHF Final Energy:  -305.94054752158559

   => Energetics <=

    Nuclear Repulsion Energy =            264.3543111796490166
    One-Electron Energy =                -941.8110751791105031
    Two-Electron Energy =                 371.5162164778759006
    Total Energy =                       -305.9405475215855859
  Basis Set: (AUG-CC-PVTZ AUX)
    Blend: AUG-CC-PVTZ-RI
    Molecular point group: c1

    Geometry (in Angstrom), charge = 0, multiplicity = 1:

       Center              X                  Y                   Z               Mass
    ------------   -----------------  -----------------  -----------------  -----------------
         O           -0.000011413709     1.380977048069     0.300857797071    15.994914619570
         C            1.167226586291     0.730748048069    -0.203004202929    12.000000000000
         C            1.167245586291    -0.730686951931     0.202549797071    12.000000000000
         O            0.000025586291    -1.380944951931    -0.301317202929    15.994914619570
         C           -1.167213413709    -0.730715951931     0.202548797071    12.000000000000
         C           -1.167233413709     0.730719048069    -0.203004202929    12.000000000000
         H            1.198639186291     0.806182948069    -1.280576502929     1.007825032230
         H            2.024628586291     1.263823048069     0.218104797071     1.007825032230
         H            2.024662586291    -1.263737951931    -0.218559202929     1.007825032230
         H            1.199238586291    -0.807520951931     1.300063797071     1.007825032230
         H           -1.199203413709    -0.807547951931     1.300063797071     1.007825032230
         H           -2.024615413709    -1.263792951931    -0.218559202929     1.007825032230
         H           -2.024648413709     1.263772048069     0.218105797071     1.007825032230
         H           -1.199228413709     0.807548048069    -1.300519202929     1.007825032230

  Basis Set: AUG-CC-PVTZ
    Blend: AUG-CC-PVTZ
  Basis Set: (AUG-CC-PVTZ AUX)
    Blend: AUG-CC-PVTZ-JKFIT
	 Reference Energy          =    -305.9405475215855859 [Eh]
	 Singles Energy            =      -0.0000000000000000 [Eh]
	 Same-Spin Energy          =      -0.2982251814344455 [Eh]
	 Opposite-Spin Energy      =      -0.9803196456814087 [Eh]
	 Correlation Energy        =      -1.2785448271158542 [Eh]
	 Total Energy              =    -307.2190923487014516 [Eh]

	 ================> DF-SCS-MP2 Energies <==================
	-----------------------------------------------------------
	 SCS Same-Spin Scale       =       0.3333333333333333 [-]
	 SCS Opposite-Spin Scale   =       1.2000000000000000 [-]
	 SCS Same-Spin Energy      =      -0.0994083938114818 [Eh]
	 SCS Opposite-Spin Energy  =      -1.1763835748176905 [Eh]
	 SCS Correlation Energy    =      -1.2757919686291723 [Eh]
	 SCS Total Energy          =    -307.2163394902147502 [Eh]
	-----------------------------------------------------------

  Dipole Moment: [D]
     X:     0.0067      Y:     0.0023      Z:    -0.0151     Total:     0.0167

*** Psi4 exiting successfully. Buy a developer a beer!
