                               Psi4 1.3.2 release

  ==> Input File <==

--------------------------------------------------------------------------
#psi4
#
memory 32 gb

molecule  {
0 1
  O        0.0000100    -1.3813680    -0.3010540
  C        1.0746977    -0.6378928     0.2746034
  C        1.1670830     0.7308060    -0.2026730
  O       -0.0000090     1.3813690     0.3010510
  C       -1.1670960     0.7307910    -0.2026650
  C       -1.1670820    -0.7308090     0.2026660
  H        1.1989120    -0.8085610     1.3002060
  H        2.0246160    -1.2633060    -0.2188690
  H        2.0245970     1.2633380     0.2188660
  H        1.1989010     0.8085710    -1.3002050
  H       -1.1989250     0.8085650    -1.3001950
  H       -2.0246200     1.2632970     0.2188880
  H       -2.0246020    -1.2633280    -0.2188810
  H       -1.1989070    -0.8085810     1.3001960
units angstrom
no_reorient  #important for SAPT in psi4, default
symmetry c1  #important for SAPT in psi4, default
}

set PROPERTIES_ORIGIN ["COM"]
properties('MP2/aug-cc-pvtz', properties = ['dipole'])
--------------------------------------------------------------------------

    Molecular point group: c1
  Charge       = 0
  Multiplicity = 1
  Basis Set: AUG-CC-PVTZ
    Blend: AUG-CC-PVTZ
  Basis Set: (AUG-CC-PVTZ AUX)
    Blend: AUG-CC-PVTZ-JKFIT

    Orbital Energies [Eh]
    ---------------------

    Doubly Occupied:

       1A    -20.567140     2A    -20.558684     3A    -11.281849
       4A    -11.279183     5A    -11.277819     6A    -11.277742
       7A     -1.403270     8A     -1.357497     9A     -1.051542
      10A     -0.959894    11A     -0.882996    12A     -0.806955
      13A     -0.702713    14A     -0.657937    15A     -0.644187
      16A     -0.636682    17A     -0.634044    18A     -0.562082
      19A     -0.555570    20A     -0.520594    21A     -0.487654
      22A     -0.463130    23A     -0.452892    24A     -0.404025

  @DF-RHF Final Energy:  -305.91460766011392

   => Energetics <=

    Nuclear Repulsion Energy =            265.9782618793007032
    One-Electron Energy =                -944.9335815329027355
    Two-Electron Energy =                 373.0407119934881166
    Total Energy =                       -305.9146076601139157
  Basis Set: (AUG-CC-PVTZ AUX)
    Blend: AUG-CC-PVTZ-RI
    Molecular point group: c1

    Geometry (in Angstrom), charge = 0, multiplicity = 1:

       Center              X                  Y                   Z               Mass
    ------------   -----------------  -----------------  -----------------  -----------------
         O            0.012602268385    -1.394028109007    -0.310856510472    15.994914619570
         C            1.087289968385    -0.650552909007     0.264800889528    12.000000000000
         C            1.179675268385     0.718145890993    -0.212475510472    12.000000000000
         O            0.012583268385     1.368708890993     0.291248489528    15.994914619570
         C           -1.154503731615     0.718130890993    -0.212467510472    12.000000000000
         C           -1.154489731615    -0.743469109007     0.192863489528    12.000000000000
         H            1.211504268385    -0.821221109007     1.290403489528     1.007825032230
         H            2.037208268385    -1.275966109007    -0.228671510472     1.007825032230
         H            2.037189268385     1.250677890993     0.209063489528     1.007825032230
         H            1.211493268385     0.795910890993    -1.310007510472     1.007825032230
         H           -1.186332731615     0.795904890993    -1.309997510472     1.007825032230
         H           -2.012027731615     1.250636890993     0.209085489528     1.007825032230
         H           -2.012009731615    -1.275988109007    -0.228683510472     1.007825032230
         H           -1.186314731615    -0.821241109007     1.290393489528     1.007825032230

  Basis Set: AUG-CC-PVTZ
    Blend: AUG-CC-PVTZ
  Basis Set: (AUG-CC-PVTZ AUX)
    Blend: AUG-CC-PVTZ-JKFIT
	 Reference Energy          =    -305.9146076601139157 [Eh]
	 Singles Energy            =      -0.0000000000000000 [Eh]
	 Same-Spin Energy          =      -0.2997276010033967 [Eh]
	 Opposite-Spin Energy      =      -0.9831596292042287 [Eh]
	 Correlation Energy        =      -1.2828872302076255 [Eh]
	 Total Energy              =    -307.1974948903215363 [Eh]

	 ================> DF-SCS-MP2 Energies <==================
	-----------------------------------------------------------
	 SCS Same-Spin Scale       =       0.3333333333333333 [-]
	 SCS Opposite-Spin Scale   =       1.2000000000000000 [-]
	 SCS Same-Spin Energy      =      -0.0999092003344656 [Eh]
	 SCS Opposite-Spin Energy  =      -1.1797915550450744 [Eh]
	 SCS Correlation Energy    =      -1.2797007553795399 [Eh]
	 SCS Total Energy          =    -307.1943084154934809 [Eh]
	-----------------------------------------------------------

  Dipole Moment: [D]
     X:    -0.1433      Y:     0.1319      Z:     0.0856     Total:     0.2128

*** Psi4 exiting successfully. Buy a developer a beer!
