                               Psi4 1.3.2 release

  ==> Input File <==

--------------------------------------------------------------------------
#psi4
#
memory 32 gb

molecule  {
0 1
  O        0.0000100    -1.3813680    -0.3010540
  C        1.1670970    -0.7307880     0.2026760
  C        1.1670830     0.7308060    -0.2026730
  O       -0.0000090     1.3813690     0.3010510
  C       -1.1670960     0.7307910    -0.2026650
  C       -1.1670820    -0.7308090     0.2026660
  H        1.1989120    -0.8085610     1.3002060
  H        2.0246160    -1.2633060    -0.2188690
  H        2.0245970     1.2633380     0.2188660
  H        1.1989010     0.8085710    -1.3002050
  H       -1.1989250     0.8085650    -1.3001950
  H       -2.0246200     1.2632970     0.2188880
  H       -2.0246020    -1.2633280    -0.2188810
  H       -1.1989070    -0.8085810     1.3001960
units angstrom
no_reorient  #important for SAPT in psi4, default
symmetry c1  #important for SAPT in psi4, default
}

set PROPERTIES_ORIGIN ["COM"]
properties('MP2/aug-cc-pvtz', properties = ['dipole'])
--------------------------------------------------------------------------

    Molecular point group: c1
  Charge       = 0
  Multiplicity = 1
  Basis Set: AUG-CC-PVTZ
    Blend: AUG-CC-PVTZ
  Basis Set: (AUG-CC-PVTZ AUX)
    Blend: AUG-CC-PVTZ-JKFIT

    Orbital Energies [Eh]
    ---------------------

    Doubly Occupied:

       1A    -20.561345     2A    -20.561342     3A    -11.278352
       4A    -11.278333     5A    -11.277693     6A    -11.277681
       7A     -1.396460     8A     -1.354301     9A     -1.046089
      10A     -0.951935    11A     -0.888139    12A     -0.798491
      13A     -0.697052    14A     -0.650206    15A     -0.649529
      16A     -0.636601    17A     -0.633238    18A     -0.554616
      19A     -0.554041    20A     -0.511650    21A     -0.511463
      22A     -0.461098    23A     -0.459568    24A     -0.398561

  @DF-RHF Final Energy:  -305.94043674269795

   => Energetics <=

    Nuclear Repulsion Energy =            264.2486205449444014
    One-Electron Energy =                -941.6025405075600929
    Two-Electron Energy =                 371.4134832199177367
    Total Energy =                       -305.9404367426979547
  Basis Set: (AUG-CC-PVTZ AUX)
    Blend: AUG-CC-PVTZ-RI
    Molecular point group: c1

    Geometry (in Angstrom), charge = 0, multiplicity = 1:

       Center              X                  Y                   Z               Mass
    ------------   -----------------  -----------------  -----------------  -----------------
         O            0.000009866264    -1.381368124423    -0.301054068848    15.994914619570
         C            1.167096866264    -0.730788124423     0.202675931152    12.000000000000
         C            1.167082866264     0.730805875577    -0.202673068848    12.000000000000
         O           -0.000009133736     1.381368875577     0.301050931152    15.994914619570
         C           -1.167096133736     0.730790875577    -0.202665068848    12.000000000000
         C           -1.167082133736    -0.730809124423     0.202665931152    12.000000000000
         H            1.198911866264    -0.808561124423     1.300205931152     1.007825032230
         H            2.024615866264    -1.263306124423    -0.218869068848     1.007825032230
         H            2.024596866264     1.263337875577     0.218865931152     1.007825032230
         H            1.198900866264     0.808570875577    -1.300205068848     1.007825032230
         H           -1.198925133736     0.808564875577    -1.300195068848     1.007825032230
         H           -2.024620133736     1.263296875577     0.218887931152     1.007825032230
         H           -2.024602133736    -1.263328124423    -0.218881068848     1.007825032230
         H           -1.198907133736    -0.808581124423     1.300195931152     1.007825032230

  Basis Set: AUG-CC-PVTZ
    Blend: AUG-CC-PVTZ
  Basis Set: (AUG-CC-PVTZ AUX)
    Blend: AUG-CC-PVTZ-JKFIT
	 Reference Energy          =    -305.9404367426979547 [Eh]
	 Singles Energy            =      -0.0000000000000000 [Eh]
	 Same-Spin Energy          =      -0.2982565590230113 [Eh]
	 Opposite-Spin Energy      =      -0.9804722293266674 [Eh]
	 Correlation Energy        =      -1.2787287883496787 [Eh]
	 Total Energy              =    -307.2191655310476222 [Eh]

	 ================> DF-SCS-MP2 Energies <==================
	-----------------------------------------------------------
	 SCS Same-Spin Scale       =       0.3333333333333333 [-]
	 SCS Opposite-Spin Scale   =       1.2000000000000000 [-]
	 SCS Same-Spin Energy      =      -0.0994188530076704 [Eh]
	 SCS Opposite-Spin Energy  =      -1.1765666751920010 [Eh]
	 SCS Correlation Energy    =      -1.2759855281996715 [Eh]
	 SCS Total Energy          =    -307.2164222708976240 [Eh]
	-----------------------------------------------------------

  Dipole Moment: [D]
     X:     0.0000      Y:    -0.0000      Z:     0.0000     Total:     0.0000

*** Psi4 exiting successfully. Buy a developer a beer!
