                               Psi4 1.3.2 release

  ==> Input File <==

--------------------------------------------------------------------------
#psi4
#
memory 32 gb

molecule  {
0 1
  O       -0.0072930    -1.3598555    -0.3113011
  C        1.1670970    -0.7307880     0.2026760
  C        1.1670830     0.7308060    -0.2026730
  O       -0.0000090     1.3813690     0.3010510
  C       -1.1670960     0.7307910    -0.2026650
  C       -1.1670820    -0.7308090     0.2026660
  H        1.1989120    -0.8085610     1.3002060
  H        2.0246160    -1.2633060    -0.2188690
  H        2.0245970     1.2633380     0.2188660
  H        1.1989010     0.8085710    -1.3002050
  H       -1.1989250     0.8085650    -1.3001950
  H       -2.0246200     1.2632970     0.2188880
  H       -2.0246020    -1.2633280    -0.2188810
  H       -1.1989070    -0.8085810     1.3001960
units angstrom
no_reorient  #important for SAPT in psi4, default
symmetry c1  #important for SAPT in psi4, default
}

set PROPERTIES_ORIGIN ["COM"]
properties('MP2/aug-cc-pvtz', properties = ['dipole'])
--------------------------------------------------------------------------

    Molecular point group: c1
  Charge       = 0
  Multiplicity = 1
  Basis Set: AUG-CC-PVTZ
    Blend: AUG-CC-PVTZ
  Basis Set: (AUG-CC-PVTZ AUX)
    Blend: AUG-CC-PVTZ-JKFIT

    Orbital Energies [Eh]
    ---------------------

    Doubly Occupied:

       1A    -20.560988     2A    -20.560845     3A    -11.278745
       4A    -11.277416     5A    -11.277216     6A    -11.276497
       7A     -1.398639     8A     -1.355357     9A     -1.046722
      10A     -0.950668    11A     -0.888638    12A     -0.798955
      13A     -0.698033    14A     -0.650834    15A     -0.650028
      16A     -0.637190    17A     -0.633512    18A     -0.555243
      19A     -0.553087    20A     -0.512417    21A     -0.511021
      22A     -0.461742    23A     -0.459129    24A     -0.397025

  @DF-RHF Final Energy:  -305.94068029283409

   => Energetics <=

    Nuclear Repulsion Energy =            264.6742717964877443
    One-Electron Energy =                -942.4500098340112118
    Two-Electron Energy =                 371.8350577446894363
    Total Energy =                       -305.9406802928340880
  Basis Set: (AUG-CC-PVTZ AUX)
    Blend: AUG-CC-PVTZ-RI
    Molecular point group: c1

    Geometry (in Angstrom), charge = 0, multiplicity = 1:

       Center              X                  Y                   Z               Mass
    ------------   -----------------  -----------------  -----------------  -----------------
         O           -0.005966527961    -1.363763416664    -0.309439760928    15.994914619570
         C            1.168423472039    -0.734695916664     0.204537339072    12.000000000000
         C            1.168409472039     0.726898083336    -0.200811660928    12.000000000000
         O            0.001317472039     1.377461083336     0.302912339072    15.994914619570
         C           -1.165769527961     0.726883083336    -0.200803660928    12.000000000000
         C           -1.165755527961    -0.734716916664     0.204527339072    12.000000000000
         H            1.200238472039    -0.812468916664     1.302067339072     1.007825032230
         H            2.025942472039    -1.267213916664    -0.217007660928     1.007825032230
         H            2.025923472039     1.259430083336     0.220727339072     1.007825032230
         H            1.200227472039     0.804663083336    -1.298343660928     1.007825032230
         H           -1.197598527961     0.804657083336    -1.298333660928     1.007825032230
         H           -2.023293527961     1.259389083336     0.220749339072     1.007825032230
         H           -2.023275527961    -1.267235916664    -0.217019660928     1.007825032230
         H           -1.197580527961    -0.812488916664     1.302057339072     1.007825032230

  Basis Set: AUG-CC-PVTZ
    Blend: AUG-CC-PVTZ
  Basis Set: (AUG-CC-PVTZ AUX)
    Blend: AUG-CC-PVTZ-JKFIT
	 Reference Energy          =    -305.9406802928340880 [Eh]
	 Singles Energy            =      -0.0000000000000000 [Eh]
	 Same-Spin Energy          =      -0.2982200409325269 [Eh]
	 Opposite-Spin Energy      =      -0.9801550088692439 [Eh]
	 Correlation Energy        =      -1.2783750498017707 [Eh]
	 Total Energy              =    -307.2190553426358406 [Eh]

	 ================> DF-SCS-MP2 Energies <==================
	-----------------------------------------------------------
	 SCS Same-Spin Scale       =       0.3333333333333333 [-]
	 SCS Opposite-Spin Scale   =       1.2000000000000000 [-]
	 SCS Same-Spin Energy      =      -0.0994066803108423 [Eh]
	 SCS Opposite-Spin Energy  =      -1.1761860106430926 [Eh]
	 SCS Correlation Energy    =      -1.2755926909539348 [Eh]
	 SCS Total Energy          =    -307.2162729837880306 [Eh]
	-----------------------------------------------------------

  Dipole Moment: [D]
     X:     0.0355      Y:    -0.0602      Z:     0.0172     Total:     0.0719

*** Psi4 exiting successfully. Buy a developer a beer!
