                               Psi4 1.3.2 release

  ==> Input File <==

--------------------------------------------------------------------------
#psi4
#
memory 32 gb

molecule  {
0 1
  O        0.0000100    -1.3813680    -0.3010540
  C        1.1670970    -0.7307880     0.2026760
  C        1.1670830     0.7308060    -0.2026730
  O       -0.0000090     1.3813690     0.3010510
  C       -1.1670960     0.7307910    -0.2026650
  C       -1.1670820    -0.7308090     0.2026660
  H        1.1666400    -0.7877837     1.3019413
  H        2.0246160    -1.2633060    -0.2188690
  H        2.0245970     1.2633380     0.2188660
  H        1.1989010     0.8085710    -1.3002050
  H       -1.1989250     0.8085650    -1.3001950
  H       -2.0246200     1.2632970     0.2188880
  H       -2.0246020    -1.2633280    -0.2188810
  H       -1.1989070    -0.8085810     1.3001960
units angstrom
no_reorient  #important for SAPT in psi4, default
symmetry c1  #important for SAPT in psi4, default
}

set PROPERTIES_ORIGIN ["COM"]
properties('MP2/aug-cc-pvtz', properties = ['dipole'])
--------------------------------------------------------------------------

    Molecular point group: c1
  Charge       = 0
  Multiplicity = 1
  Basis Set: AUG-CC-PVTZ
    Blend: AUG-CC-PVTZ
  Basis Set: (AUG-CC-PVTZ AUX)
    Blend: AUG-CC-PVTZ-JKFIT

    Orbital Energies [Eh]
    ---------------------

    Doubly Occupied:

       1A    -20.561436     2A    -20.560957     3A    -11.278371
       4A    -11.278325     5A    -11.277714     6A    -11.277539
       7A     -1.396512     8A     -1.354284     9A     -1.046157
      10A     -0.952014    11A     -0.887891    12A     -0.798496
      13A     -0.696905    14A     -0.651108    15A     -0.649088
      16A     -0.636501    17A     -0.633380    18A     -0.554768
      19A     -0.553893    20A     -0.512401    21A     -0.510653
      22A     -0.461106    23A     -0.460020    24A     -0.398173

  @DF-RHF Final Energy:  -305.94023744513100

   => Energetics <=

    Nuclear Repulsion Energy =            264.3149955157610975
    One-Electron Energy =                -941.7350803077224555
    Two-Electron Energy =                 371.4798473468303541
    Total Energy =                       -305.9402374451310038
  Basis Set: (AUG-CC-PVTZ AUX)
    Blend: AUG-CC-PVTZ-RI
    Molecular point group: c1

    Geometry (in Angstrom), charge = 0, multiplicity = 1:

       Center              X                  Y                   Z               Mass
    ------------   -----------------  -----------------  -----------------  -----------------
         O            0.000379243118    -1.381605935954    -0.301073930637    15.994914619570
         C            1.167466243118    -0.731025935954     0.202656069363    12.000000000000
         C            1.167452243118     0.730568064046    -0.202692930637    12.000000000000
         O            0.000360243118     1.381131064046     0.301031069363    15.994914619570
         C           -1.166726756882     0.730553064046    -0.202684930637    12.000000000000
         C           -1.166712756882    -0.731046935954     0.202646069363    12.000000000000
         H            1.167009243118    -0.788021635954     1.301921369363     1.007825032230
         H            2.024985243118    -1.263543935954    -0.218888930637     1.007825032230
         H            2.024966243118     1.263100064046     0.218846069363     1.007825032230
         H            1.199270243118     0.808333064046    -1.300224930637     1.007825032230
         H           -1.198555756882     0.808327064046    -1.300214930637     1.007825032230
         H           -2.024250756882     1.263059064046     0.218868069363     1.007825032230
         H           -2.024232756882    -1.263565935954    -0.218900930637     1.007825032230
         H           -1.198537756882    -0.808818935954     1.300176069363     1.007825032230

  Basis Set: AUG-CC-PVTZ
    Blend: AUG-CC-PVTZ
  Basis Set: (AUG-CC-PVTZ AUX)
    Blend: AUG-CC-PVTZ-JKFIT
	 Reference Energy          =    -305.9402374451310038 [Eh]
	 Singles Energy            =      -0.0000000000000000 [Eh]
	 Same-Spin Energy          =      -0.2983095291051553 [Eh]
	 Opposite-Spin Energy      =      -0.9805457254715617 [Eh]
	 Correlation Energy        =      -1.2788552545767171 [Eh]
	 Total Energy              =    -307.2190926997077440 [Eh]

	 ================> DF-SCS-MP2 Energies <==================
	-----------------------------------------------------------
	 SCS Same-Spin Scale       =       0.3333333333333333 [-]
	 SCS Opposite-Spin Scale   =       1.2000000000000000 [-]
	 SCS Same-Spin Energy      =      -0.0994365097017184 [Eh]
	 SCS Opposite-Spin Energy  =      -1.1766548705658739 [Eh]
	 SCS Correlation Energy    =      -1.2760913802675924 [Eh]
	 SCS Total Energy          =    -307.2163288253985911 [Eh]
	-----------------------------------------------------------

  Dipole Moment: [D]
     X:    -0.0054      Y:     0.0057      Z:    -0.0064     Total:     0.0101

*** Psi4 exiting successfully. Buy a developer a beer!
