                               Psi4 1.3.2 release

  ==> Input File <==

--------------------------------------------------------------------------
#psi4
#
memory 32 gb

molecule  {
0 1
  O       -0.0384016    -1.2495516    -0.3601275
  C        1.1670970    -0.7307880     0.2026760
  C        1.1670830     0.7308060    -0.2026730
  O       -0.0000090     1.3813690     0.3010510
  C       -1.1670960     0.7307910    -0.2026650
  C       -1.1670820    -0.7308090     0.2026660
  H        1.1989120    -0.8085610     1.3002060
  H        2.0246160    -1.2633060    -0.2188690
  H        2.0245970     1.2633380     0.2188660
  H        1.1989010     0.8085710    -1.3002050
  H       -1.1989250     0.8085650    -1.3001950
  H       -2.0246200     1.2632970     0.2188880
  H       -2.0246020    -1.2633280    -0.2188810
  H       -1.1989070    -0.8085810     1.3001960
units angstrom
no_reorient  #important for SAPT in psi4, default
symmetry c1  #important for SAPT in psi4, default
}

set PROPERTIES_ORIGIN ["COM"]
properties('MP2/aug-cc-pvtz', properties = ['dipole'])
--------------------------------------------------------------------------

    Molecular point group: c1
  Charge       = 0
  Multiplicity = 1
  Basis Set: AUG-CC-PVTZ
    Blend: AUG-CC-PVTZ
  Basis Set: (AUG-CC-PVTZ AUX)
    Blend: AUG-CC-PVTZ-JKFIT

    Orbital Energies [Eh]
    ---------------------

    Doubly Occupied:

       1A    -20.559299     2A    -20.558187     3A    -11.281818
       4A    -11.274996     5A    -11.272657     6A    -11.270302
       7A     -1.412097     8A     -1.357831     9A     -1.050502
      10A     -0.944191    11A     -0.889917    12A     -0.802240
      13A     -0.703572    14A     -0.661386    15A     -0.649358
      16A     -0.636608    17A     -0.633423    18A     -0.559389
      19A     -0.546872    20A     -0.514186    21A     -0.508893
      22A     -0.466831    23A     -0.454760    24A     -0.388522

  @DF-RHF Final Energy:  -305.93512320198886

   => Energetics <=

    Nuclear Repulsion Energy =            266.8089559604997589
    One-Electron Energy =                -946.6924850967258180
    Two-Electron Energy =                 373.9484059342372575
    Total Energy =                       -305.9351232019888585
  Basis Set: (AUG-CC-PVTZ AUX)
    Blend: AUG-CC-PVTZ-RI
    Molecular point group: c1

    Geometry (in Angstrom), charge = 0, multiplicity = 1:

       Center              X                  Y                   Z               Mass
    ------------   -----------------  -----------------  -----------------  -----------------
         O           -0.031424183362    -1.273496459117    -0.349396739566    15.994914619570
         C            1.174074416638    -0.754732859117     0.213406760434    12.000000000000
         C            1.174060416638     0.706861140883    -0.191942239566    12.000000000000
         O            0.006968416638     1.357424140883     0.311781760434    15.994914619570
         C           -1.160118583362     0.706846140883    -0.191934239566    12.000000000000
         C           -1.160104583362    -0.754753859117     0.213396760434    12.000000000000
         H            1.205889416638    -0.832505859117     1.310936760434     1.007825032230
         H            2.031593416638    -1.287250859117    -0.208138239566     1.007825032230
         H            2.031574416638     1.239393140883     0.229596760434     1.007825032230
         H            1.205878416638     0.784626140883    -1.289474239566     1.007825032230
         H           -1.191947583362     0.784620140883    -1.289464239566     1.007825032230
         H           -2.017642583362     1.239352140883     0.229618760434     1.007825032230
         H           -2.017624583362    -1.287272859117    -0.208150239566     1.007825032230
         H           -1.191929583362    -0.832525859117     1.310926760434     1.007825032230

  Basis Set: AUG-CC-PVTZ
    Blend: AUG-CC-PVTZ
  Basis Set: (AUG-CC-PVTZ AUX)
    Blend: AUG-CC-PVTZ-JKFIT
	 Reference Energy          =    -305.9351232019888585 [Eh]
	 Singles Energy            =      -0.0000000000000000 [Eh]
	 Same-Spin Energy          =      -0.2983118572032211 [Eh]
	 Opposite-Spin Energy      =      -0.9791979551377943 [Eh]
	 Correlation Energy        =      -1.2775098123410153 [Eh]
	 Total Energy              =    -307.2126330143298674 [Eh]

	 ================> DF-SCS-MP2 Energies <==================
	-----------------------------------------------------------
	 SCS Same-Spin Scale       =       0.3333333333333333 [-]
	 SCS Opposite-Spin Scale   =       1.2000000000000000 [-]
	 SCS Same-Spin Energy      =      -0.0994372857344070 [Eh]
	 SCS Opposite-Spin Energy  =      -1.1750375461653531 [Eh]
	 SCS Correlation Energy    =      -1.2744748318997601 [Eh]
	 SCS Total Energy          =    -307.2095980338885965 [Eh]
	-----------------------------------------------------------

  Dipole Moment: [D]
     X:     0.2012      Y:    -0.3723      Z:     0.0994     Total:     0.4347

*** Psi4 exiting successfully. Buy a developer a beer!
