                               Psi4 1.3.2 release

  ==> Input File <==

--------------------------------------------------------------------------
#psi4
#
memory 32 gb

molecule  {
0 1
  O        0.0463806    -1.3417308    -0.4375068
  C        1.1670970    -0.7307880     0.2026760
  C        1.1670830     0.7308060    -0.2026730
  O       -0.0000090     1.3813690     0.3010510
  C       -1.1670960     0.7307910    -0.2026650
  C       -1.1670820    -0.7308090     0.2026660
  H        1.1989120    -0.8085610     1.3002060
  H        2.0246160    -1.2633060    -0.2188690
  H        2.0245970     1.2633380     0.2188660
  H        1.1989010     0.8085710    -1.3002050
  H       -1.1989250     0.8085650    -1.3001950
  H       -2.0246200     1.2632970     0.2188880
  H       -2.0246020    -1.2633280    -0.2188810
  H       -1.1989070    -0.8085810     1.3001960
units angstrom
no_reorient  #important for SAPT in psi4, default
symmetry c1  #important for SAPT in psi4, default
}

set PROPERTIES_ORIGIN ["COM"]
properties('MP2/aug-cc-pvtz', properties = ['dipole'])
--------------------------------------------------------------------------

    Molecular point group: c1
  Charge       = 0
  Multiplicity = 1
  Basis Set: AUG-CC-PVTZ
    Blend: AUG-CC-PVTZ
  Basis Set: (AUG-CC-PVTZ AUX)
    Blend: AUG-CC-PVTZ-JKFIT

    Orbital Energies [Eh]
    ---------------------

    Doubly Occupied:

       1A    -20.564257     2A    -20.560628     3A    -11.285067
       4A    -11.279139     5A    -11.275385     6A    -11.274308
       7A     -1.389648     8A     -1.343206     9A     -1.043289
      10A     -0.952792    11A     -0.879240    12A     -0.803008
      13A     -0.694018    14A     -0.653779    15A     -0.645779
      16A     -0.624367    17A     -0.624133    18A     -0.557232
      19A     -0.547180    20A     -0.514323    21A     -0.499816
      22A     -0.473185    23A     -0.456272    24A     -0.398893

  @DF-RHF Final Energy:  -305.92935591327006

   => Energetics <=

    Nuclear Repulsion Energy =            263.5239245300929838
    One-Electron Energy =                -940.2286700736644889
    Two-Electron Energy =                 370.7753896303015040
    Total Energy =                       -305.9293559132700580
  Basis Set: (AUG-CC-PVTZ AUX)
    Blend: AUG-CC-PVTZ-RI
    Molecular point group: c1

    Geometry (in Angstrom), charge = 0, multiplicity = 1:

       Center              X                  Y                   Z               Mass
    ------------   -----------------  -----------------  -----------------  -----------------
         O            0.037957146293    -1.348931107694    -0.412719922047    15.994914619570
         C            1.158673546293    -0.737988307694     0.227462877953    12.000000000000
         C            1.158659546293     0.723605692306    -0.177886122047    12.000000000000
         O           -0.008432453707     1.374168692306     0.325837877953    15.994914619570
         C           -1.175519453707     0.723590692306    -0.177878122047    12.000000000000
         C           -1.175505453707    -0.738009307694     0.227452877953    12.000000000000
         H            1.190488546293    -0.815761307694     1.324992877953     1.007825032230
         H            2.016192546293    -1.270506307694    -0.194082122047     1.007825032230
         H            2.016173546293     1.256137692306     0.243652877953     1.007825032230
         H            1.190477546293     0.801370692306    -1.275418122047     1.007825032230
         H           -1.207348453707     0.801364692306    -1.275408122047     1.007825032230
         H           -2.033043453707     1.256096692306     0.243674877953     1.007825032230
         H           -2.033025453707    -1.270528307694    -0.194094122047     1.007825032230
         H           -1.207330453707    -0.815781307694     1.324982877953     1.007825032230

  Basis Set: AUG-CC-PVTZ
    Blend: AUG-CC-PVTZ
  Basis Set: (AUG-CC-PVTZ AUX)
    Blend: AUG-CC-PVTZ-JKFIT
	 Reference Energy          =    -305.9293559132700580 [Eh]
	 Singles Energy            =      -0.0000000000000000 [Eh]
	 Same-Spin Energy          =      -0.2990766615648134 [Eh]
	 Opposite-Spin Energy      =      -0.9833238107026807 [Eh]
	 Correlation Energy        =      -1.2824004722674940 [Eh]
	 Total Energy              =    -307.2117563855375693 [Eh]

	 ================> DF-SCS-MP2 Energies <==================
	-----------------------------------------------------------
	 SCS Same-Spin Scale       =       0.3333333333333333 [-]
	 SCS Opposite-Spin Scale   =       1.2000000000000000 [-]
	 SCS Same-Spin Energy      =      -0.0996922205216045 [Eh]
	 SCS Opposite-Spin Energy  =      -1.1799885728432169 [Eh]
	 SCS Correlation Energy    =      -1.2796807933648213 [Eh]
	 SCS Total Energy          =    -307.2090367066348904 [Eh]
	-----------------------------------------------------------

  Dipole Moment: [D]
     X:    -0.2042      Y:    -0.0778      Z:     0.2808     Total:     0.3558

*** Psi4 exiting successfully. Buy a developer a beer!
