                               Psi4 1.3.2 release

  ==> Input File <==

--------------------------------------------------------------------------
#psi4
#
memory 32 gb

molecule  {
0 1
  O        0.0000100    -1.3813680    -0.3010540
  C        1.1376708    -0.6989790     0.2273053
  C        1.1670830     0.7308060    -0.2026730
  O       -0.0000090     1.3813690     0.3010510
  C       -1.1670960     0.7307910    -0.2026650
  C       -1.1670820    -0.7308090     0.2026660
  H        1.1989120    -0.8085610     1.3002060
  H        2.0246160    -1.2633060    -0.2188690
  H        2.0245970     1.2633380     0.2188660
  H        1.1989010     0.8085710    -1.3002050
  H       -1.1989250     0.8085650    -1.3001950
  H       -2.0246200     1.2632970     0.2188880
  H       -2.0246020    -1.2633280    -0.2188810
  H       -1.1989070    -0.8085810     1.3001960
units angstrom
no_reorient  #important for SAPT in psi4, default
symmetry c1  #important for SAPT in psi4, default
}

set PROPERTIES_ORIGIN ["COM"]
properties('MP2/aug-cc-pvtz', properties = ['dipole'])
--------------------------------------------------------------------------

    Molecular point group: c1
  Charge       = 0
  Multiplicity = 1
  Basis Set: AUG-CC-PVTZ
    Blend: AUG-CC-PVTZ
  Basis Set: (AUG-CC-PVTZ AUX)
    Blend: AUG-CC-PVTZ-JKFIT

    Orbital Energies [Eh]
    ---------------------

    Doubly Occupied:

       1A    -20.562988     2A    -20.560317     3A    -11.278628
       4A    -11.278352     5A    -11.277524     6A    -11.277484
       7A     -1.398368     8A     -1.355093     9A     -1.047643
      10A     -0.954527    11A     -0.886041    12A     -0.800811
      13A     -0.697788    14A     -0.652608    15A     -0.645377
      16A     -0.636579    17A     -0.635206    18A     -0.556317
      19A     -0.553365    20A     -0.515124    21A     -0.503305
      22A     -0.462196    23A     -0.459371    24A     -0.401261

  @DF-RHF Final Energy:  -305.93688585137022

   => Energetics <=

    Nuclear Repulsion Energy =            264.8202830133972157
    One-Electron Energy =                -942.7217924561871314
    Two-Electron Energy =                 371.9646235914196950
    Total Energy =                       -305.9368858513702207
  Basis Set: (AUG-CC-PVTZ AUX)
    Blend: AUG-CC-PVTZ-RI
    Molecular point group: c1

    Geometry (in Angstrom), charge = 0, multiplicity = 1:

       Center              X                  Y                   Z               Mass
    ------------   -----------------  -----------------  -----------------  -----------------
         O            0.004020140620    -1.385703132579    -0.304410609964    15.994914619570
         C            1.141680940620    -0.703314132579     0.223948690036    12.000000000000
         C            1.171093140620     0.726470867421    -0.206029609964    12.000000000000
         O            0.004001140620     1.377033867421     0.297694390036    15.994914619570
         C           -1.163085859380     0.726455867421    -0.206021609964    12.000000000000
         C           -1.163071859380    -0.735144132579     0.199309390036    12.000000000000
         H            1.202922140620    -0.812896132579     1.296849390036     1.007825032230
         H            2.028626140620    -1.267641132579    -0.222225609964     1.007825032230
         H            2.028607140620     1.259002867421     0.215509390036     1.007825032230
         H            1.202911140620     0.804235867421    -1.303561609964     1.007825032230
         H           -1.194914859380     0.804229867421    -1.303551609964     1.007825032230
         H           -2.020609859380     1.258961867421     0.215531390036     1.007825032230
         H           -2.020591859380    -1.267663132579    -0.222237609964     1.007825032230
         H           -1.194896859380    -0.812916132579     1.296839390036     1.007825032230

  Basis Set: AUG-CC-PVTZ
    Blend: AUG-CC-PVTZ
  Basis Set: (AUG-CC-PVTZ AUX)
    Blend: AUG-CC-PVTZ-JKFIT
	 Reference Energy          =    -305.9368858513702207 [Eh]
	 Singles Energy            =      -0.0000000000000000 [Eh]
	 Same-Spin Energy          =      -0.2986116969105478 [Eh]
	 Opposite-Spin Energy      =      -0.9810320089780077 [Eh]
	 Correlation Energy        =      -1.2796437058885555 [Eh]
	 Total Energy              =    -307.2165295572587524 [Eh]

	 ================> DF-SCS-MP2 Energies <==================
	-----------------------------------------------------------
	 SCS Same-Spin Scale       =       0.3333333333333333 [-]
	 SCS Opposite-Spin Scale   =       1.2000000000000000 [-]
	 SCS Same-Spin Energy      =      -0.0995372323035159 [Eh]
	 SCS Opposite-Spin Energy  =      -1.1772384107736091 [Eh]
	 SCS Correlation Energy    =      -1.2767756430771251 [Eh]
	 SCS Total Energy          =    -307.2136614944473649 [Eh]
	-----------------------------------------------------------

  Dipole Moment: [D]
     X:    -0.0319      Y:     0.0388      Z:     0.0317     Total:     0.0594

*** Psi4 exiting successfully. Buy a developer a beer!
