                               Psi4 1.3.2 release

  ==> Input File <==

--------------------------------------------------------------------------
#psi4
#
memory 32 gb

molecule  {
0 1
  O        0.0000100    -1.3813680    -0.3010540
  C        1.1670970    -0.7307880     0.2026760
  C        1.1670830     0.7308060    -0.2026730
  O       -0.0000090     1.3813690     0.3010510
  C       -1.1670960     0.7307910    -0.2026650
  C       -1.1670820    -0.7308090     0.2026660
  H        1.1931314    -0.7944300     1.1007896
  H        2.0246160    -1.2633060    -0.2188690
  H        2.0245970     1.2633380     0.2188660
  H        1.1989010     0.8085710    -1.3002050
  H       -1.1989250     0.8085650    -1.3001950
  H       -2.0246200     1.2632970     0.2188880
  H       -2.0246020    -1.2633280    -0.2188810
  H       -1.1989070    -0.8085810     1.3001960
units angstrom
no_reorient  #important for SAPT in psi4, default
symmetry c1  #important for SAPT in psi4, default
}

set PROPERTIES_ORIGIN ["COM"]
properties('MP2/aug-cc-pvtz', properties = ['dipole'])
--------------------------------------------------------------------------

    Molecular point group: c1
  Charge       = 0
  Multiplicity = 1
  Basis Set: AUG-CC-PVTZ
    Blend: AUG-CC-PVTZ
  Basis Set: (AUG-CC-PVTZ AUX)
    Blend: AUG-CC-PVTZ-JKFIT

    Orbital Energies [Eh]
    ---------------------

    Doubly Occupied:

       1A    -20.561066     2A    -20.557851     3A    -11.277783
       4A    -11.277122     5A    -11.276123     6A    -11.253078
       7A     -1.395915     8A     -1.353249     9A     -1.052606
      10A     -0.958768    11A     -0.894527    12A     -0.814395
      13A     -0.696270    14A     -0.668257    15A     -0.649175
      16A     -0.636716    17A     -0.634410    18A     -0.553543
      19A     -0.552562    20A     -0.523927    21A     -0.510508
      22A     -0.464367    23A     -0.459339    24A     -0.397696

  @DF-RHF Final Energy:  -305.90879937581678

   => Energetics <=

    Nuclear Repulsion Energy =            265.3318557192569074
    One-Electron Energy =                -943.6428076689444424
    Two-Electron Energy =                 372.4021525738706941
    Total Energy =                       -305.9087993758167840
  Basis Set: (AUG-CC-PVTZ AUX)
    Blend: AUG-CC-PVTZ-RI
    Molecular point group: c1

    Geometry (in Angstrom), charge = 0, multiplicity = 1:

       Center              X                  Y                   Z               Mass
    ------------   -----------------  -----------------  -----------------  -----------------
         O            0.000076029496    -1.381529864146    -0.298771600994    15.994914619570
         C            1.167163029496    -0.730949864146     0.204958399006    12.000000000000
         C            1.167149029496     0.730644135854    -0.200390600994    12.000000000000
         O            0.000057029496     1.381207135854     0.303333399006    15.994914619570
         C           -1.167029970504     0.730629135854    -0.200382600994    12.000000000000
         C           -1.167015970504    -0.730970864146     0.204948399006    12.000000000000
         H            1.193197429496    -0.794591864146     1.103071999006     1.007825032230
         H            2.024682029496    -1.263467864146    -0.216586600994     1.007825032230
         H            2.024663029496     1.263176135854     0.221148399006     1.007825032230
         H            1.198967029496     0.808409135854    -1.297922600994     1.007825032230
         H           -1.198858970504     0.808403135854    -1.297912600994     1.007825032230
         H           -2.024553970504     1.263135135854     0.221170399006     1.007825032230
         H           -2.024535970504    -1.263489864146    -0.216598600994     1.007825032230
         H           -1.198840970504    -0.808742864146     1.302478399006     1.007825032230

  Basis Set: AUG-CC-PVTZ
    Blend: AUG-CC-PVTZ
  Basis Set: (AUG-CC-PVTZ AUX)
    Blend: AUG-CC-PVTZ-JKFIT
	 Reference Energy          =    -305.9087993758167840 [Eh]
	 Singles Energy            =      -0.0000000000000000 [Eh]
	 Same-Spin Energy          =      -0.2980610522434095 [Eh]
	 Opposite-Spin Energy      =      -0.9795909634611961 [Eh]
	 Correlation Energy        =      -1.2776520157046056 [Eh]
	 Total Energy              =    -307.1864513915214161 [Eh]

	 ================> DF-SCS-MP2 Energies <==================
	-----------------------------------------------------------
	 SCS Same-Spin Scale       =       0.3333333333333333 [-]
	 SCS Opposite-Spin Scale   =       1.2000000000000000 [-]
	 SCS Same-Spin Energy      =      -0.0993536840811365 [Eh]
	 SCS Opposite-Spin Energy  =      -1.1755091561534352 [Eh]
	 SCS Correlation Energy    =      -1.2748628402345716 [Eh]
	 SCS Total Energy          =    -307.1836622160513457 [Eh]
	-----------------------------------------------------------

  Dipole Moment: [D]
     X:     0.0537      Y:    -0.0149      Z:     0.1125     Total:     0.1255

*** Psi4 exiting successfully. Buy a developer a beer!
