                               Psi4 1.3.2 release

  ==> Input File <==

--------------------------------------------------------------------------
#psi4
#
memory 32 gb

molecule  {
0 1
  O        0.0000100    -1.3813680    -0.3010540
  C        1.1670970    -0.7307880     0.2026760
  C        1.1670830     0.7308060    -0.2026730
  O       -0.0000090     1.3813690     0.3010510
  C       -1.1670960     0.7307910    -0.2026650
  C       -1.1670820    -0.7308090     0.2026660
  H        1.1827784    -0.7981826     1.3012410
  H        2.0246160    -1.2633060    -0.2188690
  H        2.0245970     1.2633380     0.2188660
  H        1.1989010     0.8085710    -1.3002050
  H       -1.1989250     0.8085650    -1.3001950
  H       -2.0246200     1.2632970     0.2188880
  H       -2.0246020    -1.2633280    -0.2188810
  H       -1.1989070    -0.8085810     1.3001960
units angstrom
no_reorient  #important for SAPT in psi4, default
symmetry c1  #important for SAPT in psi4, default
}

set PROPERTIES_ORIGIN ["COM"]
properties('MP2/aug-cc-pvtz', properties = ['dipole'])
--------------------------------------------------------------------------

    Molecular point group: c1
  Charge       = 0
  Multiplicity = 1
  Basis Set: AUG-CC-PVTZ
    Blend: AUG-CC-PVTZ
  Basis Set: (AUG-CC-PVTZ AUX)
    Blend: AUG-CC-PVTZ-JKFIT

    Orbital Energies [Eh]
    ---------------------

    Doubly Occupied:

       1A    -20.561389     2A    -20.561150     3A    -11.278357
       4A    -11.278317     5A    -11.277700     6A    -11.277627
       7A     -1.396484     8A     -1.354292     9A     -1.046121
      10A     -0.951972    11A     -0.888013    12A     -0.798490
      13A     -0.696968    14A     -0.650600    15A     -0.649361
      16A     -0.636551    17A     -0.633318    18A     -0.554677
      19A     -0.553971    20A     -0.512014    21A     -0.511088
      22A     -0.461097    23A     -0.459813    24A     -0.398367

  @DF-RHF Final Energy:  -305.94037578238090

   => Energetics <=

    Nuclear Repulsion Energy =            264.2814609421748173
    One-Electron Energy =                -941.6681975335690140
    Two-Electron Energy =                 371.4463608090132993
    Total Energy =                       -305.9403757823808974
  Basis Set: (AUG-CC-PVTZ AUX)
    Blend: AUG-CC-PVTZ-RI
    Molecular point group: c1

    Geometry (in Angstrom), charge = 0, multiplicity = 1:

       Center              X                  Y                   Z               Mass
    ------------   -----------------  -----------------  -----------------  -----------------
         O            0.000194527221    -1.381486912870    -0.301065915186    15.994914619570
         C            1.167281527221    -0.730906912870     0.202664084814    12.000000000000
         C            1.167267527221     0.730687087130    -0.202684915186    12.000000000000
         O            0.000175527221     1.381250087130     0.301039084814    15.994914619570
         C           -1.166911472779     0.730672087130    -0.202676915186    12.000000000000
         C           -1.166897472779    -0.730927912870     0.202654084814    12.000000000000
         H            1.182962927221    -0.798301512870     1.301229084814     1.007825032230
         H            2.024800527221    -1.263424912870    -0.218880915186     1.007825032230
         H            2.024781527221     1.263219087130     0.218854084814     1.007825032230
         H            1.199085527221     0.808452087130    -1.300216915186     1.007825032230
         H           -1.198740472779     0.808446087130    -1.300206915186     1.007825032230
         H           -2.024435472779     1.263178087130     0.218876084814     1.007825032230
         H           -2.024417472779    -1.263446912870    -0.218892915186     1.007825032230
         H           -1.198722472779    -0.808699912870     1.300184084814     1.007825032230

  Basis Set: AUG-CC-PVTZ
    Blend: AUG-CC-PVTZ
  Basis Set: (AUG-CC-PVTZ AUX)
    Blend: AUG-CC-PVTZ-JKFIT
	 Reference Energy          =    -305.9403757823808974 [Eh]
	 Singles Energy            =      -0.0000000000000000 [Eh]
	 Same-Spin Energy          =      -0.2982809891682410 [Eh]
	 Opposite-Spin Energy      =      -0.9805058569876838 [Eh]
	 Correlation Energy        =      -1.2787868461559249 [Eh]
	 Total Energy              =    -307.2191626285368216 [Eh]

	 ================> DF-SCS-MP2 Energies <==================
	-----------------------------------------------------------
	 SCS Same-Spin Scale       =       0.3333333333333333 [-]
	 SCS Opposite-Spin Scale   =       1.2000000000000000 [-]
	 SCS Same-Spin Energy      =      -0.0994269963894137 [Eh]
	 SCS Opposite-Spin Energy  =      -1.1766070283852206 [Eh]
	 SCS Correlation Energy    =      -1.2760340247746342 [Eh]
	 SCS Total Energy          =    -307.2164098071555145 [Eh]
	-----------------------------------------------------------

  Dipole Moment: [D]
     X:    -0.0027      Y:     0.0029      Z:    -0.0031     Total:     0.0050

*** Psi4 exiting successfully. Buy a developer a beer!
