                               Psi4 1.3.2 release

  ==> Input File <==

--------------------------------------------------------------------------
#psi4
#
memory 32 gb

molecule  {
0 1
  O        0.0000100    -1.3813680    -0.3010540
  C        1.1670970    -0.7307880     0.2026760
  C        1.1670830     0.7308060    -0.2026730
  O       -0.0000090     1.3813690     0.3010510
  C       -1.1670960     0.7307910    -0.2026650
  C       -1.1670820    -0.7308090     0.2026660
  H        1.1021370    -0.7460463     1.3013936
  H        2.0246160    -1.2633060    -0.2188690
  H        2.0245970     1.2633380     0.2188660
  H        1.1989010     0.8085710    -1.3002050
  H       -1.1989250     0.8085650    -1.3001950
  H       -2.0246200     1.2632970     0.2188880
  H       -2.0246020    -1.2633280    -0.2188810
  H       -1.1989070    -0.8085810     1.3001960
units angstrom
no_reorient  #important for SAPT in psi4, default
symmetry c1  #important for SAPT in psi4, default
}

set PROPERTIES_ORIGIN ["COM"]
properties('MP2/aug-cc-pvtz', properties = ['dipole'])
--------------------------------------------------------------------------

    Molecular point group: c1
  Charge       = 0
  Multiplicity = 1
  Basis Set: AUG-CC-PVTZ
    Blend: AUG-CC-PVTZ
  Basis Set: (AUG-CC-PVTZ AUX)
    Blend: AUG-CC-PVTZ-JKFIT

    Orbital Energies [Eh]
    ---------------------

    Doubly Occupied:

       1A    -20.561644     2A    -20.560191     3A    -11.278498
       4A    -11.278441     5A    -11.277787     6A    -11.277069
       7A     -1.396661     8A     -1.354279     9A     -1.046337
      10A     -0.952227    11A     -0.887441    12A     -0.798600
      13A     -0.696883    14A     -0.653262    15A     -0.647942
      16A     -0.636340    17A     -0.633440    18A     -0.555333
      19A     -0.553607    20A     -0.513737    21A     -0.508747
      22A     -0.461316    23A     -0.460420    24A     -0.397382

  @DF-RHF Final Energy:  -305.93890533541474

   => Energetics <=

    Nuclear Repulsion Energy =            264.4561677405390583
    One-Electron Energy =                -942.0149787113828097
    Two-Electron Energy =                 371.6199056354290065
    Total Energy =                       -305.9389053354147450
  Basis Set: (AUG-CC-PVTZ AUX)
    Blend: AUG-CC-PVTZ-RI
    Molecular point group: c1

    Geometry (in Angstrom), charge = 0, multiplicity = 1:

       Center              X                  Y                   Z               Mass
    ------------   -----------------  -----------------  -----------------  -----------------
         O            0.001117527552    -1.382083651297    -0.301067661806    15.994914619570
         C            1.168204527552    -0.731503651297     0.202662338194    12.000000000000
         C            1.168190527552     0.730090348703    -0.202686661806    12.000000000000
         O            0.001098527552     1.380653348703     0.301037338194    15.994914619570
         C           -1.165988472448     0.730075348703    -0.202678661806    12.000000000000
         C           -1.165974472448    -0.731524651297     0.202652338194    12.000000000000
         H            1.103244527552    -0.746761951297     1.301379938194     1.007825032230
         H            2.025723527552    -1.264021651297    -0.218882661806     1.007825032230
         H            2.025704527552     1.262622348703     0.218852338194     1.007825032230
         H            1.200008527552     0.807855348703    -1.300218661806     1.007825032230
         H           -1.197817472448     0.807849348703    -1.300208661806     1.007825032230
         H           -2.023512472448     1.262581348703     0.218874338194     1.007825032230
         H           -2.023494472448    -1.264043651297    -0.218894661806     1.007825032230
         H           -1.197799472448    -0.809296651297     1.300182338194     1.007825032230

  Basis Set: AUG-CC-PVTZ
    Blend: AUG-CC-PVTZ
  Basis Set: (AUG-CC-PVTZ AUX)
    Blend: AUG-CC-PVTZ-JKFIT
	 Reference Energy          =    -305.9389053354147450 [Eh]
	 Singles Energy            =      -0.0000000000000000 [Eh]
	 Same-Spin Energy          =      -0.2984653548983602 [Eh]
	 Opposite-Spin Energy      =      -0.9807675166621151 [Eh]
	 Correlation Energy        =      -1.2792328715604753 [Eh]
	 Total Energy              =    -307.2181382069751976 [Eh]

	 ================> DF-SCS-MP2 Energies <==================
	-----------------------------------------------------------
	 SCS Same-Spin Scale       =       0.3333333333333333 [-]
	 SCS Opposite-Spin Scale   =       1.2000000000000000 [-]
	 SCS Same-Spin Energy      =      -0.0994884516327867 [Eh]
	 SCS Opposite-Spin Energy  =      -1.1769210199945381 [Eh]
	 SCS Correlation Energy    =      -1.2764094716273249 [Eh]
	 SCS Total Energy          =    -307.2153148070420912 [Eh]
	-----------------------------------------------------------

  Dipole Moment: [D]
     X:    -0.0156      Y:     0.0164      Z:    -0.0217     Total:     0.0314

*** Psi4 exiting successfully. Buy a developer a beer!
