                               Psi4 1.3.2 release

  ==> Input File <==

--------------------------------------------------------------------------
#psi4
#
memory 32 gb

molecule  {
0 1
  O        0.0000100    -1.3813680    -0.3010540
  C        1.3305583    -0.6396683     0.2732280
  C        1.1670830     0.7308060    -0.2026730
  O       -0.0000090     1.3813690     0.3010510
  C       -1.1670960     0.7307910    -0.2026650
  C       -1.1670820    -0.7308090     0.2026660
  H        1.1989120    -0.8085610     1.3002060
  H        2.0246160    -1.2633060    -0.2188690
  H        2.0245970     1.2633380     0.2188660
  H        1.1989010     0.8085710    -1.3002050
  H       -1.1989250     0.8085650    -1.3001950
  H       -2.0246200     1.2632970     0.2188880
  H       -2.0246020    -1.2633280    -0.2188810
  H       -1.1989070    -0.8085810     1.3001960
units angstrom
no_reorient  #important for SAPT in psi4, default
symmetry c1  #important for SAPT in psi4, default
}

set PROPERTIES_ORIGIN ["COM"]
properties('MP2/aug-cc-pvtz', properties = ['dipole'])
--------------------------------------------------------------------------

    Molecular point group: c1
  Charge       = 0
  Multiplicity = 1
  Basis Set: AUG-CC-PVTZ
    Blend: AUG-CC-PVTZ
  Basis Set: (AUG-CC-PVTZ AUX)
    Blend: AUG-CC-PVTZ-JKFIT

    Orbital Energies [Eh]
    ---------------------

    Doubly Occupied:

       1A    -20.565710     2A    -20.542107     3A    -11.285750
       4A    -11.284122     5A    -11.273934     6A    -11.267401
       7A     -1.385278     8A     -1.312004     9A     -1.056342
      10A     -0.958363    11A     -0.879382    12A     -0.801270
      13A     -0.688389    14A     -0.662542    15A     -0.655681
      16A     -0.625367    17A     -0.612020    18A     -0.563969
      19A     -0.533432    20A     -0.530244    21A     -0.500142
      22A     -0.457814    23A     -0.437382    24A     -0.400995

  @DF-RHF Final Energy:  -305.90908082273313

   => Energetics <=

    Nuclear Repulsion Energy =            261.9382550841398256
    One-Electron Energy =                -937.1353889814187141
    Two-Electron Energy =                 369.2880530745458145
    Total Energy =                       -305.9090808227331308
  Basis Set: (AUG-CC-PVTZ AUX)
    Blend: AUG-CC-PVTZ-RI
    Molecular point group: c1

    Geometry (in Angstrom), charge = 0, multiplicity = 1:

       Center              X                  Y                   Z               Mass
    ------------   -----------------  -----------------  -----------------  -----------------
         O           -0.022267038658    -1.393786139534    -0.310669067603    15.994914619570
         C            1.308281261342    -0.652086439534     0.263612932397    12.000000000000
         C            1.144805961342     0.718387860466    -0.212288067603    12.000000000000
         O           -0.022286038658     1.368950860466     0.291435932397    15.994914619570
         C           -1.189373038658     0.718372860466    -0.212280067603    12.000000000000
         C           -1.189359038658    -0.743227139534     0.193050932397    12.000000000000
         H            1.176634961342    -0.820979139534     1.290590932397     1.007825032230
         H            2.002338961342    -1.275724139534    -0.228484067603     1.007825032230
         H            2.002319961342     1.250919860466     0.209250932397     1.007825032230
         H            1.176623961342     0.796152860466    -1.309820067603     1.007825032230
         H           -1.221202038658     0.796146860466    -1.309810067603     1.007825032230
         H           -2.046897038658     1.250878860466     0.209272932397     1.007825032230
         H           -2.046879038658    -1.275746139534    -0.228496067603     1.007825032230
         H           -1.221184038658    -0.820999139534     1.290580932397     1.007825032230

  Basis Set: AUG-CC-PVTZ
    Blend: AUG-CC-PVTZ
  Basis Set: (AUG-CC-PVTZ AUX)
    Blend: AUG-CC-PVTZ-JKFIT
	 Reference Energy          =    -305.9090808227331308 [Eh]
	 Singles Energy            =      -0.0000000000000000 [Eh]
	 Same-Spin Energy          =      -0.2999448020807455 [Eh]
	 Opposite-Spin Energy      =      -0.9856624774030704 [Eh]
	 Correlation Energy        =      -1.2856072794838160 [Eh]
	 Total Energy              =    -307.1946881022169578 [Eh]

	 ================> DF-SCS-MP2 Energies <==================
	-----------------------------------------------------------
	 SCS Same-Spin Scale       =       0.3333333333333333 [-]
	 SCS Opposite-Spin Scale   =       1.2000000000000000 [-]
	 SCS Same-Spin Energy      =      -0.0999816006935818 [Eh]
	 SCS Opposite-Spin Energy  =      -1.1827949728836844 [Eh]
	 SCS Correlation Energy    =      -1.2827765735772663 [Eh]
	 SCS Total Energy          =    -307.1918573963104109 [Eh]
	-----------------------------------------------------------

  Dipole Moment: [D]
     X:     0.4950      Y:     0.1916      Z:     0.1481     Total:     0.5511

*** Psi4 exiting successfully. Buy a developer a beer!
