                               Psi4 1.3.2 release

  ==> Input File <==

--------------------------------------------------------------------------
#psi4
#
memory 32 gb

molecule  {
0 1
  O       -0.0238256    -1.4038565    -0.2069244
  C        1.1670970    -0.7307880     0.2026760
  C        1.1670830     0.7308060    -0.2026730
  O       -0.0000090     1.3813690     0.3010510
  C       -1.1670960     0.7307910    -0.2026650
  C       -1.1670820    -0.7308090     0.2026660
  H        1.1989120    -0.8085610     1.3002060
  H        2.0246160    -1.2633060    -0.2188690
  H        2.0245970     1.2633380     0.2188660
  H        1.1989010     0.8085710    -1.3002050
  H       -1.1989250     0.8085650    -1.3001950
  H       -2.0246200     1.2632970     0.2188880
  H       -2.0246020    -1.2633280    -0.2188810
  H       -1.1989070    -0.8085810     1.3001960
units angstrom
no_reorient  #important for SAPT in psi4, default
symmetry c1  #important for SAPT in psi4, default
}

set PROPERTIES_ORIGIN ["COM"]
properties('MP2/aug-cc-pvtz', properties = ['dipole'])
--------------------------------------------------------------------------

    Molecular point group: c1
  Charge       = 0
  Multiplicity = 1
  Basis Set: AUG-CC-PVTZ
    Blend: AUG-CC-PVTZ
  Basis Set: (AUG-CC-PVTZ AUX)
    Blend: AUG-CC-PVTZ-JKFIT

    Orbital Energies [Eh]
    ---------------------

    Doubly Occupied:

       1A    -20.561925     2A    -20.559044     3A    -11.280506
       4A    -11.279609     5A    -11.277843     6A    -11.274186
       7A     -1.402431     8A     -1.359976     9A     -1.047943
      10A     -0.951783    11A     -0.893899    12A     -0.795127
      13A     -0.699053    14A     -0.656281    15A     -0.647439
      16A     -0.643259    17A     -0.636096    18A     -0.558724
      19A     -0.553270    20A     -0.520140    21A     -0.508844
      22A     -0.463140    23A     -0.448330    24A     -0.398196

  @DF-RHF Final Energy:  -305.93981549774628

   => Energetics <=

    Nuclear Repulsion Energy =            264.6521156479728916
    One-Electron Energy =                -942.3497753270316935
    Two-Electron Energy =                 371.7578441813125210
    Total Energy =                       -305.9398154977462809
  Basis Set: (AUG-CC-PVTZ AUX)
    Blend: AUG-CC-PVTZ-RI
    Molecular point group: c1

    Geometry (in Angstrom), charge = 0, multiplicity = 1:

       Center              X                  Y                   Z               Mass
    ------------   -----------------  -----------------  -----------------  -----------------
         O           -0.019495945347    -1.399771539668    -0.224023314658    15.994914619570
         C            1.171426654653    -0.726703039668     0.185577085342    12.000000000000
         C            1.171412654653     0.734890960332    -0.219771914658    12.000000000000
         O            0.004320654653     1.385453960332     0.283952085342    15.994914619570
         C           -1.162766345347     0.734875960332    -0.219763914658    12.000000000000
         C           -1.162752345347    -0.726724039668     0.185567085342    12.000000000000
         H            1.203241654653    -0.804476039668     1.283107085342     1.007825032230
         H            2.028945654653    -1.259221039668    -0.235967914658     1.007825032230
         H            2.028926654653     1.267422960332     0.201767085342     1.007825032230
         H            1.203230654653     0.812655960332    -1.317303914658     1.007825032230
         H           -1.194595345347     0.812649960332    -1.317293914658     1.007825032230
         H           -2.020290345347     1.267381960332     0.201789085342     1.007825032230
         H           -2.020272345347    -1.259243039668    -0.235979914658     1.007825032230
         H           -1.194577345347    -0.804496039668     1.283097085342     1.007825032230

  Basis Set: AUG-CC-PVTZ
    Blend: AUG-CC-PVTZ
  Basis Set: (AUG-CC-PVTZ AUX)
    Blend: AUG-CC-PVTZ-JKFIT
	 Reference Energy          =    -305.9398154977462809 [Eh]
	 Singles Energy            =      -0.0000000000000000 [Eh]
	 Same-Spin Energy          =      -0.2979945915059872 [Eh]
	 Opposite-Spin Energy      =      -0.9793177397943862 [Eh]
	 Correlation Energy        =      -1.2773123313003734 [Eh]
	 Total Energy              =    -307.2171278290466603 [Eh]

	 ================> DF-SCS-MP2 Energies <==================
	-----------------------------------------------------------
	 SCS Same-Spin Scale       =       0.3333333333333333 [-]
	 SCS Opposite-Spin Scale   =       1.2000000000000000 [-]
	 SCS Same-Spin Energy      =      -0.0993315305019957 [Eh]
	 SCS Opposite-Spin Energy  =      -1.1751812877532635 [Eh]
	 SCS Correlation Energy    =      -1.2745128182552592 [Eh]
	 SCS Total Energy          =    -307.2143283160015130 [Eh]
	-----------------------------------------------------------

  Dipole Moment: [D]
     X:     0.1201      Y:     0.0456      Z:    -0.2023     Total:     0.2396

*** Psi4 exiting successfully. Buy a developer a beer!
