                               Psi4 1.3.2 release

  ==> Input File <==

--------------------------------------------------------------------------
#psi4
#
memory 32 gb

molecule  {
0 1
  O        0.0000100    -1.3813680    -0.3010540
  C        1.1225052    -0.7375209     0.1749429
  C        1.1670830     0.7308060    -0.2026730
  O       -0.0000090     1.3813690     0.3010510
  C       -1.1670960     0.7307910    -0.2026650
  C       -1.1670820    -0.7308090     0.2026660
  H        1.1989120    -0.8085610     1.3002060
  H        2.0246160    -1.2633060    -0.2188690
  H        2.0245970     1.2633380     0.2188660
  H        1.1989010     0.8085710    -1.3002050
  H       -1.1989250     0.8085650    -1.3001950
  H       -2.0246200     1.2632970     0.2188880
  H       -2.0246020    -1.2633280    -0.2188810
  H       -1.1989070    -0.8085810     1.3001960
units angstrom
no_reorient  #important for SAPT in psi4, default
symmetry c1  #important for SAPT in psi4, default
}

set PROPERTIES_ORIGIN ["COM"]
properties('MP2/aug-cc-pvtz', properties = ['dipole'])
--------------------------------------------------------------------------

    Molecular point group: c1
  Charge       = 0
  Multiplicity = 1
  Basis Set: AUG-CC-PVTZ
    Blend: AUG-CC-PVTZ
  Basis Set: (AUG-CC-PVTZ AUX)
    Blend: AUG-CC-PVTZ-JKFIT

    Orbital Energies [Eh]
    ---------------------

    Doubly Occupied:

       1A    -20.566009     2A    -20.560571     3A    -11.280976
       4A    -11.279417     5A    -11.279169     6A    -11.276667
       7A     -1.408030     8A     -1.361978     9A     -1.046791
      10A     -0.951787    11A     -0.891128    12A     -0.796910
      13A     -0.701510    14A     -0.652684    15A     -0.649272
      16A     -0.642698    17A     -0.635338    18A     -0.561531
      19A     -0.553330    20A     -0.512882    21A     -0.506929
      22A     -0.461641    23A     -0.456663    24A     -0.397341

  @DF-RHF Final Energy:  -305.93844438110301

   => Energetics <=

    Nuclear Repulsion Energy =            265.1059803179301184
    One-Electron Energy =                -943.2263487602846226
    Two-Electron Energy =                 372.1819240612514363
    Total Energy =                       -305.9384443811030110
  Basis Set: (AUG-CC-PVTZ AUX)
    Blend: AUG-CC-PVTZ-RI
    Molecular point group: c1

    Geometry (in Angstrom), charge = 0, multiplicity = 1:

       Center              X                  Y                   Z               Mass
    ------------   -----------------  -----------------  -----------------  -----------------
         O            0.006086945602    -1.380450548379    -0.297274534292    15.994914619570
         C            1.128582145602    -0.736603448379     0.178722365708    12.000000000000
         C            1.173159945602     0.731723451621    -0.198893534292    12.000000000000
         O            0.006067945602     1.382286451621     0.304830465708    15.994914619570
         C           -1.161019054398     0.731708451621    -0.198885534292    12.000000000000
         C           -1.161005054398    -0.729891548379     0.206445465708    12.000000000000
         H            1.204988945602    -0.807643548379     1.303985465708     1.007825032230
         H            2.030692945602    -1.262388548379    -0.215089534292     1.007825032230
         H            2.030673945602     1.264255451621     0.222645465708     1.007825032230
         H            1.204977945602     0.809488451621    -1.296425534292     1.007825032230
         H           -1.192848054398     0.809482451621    -1.296415534292     1.007825032230
         H           -2.018543054398     1.264214451621     0.222667465708     1.007825032230
         H           -2.018525054398    -1.262410548379    -0.215101534292     1.007825032230
         H           -1.192830054398    -0.807663548379     1.303975465708     1.007825032230

  Basis Set: AUG-CC-PVTZ
    Blend: AUG-CC-PVTZ
  Basis Set: (AUG-CC-PVTZ AUX)
    Blend: AUG-CC-PVTZ-JKFIT
	 Reference Energy          =    -305.9384443811030110 [Eh]
	 Singles Energy            =      -0.0000000000000000 [Eh]
	 Same-Spin Energy          =      -0.2983675179058948 [Eh]
	 Opposite-Spin Energy      =      -0.9799829399358887 [Eh]
	 Correlation Energy        =      -1.2783504578417835 [Eh]
	 Total Energy              =    -307.2167948389447929 [Eh]

	 ================> DF-SCS-MP2 Energies <==================
	-----------------------------------------------------------
	 SCS Same-Spin Scale       =       0.3333333333333333 [-]
	 SCS Opposite-Spin Scale   =       1.2000000000000000 [-]
	 SCS Same-Spin Energy      =      -0.0994558393019649 [Eh]
	 SCS Opposite-Spin Energy  =      -1.1759795279230665 [Eh]
	 SCS Correlation Energy    =      -1.2754353672250314 [Eh]
	 SCS Total Energy          =    -307.2138797483280541 [Eh]
	-----------------------------------------------------------

  Dipole Moment: [D]
     X:    -0.1651      Y:    -0.0323      Z:    -0.0715     Total:     0.1828

*** Psi4 exiting successfully. Buy a developer a beer!
