                               Psi4 1.3.2 release

  ==> Input File <==

--------------------------------------------------------------------------
#psi4
#
memory 32 gb

molecule  {
0 1
  O        0.0000100    -1.3813680    -0.3010540
  C        1.0779678    -0.7424649     0.1467497
  C        1.1670830     0.7308060    -0.2026730
  O       -0.0000090     1.3813690     0.3010510
  C       -1.1670960     0.7307910    -0.2026650
  C       -1.1670820    -0.7308090     0.2026660
  H        1.1989120    -0.8085610     1.3002060
  H        2.0246160    -1.2633060    -0.2188690
  H        2.0245970     1.2633380     0.2188660
  H        1.1989010     0.8085710    -1.3002050
  H       -1.1989250     0.8085650    -1.3001950
  H       -2.0246200     1.2632970     0.2188880
  H       -2.0246020    -1.2633280    -0.2188810
  H       -1.1989070    -0.8085810     1.3001960
units angstrom
no_reorient  #important for SAPT in psi4, default
symmetry c1  #important for SAPT in psi4, default
}

set PROPERTIES_ORIGIN ["COM"]
properties('MP2/aug-cc-pvtz', properties = ['dipole'])
--------------------------------------------------------------------------

    Molecular point group: c1
  Charge       = 0
  Multiplicity = 1
  Basis Set: AUG-CC-PVTZ
    Blend: AUG-CC-PVTZ
  Basis Set: (AUG-CC-PVTZ AUX)
    Blend: AUG-CC-PVTZ-JKFIT

    Orbital Energies [Eh]
    ---------------------

    Doubly Occupied:

       1A    -20.570838     2A    -20.559933     3A    -11.284071
       4A    -11.281325     5A    -11.281135     6A    -11.275797
       7A     -1.424929     8A     -1.366944     9A     -1.048141
      10A     -0.952142    11A     -0.894751    12A     -0.795527
      13A     -0.706766    14A     -0.660123    15A     -0.652346
      16A     -0.643827    17A     -0.637083    18A     -0.569388
      19A     -0.552642    20A     -0.513626    21A     -0.505258
      22A     -0.462378    23A     -0.448318    24A     -0.395248

  @DF-RHF Final Energy:  -305.93030873282100

   => Energetics <=

    Nuclear Repulsion Energy =            266.0029200390291635
    One-Electron Energy =                -944.9013880477466500
    Two-Electron Energy =                 372.9681592758964825
    Total Energy =                       -305.9303087328210040
  Basis Set: (AUG-CC-PVTZ AUX)
    Blend: AUG-CC-PVTZ-RI
    Molecular point group: c1

    Geometry (in Angstrom), charge = 0, multiplicity = 1:

       Center              X                  Y                   Z               Mass
    ------------   -----------------  -----------------  -----------------  -----------------
         O            0.012156611176    -1.379776767992    -0.293432296185    15.994914619570
         C            1.090114411176    -0.740873667992     0.154371403815    12.000000000000
         C            1.179229611176     0.732397232008    -0.195051296185    12.000000000000
         O            0.012137611176     1.382960232008     0.308672703815    15.994914619570
         C           -1.154949388824     0.732382232008    -0.195043296185    12.000000000000
         C           -1.154935388824    -0.729217767992     0.210287703815    12.000000000000
         H            1.211058611176    -0.806969767992     1.307827703815     1.007825032230
         H            2.036762611176    -1.261714767992    -0.211247296185     1.007825032230
         H            2.036743611176     1.264929232008     0.226487703815     1.007825032230
         H            1.211047611176     0.810162232008    -1.292583296185     1.007825032230
         H           -1.186778388824     0.810156232008    -1.292573296185     1.007825032230
         H           -2.012473388824     1.264888232008     0.226509703815     1.007825032230
         H           -2.012455388824    -1.261736767992    -0.211259296185     1.007825032230
         H           -1.186760388824    -0.806989767992     1.307817703815     1.007825032230

  Basis Set: AUG-CC-PVTZ
    Blend: AUG-CC-PVTZ
  Basis Set: (AUG-CC-PVTZ AUX)
    Blend: AUG-CC-PVTZ-JKFIT
	 Reference Energy          =    -305.9303087328210040 [Eh]
	 Singles Energy            =      -0.0000000000000000 [Eh]
	 Same-Spin Energy          =      -0.2986639776676634 [Eh]
	 Opposite-Spin Energy      =      -0.9798516756692315 [Eh]
	 Correlation Energy        =      -1.2785156533368949 [Eh]
	 Total Energy              =    -307.2088243861579144 [Eh]

	 ================> DF-SCS-MP2 Energies <==================
	-----------------------------------------------------------
	 SCS Same-Spin Scale       =       0.3333333333333333 [-]
	 SCS Opposite-Spin Scale   =       1.2000000000000000 [-]
	 SCS Same-Spin Energy      =      -0.0995546592225545 [Eh]
	 SCS Opposite-Spin Energy  =      -1.1758220108030777 [Eh]
	 SCS Correlation Energy    =      -1.2753766700256322 [Eh]
	 SCS Total Energy          =    -307.2056854028466546 [Eh]
	-----------------------------------------------------------

  Dipole Moment: [D]
     X:    -0.3509      Y:    -0.0603      Z:    -0.1568     Total:     0.3890

*** Psi4 exiting successfully. Buy a developer a beer!
