                               Psi4 1.4a3.dev225

  ==> Input File <==

--------------------------------------------------------------------------
#psi4
#
memory 32 gb

molecule  {
0 1
  N       -0.4914050     1.0723760    -0.3164170
  N        1.0085960    -0.7184190    -0.0133500
  C       -1.7100270     0.3982770    -0.1243180
  C        0.8049200     0.5981430    -0.1551110
  C        3.4026260    -0.3179870     0.1123840
  C        1.8688800     1.5249980    -0.1805650
  C        3.1641670     1.0570110    -0.0435420
  C       -2.8187550     1.1723340     0.2577460
  C       -1.8866400    -0.9712620    -0.3801370
  C        2.2803750    -1.1431010     0.1169750
  C        4.7931030    -0.8701860     0.2621020
  C       -4.0754850     0.5909990     0.4048790
  C       -3.1483220    -1.5428300    -0.2100850
  C       -4.2492880    -0.7746780     0.1720620
  H       -0.5683120     2.0807040    -0.2404560
  H        1.6730390     2.5885970    -0.3025930
  H        4.0351332     1.7912273    -0.0570603
  H       -2.6877930     2.2355590     0.4578160
  H       -1.0395640    -1.5738120    -0.6782690
  H        2.3962560    -2.2212150     0.2333330
  H        5.4095350    -0.6367030    -0.6119800
  H        5.2936270    -0.4518060     1.1412500
  H        4.7686350    -1.9575490     0.3752240
  H       -4.9184630     1.2095470     0.7042290
  H       -3.2707080    -2.6065070    -0.4021260
  H       -5.2268190    -1.2338160     0.2940590
units angstrom
no_reorient  #important for SAPT in psi4, default
symmetry c1  #important for SAPT in psi4, default
}

set PROPERTIES_ORIGIN ["COM"]
properties('MP2/aug-cc-pvtz', properties = ['dipole'])
--------------------------------------------------------------------------

    Molecular point group: c1
  Charge       = 0
  Multiplicity = 1
  Basis Set: AUG-CC-PVTZ
    Blend: AUG-CC-PVTZ
  Basis Set: (AUG-CC-PVTZ AUX)
    Blend: AUG-CC-PVTZ-JKFIT

    Orbital Energies [Eh]
    ---------------------

    Doubly Occupied:

       1A    -15.589320     2A    -15.553916     3A    -11.323343
       4A    -11.281060     5A    -11.273164     6A    -11.264126
       7A    -11.239299     8A    -11.235813     9A    -11.233817
      10A    -11.230395    11A    -11.228911    12A    -11.228700
      13A    -11.221538    14A    -11.218523    15A     -1.293353
      16A     -1.220330    17A     -1.132909    18A     -1.096068
      19A     -1.046093    20A     -1.008140    21A     -0.992978
      22A     -0.934935    23A     -0.866331    24A     -0.841346
      25A     -0.821320    26A     -0.796251    27A     -0.721140
      28A     -0.715674    29A     -0.670614    30A     -0.653113
      31A     -0.637387    32A     -0.619971    33A     -0.594580
      34A     -0.593632    35A     -0.588433    36A     -0.579476
      37A     -0.569001    38A     -0.557566    39A     -0.546796
      40A     -0.519452    41A     -0.511238    42A     -0.504310
      43A     -0.487440    44A     -0.454276    45A     -0.414310
      46A     -0.381682    47A     -0.336779    48A     -0.330588
      49A     -0.277115

  @DF-RHF Final Energy:  -570.49648196945702

   => Energetics <=

    Nuclear Repulsion Energy =            790.5031819724500792
    One-Electron Energy =               -2341.1262305073660173
    Two-Electron Energy =                 980.1265665654590293
    Total Energy =                       -570.4964819694570224
  Basis Set: (AUG-CC-PVTZ AUX)
    Blend: AUG-CC-PVTZ-RI
    Molecular point group: c1

    Geometry (in Angstrom), charge = 0, multiplicity = 1:

       Center              X                  Y                   Z               Mass
    ------------   -----------------  -----------------  -----------------  -----------------
         N           -0.460222870592     1.067839021773    -0.311482197322    14.003074004430
         N            1.039778129408    -0.722955978227    -0.008415197322    14.003074004430
         C           -1.678844870592     0.393740021773    -0.119383197322    12.000000000000
         C            0.836102129408     0.593606021773    -0.150176197322    12.000000000000
         C            3.433808129408    -0.322523978227     0.117318802678    12.000000000000
         C            1.900062129408     1.520461021773    -0.175630197322    12.000000000000
         C            3.195349129408     1.052474021773    -0.038607197322    12.000000000000
         C           -2.787572870592     1.167797021773     0.262680802678    12.000000000000
         C           -1.855457870592    -0.975798978227    -0.375202197322    12.000000000000
         C            2.311557129408    -1.147637978227     0.121909802678    12.000000000000
         C            4.824285129408    -0.874722978227     0.267036802678    12.000000000000
         C           -4.044302870592     0.586462021773     0.409813802678    12.000000000000
         C           -3.117139870592    -1.547366978227    -0.205150197322    12.000000000000
         C           -4.218105870592    -0.779214978227     0.176996802678    12.000000000000
         H           -0.537129870592     2.076167021773    -0.235521197322     1.007825032230
         H            1.704221129408     2.584060021773    -0.297658197322     1.007825032230
         H            4.066315329408     1.786690321773    -0.052125497322     1.007825032230
         H           -2.656610870592     2.231022021773     0.462750802678     1.007825032230
         H           -1.008381870592    -1.578348978227    -0.673334197322     1.007825032230
         H            2.427438129408    -2.225751978227     0.238267802678     1.007825032230
         H            5.440717129408    -0.641239978227    -0.607045197322     1.007825032230
         H            5.324809129408    -0.456342978227     1.146184802678     1.007825032230
         H            4.799817129408    -1.962085978227     0.380158802678     1.007825032230
         H           -4.887280870592     1.205010021773     0.709163802678     1.007825032230
         H           -3.239525870592    -2.611043978227    -0.397191197322     1.007825032230
         H           -5.195636870592    -1.238352978227     0.298993802678     1.007825032230

  Basis Set: AUG-CC-PVTZ
    Blend: AUG-CC-PVTZ
  Basis Set: (AUG-CC-PVTZ AUX)
    Blend: AUG-CC-PVTZ-JKFIT
	 Reference Energy          =    -570.4964819694570224 [Eh]
	 Singles Energy            =      -0.0000000000000000 [Eh]
	 Same-Spin Energy          =      -0.6365247304009006 [Eh]
	 Opposite-Spin Energy      =      -1.9713020225425550 [Eh]
	 Correlation Energy        =      -2.6078267529434558 [Eh]
	 Total Energy              =    -573.1043087224004466 [Eh]

	 ================> DF-SCS-MP2 Energies <==================
	-----------------------------------------------------------
	 SCS Same-Spin Scale       =       0.3333333333333333 [-]
	 SCS Opposite-Spin Scale   =       1.2000000000000000 [-]
	 SCS Same-Spin Energy      =      -0.2121749101336335 [Eh]
	 SCS Opposite-Spin Energy  =      -2.3655624270510658 [Eh]
	 SCS Correlation Energy    =      -2.5777373371846992 [Eh]
	 SCS Total Energy          =    -573.0742193066416803 [Eh]
	-----------------------------------------------------------

  Dipole Moment: [D]
     X:     1.8485      Y:     1.8402      Z:     0.1635     Total:     2.6135

*** Psi4 exiting successfully. Buy a developer a beer!
