                               Psi4 1.4a3.dev225

  ==> Input File <==

--------------------------------------------------------------------------
#psi4
#
memory 32 gb

molecule  {
0 1
  N       -0.4914050     1.0723760    -0.3164170
  N        1.0085960    -0.7184190    -0.0133500
  C       -1.7100270     0.3982770    -0.1243180
  C        0.8049200     0.5981430    -0.1551110
  C        3.4026260    -0.3179870     0.1123840
  C        1.8688800     1.5249980    -0.1805650
  C        3.1641670     1.0570110    -0.0435420
  C       -2.8187550     1.1723340     0.2577460
  C       -1.8866400    -0.9712620    -0.3801370
  C        2.2803750    -1.1431010     0.1169750
  C        4.7931030    -0.8701860     0.2621020
  C       -4.0754850     0.5909990     0.4048790
  C       -3.1483220    -1.5428300    -0.2100850
  C       -4.2492880    -0.7746780     0.1720620
  H       -0.5698287     2.1005901    -0.2389579
  H        1.6730390     2.5885970    -0.3025930
  H        3.9969070     1.7590030    -0.0564670
  H       -2.6877930     2.2355590     0.4578160
  H       -1.0395640    -1.5738120    -0.6782690
  H        2.3962560    -2.2212150     0.2333330
  H        5.4095350    -0.6367030    -0.6119800
  H        5.2936270    -0.4518060     1.1412500
  H        4.7686350    -1.9575490     0.3752240
  H       -4.9184630     1.2095470     0.7042290
  H       -3.2707080    -2.6065070    -0.4021260
  H       -5.2268190    -1.2338160     0.2940590
units angstrom
no_reorient  #important for SAPT in psi4, default
symmetry c1  #important for SAPT in psi4, default
}

set PROPERTIES_ORIGIN ["COM"]
properties('MP2/aug-cc-pvtz', properties = ['dipole'])
--------------------------------------------------------------------------

    Molecular point group: c1
  Charge       = 0
  Multiplicity = 1
  Basis Set: AUG-CC-PVTZ
    Blend: AUG-CC-PVTZ
  Basis Set: (AUG-CC-PVTZ AUX)
    Blend: AUG-CC-PVTZ-JKFIT

    Orbital Energies [Eh]
    ---------------------

    Doubly Occupied:

       1A    -15.591008     2A    -15.553681     3A    -11.323005
       4A    -11.280986     5A    -11.272739     6A    -11.258378
       7A    -11.238773     8A    -11.235223     9A    -11.233697
      10A    -11.230297    11A    -11.228879    12A    -11.228543
      13A    -11.221397    14A    -11.218417    15A     -1.292073
      16A     -1.219005    17A     -1.132491    18A     -1.096837
      19A     -1.045835    20A     -1.008005    21A     -0.992714
      22A     -0.934304    23A     -0.868364    24A     -0.840902
      25A     -0.821037    26A     -0.797107    27A     -0.722795
      28A     -0.713902    29A     -0.670530    30A     -0.652277
      31A     -0.636955    32A     -0.621171    33A     -0.594978
      34A     -0.593472    35A     -0.588221    36A     -0.579347
      37A     -0.569060    38A     -0.562612    39A     -0.546674
      40A     -0.519123    41A     -0.511032    42A     -0.504120
      43A     -0.487303    44A     -0.453946    45A     -0.414324
      46A     -0.381364    47A     -0.336511    48A     -0.330465
      49A     -0.276758

  @DF-RHF Final Energy:  -570.49777630312803

   => Energetics <=

    Nuclear Repulsion Energy =            790.6404897079263492
    One-Electron Energy =               -2341.4152574279687542
    Two-Electron Energy =                 980.2769914169142567
    Total Energy =                       -570.4977763031280347
  Basis Set: (AUG-CC-PVTZ AUX)
    Blend: AUG-CC-PVTZ-RI
    Molecular point group: c1

    Geometry (in Angstrom), charge = 0, multiplicity = 1:

       Center              X                  Y                   Z               Mass
    ------------   -----------------  -----------------  -----------------  -----------------
         N           -0.460005304710     1.067906565192    -0.311493646343    14.003074004430
         N            1.039995695290    -0.722888434808    -0.008426646343    14.003074004430
         C           -1.678627304710     0.393807565192    -0.119394646343    12.000000000000
         C            0.836319695290     0.593673565192    -0.150187646343    12.000000000000
         C            3.434025695290    -0.322456434808     0.117307353657    12.000000000000
         C            1.900279695290     1.520528565192    -0.175641646343    12.000000000000
         C            3.195566695290     1.052541565192    -0.038618646343    12.000000000000
         C           -2.787355304710     1.167864565192     0.262669353657    12.000000000000
         C           -1.855240304710    -0.975731434808    -0.375213646343    12.000000000000
         C            2.311774695290    -1.147570434808     0.121898353657    12.000000000000
         C            4.824502695290    -0.874655434808     0.267025353657    12.000000000000
         C           -4.044085304710     0.586529565192     0.409802353657    12.000000000000
         C           -3.116922304710    -1.547299434808    -0.205161646343    12.000000000000
         C           -4.217888304710    -0.779147434808     0.176985353657    12.000000000000
         H           -0.538429004710     2.096120665192    -0.234034546343     1.007825032230
         H            1.704438695290     2.584127565192    -0.297669646343     1.007825032230
         H            4.028306695290     1.754533565192    -0.051543646343     1.007825032230
         H           -2.656393304710     2.231089565192     0.462739353657     1.007825032230
         H           -1.008164304710    -1.578281434808    -0.673345646343     1.007825032230
         H            2.427655695290    -2.225684434808     0.238256353657     1.007825032230
         H            5.440934695290    -0.641172434808    -0.607056646343     1.007825032230
         H            5.325026695290    -0.456275434808     1.146173353657     1.007825032230
         H            4.800034695290    -1.962018434808     0.380147353657     1.007825032230
         H           -4.887063304710     1.205077565192     0.709152353657     1.007825032230
         H           -3.239308304710    -2.610976434808    -0.397202646343     1.007825032230
         H           -5.195419304710    -1.238285434808     0.298982353657     1.007825032230

  Basis Set: AUG-CC-PVTZ
    Blend: AUG-CC-PVTZ
  Basis Set: (AUG-CC-PVTZ AUX)
    Blend: AUG-CC-PVTZ-JKFIT
	 Reference Energy          =    -570.4977763031280347 [Eh]
	 Singles Energy            =      -0.0000000000000000 [Eh]
	 Same-Spin Energy          =      -0.6365945251301377 [Eh]
	 Opposite-Spin Energy      =      -1.9713151100606856 [Eh]
	 Correlation Energy        =      -2.6079096351908233 [Eh]
	 Total Energy              =    -573.1056859383188566 [Eh]

	 ================> DF-SCS-MP2 Energies <==================
	-----------------------------------------------------------
	 SCS Same-Spin Scale       =       0.3333333333333333 [-]
	 SCS Opposite-Spin Scale   =       1.2000000000000000 [-]
	 SCS Same-Spin Energy      =      -0.2121981750433792 [Eh]
	 SCS Opposite-Spin Energy  =      -2.3655781320728226 [Eh]
	 SCS Correlation Energy    =      -2.5777763071162019 [Eh]
	 SCS Total Energy          =    -573.0755526102442445 [Eh]
	-----------------------------------------------------------

  Dipole Moment: [D]
     X:     1.8655      Y:     1.8670      Z:     0.1632     Total:     2.6443

*** Psi4 exiting successfully. Buy a developer a beer!
