                               Psi4 1.4a3.dev225

  ==> Input File <==

--------------------------------------------------------------------------
#psi4
#
memory 32 gb

molecule  {
0 1
  N       -0.4914050     1.0723760    -0.3164170
  N        1.0085960    -0.7184190    -0.0133500
  C       -1.7100270     0.3982770    -0.1243180
  C        0.7582809     0.6152049    -0.1609145
  C        3.4026260    -0.3179870     0.1123840
  C        1.8688800     1.5249980    -0.1805650
  C        3.1641670     1.0570110    -0.0435420
  C       -2.8187550     1.1723340     0.2577460
  C       -1.8866400    -0.9712620    -0.3801370
  C        2.2803750    -1.1431010     0.1169750
  C        4.7931030    -0.8701860     0.2621020
  C       -4.0754850     0.5909990     0.4048790
  C       -3.1483220    -1.5428300    -0.2100850
  C       -4.2492880    -0.7746780     0.1720620
  H       -0.5683120     2.0807040    -0.2404560
  H        1.6730390     2.5885970    -0.3025930
  H        3.9969070     1.7590030    -0.0564670
  H       -2.6877930     2.2355590     0.4578160
  H       -1.0395640    -1.5738120    -0.6782690
  H        2.3962560    -2.2212150     0.2333330
  H        5.4095350    -0.6367030    -0.6119800
  H        5.2936270    -0.4518060     1.1412500
  H        4.7686350    -1.9575490     0.3752240
  H       -4.9184630     1.2095470     0.7042290
  H       -3.2707080    -2.6065070    -0.4021260
  H       -5.2268190    -1.2338160     0.2940590
units angstrom
no_reorient  #important for SAPT in psi4, default
symmetry c1  #important for SAPT in psi4, default
}

set PROPERTIES_ORIGIN ["COM"]
properties('MP2/aug-cc-pvtz', properties = ['dipole'])
--------------------------------------------------------------------------

    Molecular point group: c1
  Charge       = 0
  Multiplicity = 1
  Basis Set: AUG-CC-PVTZ
    Blend: AUG-CC-PVTZ
  Basis Set: (AUG-CC-PVTZ AUX)
    Blend: AUG-CC-PVTZ-JKFIT

    Orbital Energies [Eh]
    ---------------------

    Doubly Occupied:

       1A    -15.596379     2A    -15.549592     3A    -11.324808
       4A    -11.284652     5A    -11.269595     6A    -11.255253
       7A    -11.237285     8A    -11.236709     9A    -11.233066
      10A    -11.232919    11A    -11.230101    12A    -11.225788
      13A    -11.225261    14A    -11.222204    15A     -1.302268
      16A     -1.217172    17A     -1.138124    18A     -1.090528
      19A     -1.042728    20A     -1.011395    21A     -0.997019
      22A     -0.932186    23A     -0.865309    24A     -0.845919
      25A     -0.822697    26A     -0.797558    27A     -0.730521
      28A     -0.720332    29A     -0.672709    30A     -0.648764
      31A     -0.635956    32A     -0.621395    33A     -0.600220
      34A     -0.595031    35A     -0.589649    36A     -0.582115
      37A     -0.571286    38A     -0.560340    39A     -0.542918
      40A     -0.517687    41A     -0.509868    42A     -0.505501
      43A     -0.490330    44A     -0.458234    45A     -0.405263
      46A     -0.377184    47A     -0.336830    48A     -0.332411
      49A     -0.275355

  @DF-RHF Final Energy:  -570.49464288371121

   => Energetics <=

    Nuclear Repulsion Energy =            790.7403335477032442
    One-Electron Energy =               -2341.5371241874149746
    Two-Electron Energy =                 980.3021477560004087
    Total Energy =                       -570.4946428837112080
  Basis Set: (AUG-CC-PVTZ AUX)
    Blend: AUG-CC-PVTZ-RI
    Molecular point group: c1

    Geometry (in Angstrom), charge = 0, multiplicity = 1:

       Center              X                  Y                   Z               Mass
    ------------   -----------------  -----------------  -----------------  -----------------
         N           -0.456973580185     1.066903300434    -0.311107161802    14.003074004430
         N            1.043027419815    -0.723891699566    -0.008040161802    14.003074004430
         C           -1.675595580185     0.392804300434    -0.119008161802    12.000000000000
         C            0.792712319815     0.609732200434    -0.155604661802    12.000000000000
         C            3.437057419815    -0.323459699566     0.117693838198    12.000000000000
         C            1.903311419815     1.519525300434    -0.175255161802    12.000000000000
         C            3.198598419815     1.051538300434    -0.038232161802    12.000000000000
         C           -2.784323580185     1.166861300434     0.263055838198    12.000000000000
         C           -1.852208580185    -0.976734699566    -0.374827161802    12.000000000000
         C            2.314806419815    -1.148573699566     0.122284838198    12.000000000000
         C            4.827534419815    -0.875658699566     0.267411838198    12.000000000000
         C           -4.041053580185     0.585526300434     0.410188838198    12.000000000000
         C           -3.113890580185    -1.548302699566    -0.204775161802    12.000000000000
         C           -4.214856580185    -0.780150699566     0.177371838198    12.000000000000
         H           -0.533880580185     2.075231300434    -0.235146161802     1.007825032230
         H            1.707470419815     2.583124300434    -0.297283161802     1.007825032230
         H            4.031338419815     1.753530300434    -0.051157161802     1.007825032230
         H           -2.653361580185     2.230086300434     0.463125838198     1.007825032230
         H           -1.005132580185    -1.579284699566    -0.672959161802     1.007825032230
         H            2.430687419815    -2.226687699566     0.238642838198     1.007825032230
         H            5.443966419815    -0.642175699566    -0.606670161802     1.007825032230
         H            5.328058419815    -0.457278699566     1.146559838198     1.007825032230
         H            4.803066419815    -1.963021699566     0.380533838198     1.007825032230
         H           -4.884031580185     1.204074300434     0.709538838198     1.007825032230
         H           -3.236276580185    -2.611979699566    -0.396816161802     1.007825032230
         H           -5.192387580185    -1.239288699566     0.299368838198     1.007825032230

  Basis Set: AUG-CC-PVTZ
    Blend: AUG-CC-PVTZ
  Basis Set: (AUG-CC-PVTZ AUX)
    Blend: AUG-CC-PVTZ-JKFIT
	 Reference Energy          =    -570.4946428837112080 [Eh]
	 Singles Energy            =      -0.0000000000000000 [Eh]
	 Same-Spin Energy          =      -0.6367640554311313 [Eh]
	 Opposite-Spin Energy      =      -1.9714298506759480 [Eh]
	 Correlation Energy        =      -2.6081939061070791 [Eh]
	 Total Energy              =    -573.1028367898182978 [Eh]

	 ================> DF-SCS-MP2 Energies <==================
	-----------------------------------------------------------
	 SCS Same-Spin Scale       =       0.3333333333333333 [-]
	 SCS Opposite-Spin Scale   =       1.2000000000000000 [-]
	 SCS Same-Spin Energy      =      -0.2122546851437104 [Eh]
	 SCS Opposite-Spin Energy  =      -2.3657158208111375 [Eh]
	 SCS Correlation Energy    =      -2.5779705059548479 [Eh]
	 SCS Total Energy          =    -573.0726133896660031 [Eh]
	-----------------------------------------------------------

  Dipole Moment: [D]
     X:     1.2608      Y:     1.9151      Z:     0.1259     Total:     2.2963

*** Psi4 exiting successfully. Buy a developer a beer!
