                               Psi4 1.4a3.dev225

  ==> Input File <==

--------------------------------------------------------------------------
#psi4
#
memory 32 gb

molecule  {
0 1
  N       -0.4914050     1.0723760    -0.3164170
  N        1.0085960    -0.7184190    -0.0133500
  C       -1.7100270     0.3982770    -0.1243180
  C        0.8049200     0.5981430    -0.1551110
  C        3.3896622    -0.4079034    -0.0161321
  C        1.8688800     1.5249980    -0.1805650
  C        3.1641670     1.0570110    -0.0435420
  C       -2.8187550     1.1723340     0.2577460
  C       -1.8866400    -0.9712620    -0.3801370
  C        2.2803750    -1.1431010     0.1169750
  C        4.7931030    -0.8701860     0.2621020
  C       -4.0754850     0.5909990     0.4048790
  C       -3.1483220    -1.5428300    -0.2100850
  C       -4.2492880    -0.7746780     0.1720620
  H       -0.5683120     2.0807040    -0.2404560
  H        1.6730390     2.5885970    -0.3025930
  H        3.9969070     1.7590030    -0.0564670
  H       -2.6877930     2.2355590     0.4578160
  H       -1.0395640    -1.5738120    -0.6782690
  H        2.3962560    -2.2212150     0.2333330
  H        5.4095350    -0.6367030    -0.6119800
  H        5.2936270    -0.4518060     1.1412500
  H        4.7686350    -1.9575490     0.3752240
  H       -4.9184630     1.2095470     0.7042290
  H       -3.2707080    -2.6065070    -0.4021260
  H       -5.2268190    -1.2338160     0.2940590
units angstrom
no_reorient  #important for SAPT in psi4, default
symmetry c1  #important for SAPT in psi4, default
}

set PROPERTIES_ORIGIN ["COM"]
properties('MP2/aug-cc-pvtz', properties = ['dipole'])
--------------------------------------------------------------------------

    Molecular point group: c1
  Charge       = 0
  Multiplicity = 1
  Basis Set: AUG-CC-PVTZ
    Blend: AUG-CC-PVTZ
  Basis Set: (AUG-CC-PVTZ AUX)
    Blend: AUG-CC-PVTZ-JKFIT

    Orbital Energies [Eh]
    ---------------------

    Doubly Occupied:

       1A    -15.591905     2A    -15.548712     3A    -11.325916
       4A    -11.281715     5A    -11.267702     6A    -11.262097
       7A    -11.241812     8A    -11.234442     9A    -11.234371
      10A    -11.230795    11A    -11.229716    12A    -11.228258
      13A    -11.222414    14A    -11.219260    15A     -1.293715
      16A     -1.220178    17A     -1.133802    18A     -1.089043
      19A     -1.050471    20A     -1.008749    21A     -0.994186
      22A     -0.936800    23A     -0.868504    24A     -0.840520
      25A     -0.818616    26A     -0.800082    27A     -0.723966
      28A     -0.715359    29A     -0.669953    30A     -0.653666
      31A     -0.636114    32A     -0.621710    33A     -0.595998
      34A     -0.595350    35A     -0.587820    36A     -0.579889
      37A     -0.574749    38A     -0.561973    39A     -0.549669
      40A     -0.516191    41A     -0.505397    42A     -0.494038
      43A     -0.486538    44A     -0.454489    45A     -0.415103
      46A     -0.376406    47A     -0.339754    48A     -0.331187
      49A     -0.280855

  @DF-RHF Final Energy:  -570.48652941143791

   => Energetics <=

    Nuclear Repulsion Energy =            790.5686536359795582
    One-Electron Energy =               -2341.2304594920756244
    Two-Electron Energy =                 980.1752764446582660
    Total Energy =                       -570.4865294114379140
  Basis Set: (AUG-CC-PVTZ AUX)
    Blend: AUG-CC-PVTZ-RI
    Molecular point group: c1

    Geometry (in Angstrom), charge = 0, multiplicity = 1:

       Center              X                  Y                   Z               Mass
    ------------   -----------------  -----------------  -----------------  -----------------
         N           -0.459168601878     1.073876354549    -0.303108515344    14.003074004430
         N            1.040832398122    -0.716918645451    -0.000041515344    14.003074004430
         C           -1.677790601878     0.399777354549    -0.111009515344    12.000000000000
         C            0.837156398122     0.599643354549    -0.141802515344    12.000000000000
         C            3.421898598122    -0.406403045451    -0.002823615344    12.000000000000
         C            1.901116398122     1.526498354549    -0.167256515344    12.000000000000
         C            3.196403398122     1.058511354549    -0.030233515344    12.000000000000
         C           -2.786518601878     1.173834354549     0.271054484656    12.000000000000
         C           -1.854403601878    -0.969761645451    -0.366828515344    12.000000000000
         C            2.312611398122    -1.141600645451     0.130283484656    12.000000000000
         C            4.825339398122    -0.868685645451     0.275410484656    12.000000000000
         C           -4.043248601878     0.592499354549     0.418187484656    12.000000000000
         C           -3.116085601878    -1.541329645451    -0.196776515344    12.000000000000
         C           -4.217051601878    -0.773177645451     0.185370484656    12.000000000000
         H           -0.536075601878     2.082204354549    -0.227147515344     1.007825032230
         H            1.705275398122     2.590097354549    -0.289284515344     1.007825032230
         H            4.029143398122     1.760503354549    -0.043158515344     1.007825032230
         H           -2.655556601878     2.237059354549     0.471124484656     1.007825032230
         H           -1.007327601878    -1.572311645451    -0.664960515344     1.007825032230
         H            2.428492398122    -2.219714645451     0.246641484656     1.007825032230
         H            5.441771398122    -0.635202645451    -0.598671515344     1.007825032230
         H            5.325863398122    -0.450305645451     1.154558484656     1.007825032230
         H            4.800871398122    -1.956048645451     0.388532484656     1.007825032230
         H           -4.886226601878     1.211047354549     0.717537484656     1.007825032230
         H           -3.238471601878    -2.605006645451    -0.388817515344     1.007825032230
         H           -5.194582601878    -1.232315645451     0.307367484656     1.007825032230

  Basis Set: AUG-CC-PVTZ
    Blend: AUG-CC-PVTZ
  Basis Set: (AUG-CC-PVTZ AUX)
    Blend: AUG-CC-PVTZ-JKFIT
	 Reference Energy          =    -570.4865294114379140 [Eh]
	 Singles Energy            =      -0.0000000000000000 [Eh]
	 Same-Spin Energy          =      -0.6357104847922181 [Eh]
	 Opposite-Spin Energy      =      -1.9711357669999106 [Eh]
	 Correlation Energy        =      -2.6068462517921285 [Eh]
	 Total Energy              =    -573.0933756632300629 [Eh]

	 ================> DF-SCS-MP2 Energies <==================
	-----------------------------------------------------------
	 SCS Same-Spin Scale       =       0.3333333333333333 [-]
	 SCS Opposite-Spin Scale   =       1.2000000000000000 [-]
	 SCS Same-Spin Energy      =      -0.2119034949307394 [Eh]
	 SCS Opposite-Spin Energy  =      -2.3653629203998925 [Eh]
	 SCS Correlation Energy    =      -2.5772664153306319 [Eh]
	 SCS Total Energy          =    -573.0637958267685690 [Eh]
	-----------------------------------------------------------

  Dipole Moment: [D]
     X:     1.6987      Y:     1.9854      Z:     0.1928     Total:     2.6201

*** Psi4 exiting successfully. Buy a developer a beer!
