                               Psi4 1.4a3.dev225

  ==> Input File <==

--------------------------------------------------------------------------
#psi4
#
memory 32 gb

molecule  {
0 1
  N       -0.4914050     1.0723760    -0.3164170
  N        1.0085960    -0.7184190    -0.0133500
  C       -1.7100270     0.3982770    -0.1243180
  C        0.6183634     0.6663908    -0.1783249
  C        3.4026260    -0.3179870     0.1123840
  C        1.8688800     1.5249980    -0.1805650
  C        3.1641670     1.0570110    -0.0435420
  C       -2.8187550     1.1723340     0.2577460
  C       -1.8866400    -0.9712620    -0.3801370
  C        2.2803750    -1.1431010     0.1169750
  C        4.7931030    -0.8701860     0.2621020
  C       -4.0754850     0.5909990     0.4048790
  C       -3.1483220    -1.5428300    -0.2100850
  C       -4.2492880    -0.7746780     0.1720620
  H       -0.5683120     2.0807040    -0.2404560
  H        1.6730390     2.5885970    -0.3025930
  H        3.9969070     1.7590030    -0.0564670
  H       -2.6877930     2.2355590     0.4578160
  H       -1.0395640    -1.5738120    -0.6782690
  H        2.3962560    -2.2212150     0.2333330
  H        5.4095350    -0.6367030    -0.6119800
  H        5.2936270    -0.4518060     1.1412500
  H        4.7686350    -1.9575490     0.3752240
  H       -4.9184630     1.2095470     0.7042290
  H       -3.2707080    -2.6065070    -0.4021260
  H       -5.2268190    -1.2338160     0.2940590
units angstrom
no_reorient  #important for SAPT in psi4, default
symmetry c1  #important for SAPT in psi4, default
}

set PROPERTIES_ORIGIN ["COM"]
properties('MP2/aug-cc-pvtz', properties = ['dipole'])
--------------------------------------------------------------------------

    Molecular point group: c1
  Charge       = 0
  Multiplicity = 1
  Basis Set: AUG-CC-PVTZ
    Blend: AUG-CC-PVTZ
  Basis Set: (AUG-CC-PVTZ AUX)
    Blend: AUG-CC-PVTZ-JKFIT

    Orbital Energies [Eh]
    ---------------------

    Doubly Occupied:

       1A    -15.619693     2A    -15.535039     3A    -11.329634
       4A    -11.296963     5A    -11.259849     6A    -11.248410
       7A    -11.246540     8A    -11.245358     9A    -11.242647
      10A    -11.238566    11A    -11.235527    12A    -11.231779
      13A    -11.214725    14A    -11.210719    15A     -1.364341
      16A     -1.192738    17A     -1.155307    18A     -1.070924
      19A     -1.045543    20A     -1.022860    21A     -0.998394
      22A     -0.924763    23A     -0.869979    24A     -0.861903
      25A     -0.822327    26A     -0.797143    27A     -0.747653
      28A     -0.738135    29A     -0.683797    30A     -0.640669
      31A     -0.631762    32A     -0.630466    33A     -0.614837
      34A     -0.604285    35A     -0.593128    36A     -0.585123
      37A     -0.565685    38A     -0.548702    39A     -0.529686
      40A     -0.523203    41A     -0.506983    42A     -0.503053
      43A     -0.497096    44A     -0.462817    45A     -0.373805
      46A     -0.364829    47A     -0.345549    48A     -0.339619
      49A     -0.262316

  @DF-RHF Final Energy:  -570.43144442938114

   => Energetics <=

    Nuclear Repulsion Energy =            791.0670892523048678
    One-Electron Energy =               -2341.8473284174165201
    Two-Electron Energy =                 980.3487947357305075
    Total Energy =                       -570.4314444293811448
  Basis Set: (AUG-CC-PVTZ AUX)
    Blend: AUG-CC-PVTZ-RI
    Molecular point group: c1

    Geometry (in Angstrom), charge = 0, multiplicity = 1:

       Center              X                  Y                   Z               Mass
    ------------   -----------------  -----------------  -----------------  -----------------
         N           -0.447853484809     1.063566903701    -0.309972317994    14.003074004430
         N            1.052147515191    -0.727228096299    -0.006905317994    14.003074004430
         C           -1.666475484809     0.389467903701    -0.117873317994    12.000000000000
         C            0.661914915191     0.657581703701    -0.171880217994    12.000000000000
         C            3.446177515191    -0.326796096299     0.118828682006    12.000000000000
         C            1.912431515191     1.516188903701    -0.174120317994    12.000000000000
         C            3.207718515191     1.048201903701    -0.037097317994    12.000000000000
         C           -2.775203484809     1.163524903701     0.264190682006    12.000000000000
         C           -1.843088484809    -0.980071096299    -0.373692317994    12.000000000000
         C            2.323926515191    -1.151910096299     0.123419682006    12.000000000000
         C            4.836654515191    -0.878995096299     0.268546682006    12.000000000000
         C           -4.031933484809     0.582189903701     0.411323682006    12.000000000000
         C           -3.104770484809    -1.551639096299    -0.203640317994    12.000000000000
         C           -4.205736484809    -0.783487096299     0.178506682006    12.000000000000
         H           -0.524760484809     2.071894903701    -0.234011317994     1.007825032230
         H            1.716590515191     2.579787903701    -0.296148317994     1.007825032230
         H            4.040458515191     1.750193903701    -0.050022317994     1.007825032230
         H           -2.644241484809     2.226749903701     0.464260682006     1.007825032230
         H           -0.996012484809    -1.582621096299    -0.671824317994     1.007825032230
         H            2.439807515191    -2.230024096299     0.239777682006     1.007825032230
         H            5.453086515191    -0.645512096299    -0.605535317994     1.007825032230
         H            5.337178515191    -0.460615096299     1.147694682006     1.007825032230
         H            4.812186515191    -1.966358096299     0.381668682006     1.007825032230
         H           -4.874911484809     1.200737903701     0.710673682006     1.007825032230
         H           -3.227156484809    -2.615316096299    -0.395681317994     1.007825032230
         H           -5.183267484809    -1.242625096299     0.300503682006     1.007825032230

  Basis Set: AUG-CC-PVTZ
    Blend: AUG-CC-PVTZ
  Basis Set: (AUG-CC-PVTZ AUX)
    Blend: AUG-CC-PVTZ-JKFIT
	 Reference Energy          =    -570.4314444293811448 [Eh]
	 Singles Energy            =      -0.0000000000000000 [Eh]
	 Same-Spin Energy          =      -0.6380898136195187 [Eh]
	 Opposite-Spin Energy      =      -1.9742551581066241 [Eh]
	 Correlation Energy        =      -2.6123449717261429 [Eh]
	 Total Energy              =    -573.0437894011072331 [Eh]

	 ================> DF-SCS-MP2 Energies <==================
	-----------------------------------------------------------
	 SCS Same-Spin Scale       =       0.3333333333333333 [-]
	 SCS Opposite-Spin Scale   =       1.2000000000000000 [-]
	 SCS Same-Spin Energy      =      -0.2126966045398395 [Eh]
	 SCS Opposite-Spin Energy  =      -2.3691061897279488 [Eh]
	 SCS Correlation Energy    =      -2.5818027942677886 [Eh]
	 SCS Total Energy          =    -573.0132472236489320 [Eh]
	-----------------------------------------------------------

  Dipole Moment: [D]
     X:    -0.7152      Y:     2.1088      Z:     0.0059     Total:     2.2268

*** Psi4 exiting successfully. Buy a developer a beer!
