                               Psi4 1.4a3.dev225

  ==> Input File <==

--------------------------------------------------------------------------
#psi4
#
memory 32 gb

molecule  {
0 1
  N       -0.4704742     1.0294926    -0.3278536
  N        1.0085960    -0.7184190    -0.0133500
  C       -1.7100270     0.3982770    -0.1243180
  C        0.8049200     0.5981430    -0.1551110
  C        3.4026260    -0.3179870     0.1123840
  C        1.8688800     1.5249980    -0.1805650
  C        3.1641670     1.0570110    -0.0435420
  C       -2.8187550     1.1723340     0.2577460
  C       -1.8866400    -0.9712620    -0.3801370
  C        2.2803750    -1.1431010     0.1169750
  C        4.7931030    -0.8701860     0.2621020
  C       -4.0754850     0.5909990     0.4048790
  C       -3.1483220    -1.5428300    -0.2100850
  C       -4.2492880    -0.7746780     0.1720620
  H       -0.5683120     2.0807040    -0.2404560
  H        1.6730390     2.5885970    -0.3025930
  H        3.9969070     1.7590030    -0.0564670
  H       -2.6877930     2.2355590     0.4578160
  H       -1.0395640    -1.5738120    -0.6782690
  H        2.3962560    -2.2212150     0.2333330
  H        5.4095350    -0.6367030    -0.6119800
  H        5.2936270    -0.4518060     1.1412500
  H        4.7686350    -1.9575490     0.3752240
  H       -4.9184630     1.2095470     0.7042290
  H       -3.2707080    -2.6065070    -0.4021260
  H       -5.2268190    -1.2338160     0.2940590
units angstrom
no_reorient  #important for SAPT in psi4, default
symmetry c1  #important for SAPT in psi4, default
}

set PROPERTIES_ORIGIN ["COM"]
properties('MP2/aug-cc-pvtz', properties = ['dipole'])
--------------------------------------------------------------------------

    Molecular point group: c1
  Charge       = 0
  Multiplicity = 1
  Basis Set: AUG-CC-PVTZ
    Blend: AUG-CC-PVTZ
  Basis Set: (AUG-CC-PVTZ AUX)
    Blend: AUG-CC-PVTZ-JKFIT

    Orbital Energies [Eh]
    ---------------------

    Doubly Occupied:

       1A    -15.593278     2A    -15.550142     3A    -11.320429
       4A    -11.282712     5A    -11.271281     6A    -11.257510
       7A    -11.237115     8A    -11.235349     9A    -11.232706
      10A    -11.231330    11A    -11.230991    12A    -11.227509
      13A    -11.223059    14A    -11.218979    15A     -1.298227
      16A     -1.218207    17A     -1.134856    18A     -1.095252
      19A     -1.045658    20A     -1.009406    21A     -0.994783
      22A     -0.932490    23A     -0.868636    24A     -0.843090
      25A     -0.822749    26A     -0.795425    27A     -0.727203
      28A     -0.712201    29A     -0.671671    30A     -0.648379
      31A     -0.636450    32A     -0.621257    33A     -0.596963
      34A     -0.593245    35A     -0.589022    36A     -0.579733
      37A     -0.570072    38A     -0.561493    39A     -0.544912
      40A     -0.518089    41A     -0.510836    42A     -0.505058
      43A     -0.487946    44A     -0.455461    45A     -0.413286
      46A     -0.380283    47A     -0.336900    48A     -0.331447
      49A     -0.275937

  @DF-RHF Final Energy:  -570.49454859159084

   => Energetics <=

    Nuclear Repulsion Energy =            791.4134654973713623
    One-Electron Energy =               -2342.9380050345666859
    Two-Electron Energy =                 981.0299909456044816
    Total Energy =                       -570.4945485915908421
  Basis Set: (AUG-CC-PVTZ AUX)
    Blend: AUG-CC-PVTZ-RI
    Molecular point group: c1

    Geometry (in Angstrom), charge = 0, multiplicity = 1:

       Center              X                  Y                   Z               Mass
    ------------   -----------------  -----------------  -----------------  -----------------
         N           -0.440674852522     1.028393838577    -0.322052151088    14.003074004430
         N            1.038395347478    -0.719517761423    -0.007548551088    14.003074004430
         C           -1.680227652522     0.397178238577    -0.118516551088    12.000000000000
         C            0.834719347478     0.597044238577    -0.149309551088    12.000000000000
         C            3.432425347478    -0.319085761423     0.118185448912    12.000000000000
         C            1.898679347478     1.523899238577    -0.174763551088    12.000000000000
         C            3.193966347478     1.055912238577    -0.037740551088    12.000000000000
         C           -2.788955652522     1.171235238577     0.263547448912    12.000000000000
         C           -1.856840652522    -0.972360761423    -0.374335551088    12.000000000000
         C            2.310174347478    -1.144199761423     0.122776448912    12.000000000000
         C            4.822902347478    -0.871284761423     0.267903448912    12.000000000000
         C           -4.045685652522     0.589900238577     0.410680448912    12.000000000000
         C           -3.118522652522    -1.543928761423    -0.204283551088    12.000000000000
         C           -4.219488652522    -0.775776761423     0.177863448912    12.000000000000
         H           -0.538512652522     2.079605238577    -0.234654551088     1.007825032230
         H            1.702838347478     2.587498238577    -0.296791551088     1.007825032230
         H            4.026706347478     1.757904238577    -0.050665551088     1.007825032230
         H           -2.657993652522     2.234460238577     0.463617448912     1.007825032230
         H           -1.009764652522    -1.574910761423    -0.672467551088     1.007825032230
         H            2.426055347478    -2.222313761423     0.239134448912     1.007825032230
         H            5.439334347478    -0.637801761423    -0.606178551088     1.007825032230
         H            5.323426347478    -0.452904761423     1.147051448912     1.007825032230
         H            4.798434347478    -1.958647761423     0.381025448912     1.007825032230
         H           -4.888663652522     1.208448238577     0.710030448912     1.007825032230
         H           -3.240908652522    -2.607605761423    -0.396324551088     1.007825032230
         H           -5.197019652522    -1.234914761423     0.299860448912     1.007825032230

  Basis Set: AUG-CC-PVTZ
    Blend: AUG-CC-PVTZ
  Basis Set: (AUG-CC-PVTZ AUX)
    Blend: AUG-CC-PVTZ-JKFIT
	 Reference Energy          =    -570.4945485915908421 [Eh]
	 Singles Energy            =      -0.0000000000000000 [Eh]
	 Same-Spin Energy          =      -0.6368860787501966 [Eh]
	 Opposite-Spin Energy      =      -1.9716987983830194 [Eh]
	 Correlation Energy        =      -2.6085848771332163 [Eh]
	 Total Energy              =    -573.1031334687240815 [Eh]

	 ================> DF-SCS-MP2 Energies <==================
	-----------------------------------------------------------
	 SCS Same-Spin Scale       =       0.3333333333333333 [-]
	 SCS Opposite-Spin Scale   =       1.2000000000000000 [-]
	 SCS Same-Spin Energy      =      -0.2122953595833989 [Eh]
	 SCS Opposite-Spin Energy  =      -2.3660385580596230 [Eh]
	 SCS Correlation Energy    =      -2.5783339176430218 [Eh]
	 SCS Total Energy          =    -573.0728825092338639 [Eh]
	-----------------------------------------------------------

  Dipole Moment: [D]
     X:     1.6143      Y:     1.8845      Z:     0.1656     Total:     2.4869

*** Psi4 exiting successfully. Buy a developer a beer!
