                               Psi4 1.4a3.dev225

  ==> Input File <==

--------------------------------------------------------------------------
#psi4
#
memory 32 gb

molecule  {
0 1
  N       -0.4914050     1.0723760    -0.3164170
  N        1.0085960    -0.7184190    -0.0133500
  C       -1.7220711     0.4186711    -0.1307239
  C        0.8049200     0.5981430    -0.1551110
  C        3.4026260    -0.3179870     0.1123840
  C        1.8688800     1.5249980    -0.1805650
  C        3.1641670     1.0570110    -0.0435420
  C       -2.8187550     1.1723340     0.2577460
  C       -1.8866400    -0.9712620    -0.3801370
  C        2.2803750    -1.1431010     0.1169750
  C        4.7931030    -0.8701860     0.2621020
  C       -4.0754850     0.5909990     0.4048790
  C       -3.1483220    -1.5428300    -0.2100850
  C       -4.2492880    -0.7746780     0.1720620
  H       -0.5683120     2.0807040    -0.2404560
  H        1.6730390     2.5885970    -0.3025930
  H        3.9969070     1.7590030    -0.0564670
  H       -2.6877930     2.2355590     0.4578160
  H       -1.0395640    -1.5738120    -0.6782690
  H        2.3962560    -2.2212150     0.2333330
  H        5.4095350    -0.6367030    -0.6119800
  H        5.2936270    -0.4518060     1.1412500
  H        4.7686350    -1.9575490     0.3752240
  H       -4.9184630     1.2095470     0.7042290
  H       -3.2707080    -2.6065070    -0.4021260
  H       -5.2268190    -1.2338160     0.2940590
units angstrom
no_reorient  #important for SAPT in psi4, default
symmetry c1  #important for SAPT in psi4, default
}

set PROPERTIES_ORIGIN ["COM"]
properties('MP2/aug-cc-pvtz', properties = ['dipole'])
--------------------------------------------------------------------------

    Molecular point group: c1
  Charge       = 0
  Multiplicity = 1
  Basis Set: AUG-CC-PVTZ
    Blend: AUG-CC-PVTZ
  Basis Set: (AUG-CC-PVTZ AUX)
    Blend: AUG-CC-PVTZ-JKFIT

    Orbital Energies [Eh]
    ---------------------

    Doubly Occupied:

       1A    -15.588915     2A    -15.553794     3A    -11.323578
       4A    -11.280860     5A    -11.272814     6A    -11.258524
       7A    -11.239012     8A    -11.235367     9A    -11.233783
      10A    -11.229908    11A    -11.228965    12A    -11.226637
      13A    -11.221514    14A    -11.220399    15A     -1.292970
      16A     -1.220368    17A     -1.133052    18A     -1.097020
      19A     -1.046320    20A     -1.008287    21A     -0.992865
      22A     -0.934975    23A     -0.868491    24A     -0.841818
      25A     -0.820242    26A     -0.798591    27A     -0.724576
      28A     -0.714729    29A     -0.670584    30A     -0.653293
      31A     -0.637153    32A     -0.621569    33A     -0.595476
      34A     -0.592833    35A     -0.588880    36A     -0.580020
      37A     -0.569228    38A     -0.562633    39A     -0.546810
      40A     -0.519279    41A     -0.511320    42A     -0.504286
      43A     -0.486990    44A     -0.454127    45A     -0.414602
      46A     -0.381484    47A     -0.338212    48A     -0.329091
      49A     -0.276891

  @DF-RHF Final Energy:  -570.49843714402755

   => Energetics <=

    Nuclear Repulsion Energy =            790.6693232201952242
    One-Electron Energy =               -2341.4492459163075182
    Two-Electron Energy =                 980.2814855520848596
    Total Energy =                       -570.4984371440275481
  Basis Set: (AUG-CC-PVTZ AUX)
    Blend: AUG-CC-PVTZ-RI
    Molecular point group: c1

    Geometry (in Angstrom), charge = 0, multiplicity = 1:

       Center              X                  Y                   Z               Mass
    ------------   -----------------  -----------------  -----------------  -----------------
         N           -0.459228549717     1.066686101143    -0.311067896196    14.003074004430
         N            1.040772450283    -0.724108898857    -0.008000896196    14.003074004430
         C           -1.689894649717     0.412981201143    -0.125374796196    12.000000000000
         C            0.837096450283     0.592453101143    -0.149761896196    12.000000000000
         C            3.434802450283    -0.323676898857     0.117733103804    12.000000000000
         C            1.901056450283     1.519308101143    -0.175215896196    12.000000000000
         C            3.196343450283     1.051321101143    -0.038192896196    12.000000000000
         C           -2.786578549717     1.166644101143     0.263095103804    12.000000000000
         C           -1.854463549717    -0.976951898857    -0.374787896196    12.000000000000
         C            2.312551450283    -1.148790898857     0.122324103804    12.000000000000
         C            4.825279450283    -0.875875898857     0.267451103804    12.000000000000
         C           -4.043308549717     0.585309101143     0.410228103804    12.000000000000
         C           -3.116145549717    -1.548519898857    -0.204735896196    12.000000000000
         C           -4.217111549717    -0.780367898857     0.177411103804    12.000000000000
         H           -0.536135549717     2.075014101143    -0.235106896196     1.007825032230
         H            1.705215450283     2.582907101143    -0.297243896196     1.007825032230
         H            4.029083450283     1.753313101143    -0.051117896196     1.007825032230
         H           -2.655616549717     2.229869101143     0.463165103804     1.007825032230
         H           -1.007387549717    -1.579501898857    -0.672919896196     1.007825032230
         H            2.428432450283    -2.226904898857     0.238682103804     1.007825032230
         H            5.441711450283    -0.642392898857    -0.606630896196     1.007825032230
         H            5.325803450283    -0.457495898857     1.146599103804     1.007825032230
         H            4.800811450283    -1.963238898857     0.380573103804     1.007825032230
         H           -4.886286549717     1.203857101143     0.709578103804     1.007825032230
         H           -3.238531549717    -2.612196898857    -0.396776896196     1.007825032230
         H           -5.194642549717    -1.239505898857     0.299408103804     1.007825032230

  Basis Set: AUG-CC-PVTZ
    Blend: AUG-CC-PVTZ
  Basis Set: (AUG-CC-PVTZ AUX)
    Blend: AUG-CC-PVTZ-JKFIT
	 Reference Energy          =    -570.4984371440275481 [Eh]
	 Singles Energy            =      -0.0000000000000000 [Eh]
	 Same-Spin Energy          =      -0.6363942358497552 [Eh]
	 Opposite-Spin Energy      =      -1.9708929267619115 [Eh]
	 Correlation Energy        =      -2.6072871626116667 [Eh]
	 Total Energy              =    -573.1057243066392175 [Eh]

	 ================> DF-SCS-MP2 Energies <==================
	-----------------------------------------------------------
	 SCS Same-Spin Scale       =       0.3333333333333333 [-]
	 SCS Opposite-Spin Scale   =       1.2000000000000000 [-]
	 SCS Same-Spin Energy      =      -0.2121314119499184 [Eh]
	 SCS Opposite-Spin Energy  =      -2.3650715121142936 [Eh]
	 SCS Correlation Energy    =      -2.5772029240642120 [Eh]
	 SCS Total Energy          =    -573.0756400680917295 [Eh]
	-----------------------------------------------------------

  Dipole Moment: [D]
     X:     1.8770      Y:     1.8499      Z:     0.1649     Total:     2.6406

*** Psi4 exiting successfully. Buy a developer a beer!
