                               Psi4 1.4a3.dev225

  ==> Input File <==

--------------------------------------------------------------------------
#psi4
#
memory 32 gb

molecule  {
0 1
  N       -0.4914050     1.0723760    -0.3164170
  N        1.0085960    -0.7184190    -0.0133500
  C       -1.6822139     0.4386182    -0.1221886
  C        0.8049200     0.5981430    -0.1551110
  C        3.4026260    -0.3179870     0.1123840
  C        1.8688800     1.5249980    -0.1805650
  C        3.1641670     1.0570110    -0.0435420
  C       -2.8187550     1.1723340     0.2577460
  C       -1.8866400    -0.9712620    -0.3801370
  C        2.2803750    -1.1431010     0.1169750
  C        4.7931030    -0.8701860     0.2621020
  C       -4.0754850     0.5909990     0.4048790
  C       -3.1483220    -1.5428300    -0.2100850
  C       -4.2492880    -0.7746780     0.1720620
  H       -0.5683120     2.0807040    -0.2404560
  H        1.6730390     2.5885970    -0.3025930
  H        3.9969070     1.7590030    -0.0564670
  H       -2.6877930     2.2355590     0.4578160
  H       -1.0395640    -1.5738120    -0.6782690
  H        2.3962560    -2.2212150     0.2333330
  H        5.4095350    -0.6367030    -0.6119800
  H        5.2936270    -0.4518060     1.1412500
  H        4.7686350    -1.9575490     0.3752240
  H       -4.9184630     1.2095470     0.7042290
  H       -3.2707080    -2.6065070    -0.4021260
  H       -5.2268190    -1.2338160     0.2940590
units angstrom
no_reorient  #important for SAPT in psi4, default
symmetry c1  #important for SAPT in psi4, default
}

set PROPERTIES_ORIGIN ["COM"]
properties('MP2/aug-cc-pvtz', properties = ['dipole'])
--------------------------------------------------------------------------

    Molecular point group: c1
  Charge       = 0
  Multiplicity = 1
  Basis Set: AUG-CC-PVTZ
    Blend: AUG-CC-PVTZ
  Basis Set: (AUG-CC-PVTZ AUX)
    Blend: AUG-CC-PVTZ-JKFIT

    Orbital Energies [Eh]
    ---------------------

    Doubly Occupied:

       1A    -15.592996     2A    -15.556663     3A    -11.326024
       4A    -11.282544     5A    -11.274754     6A    -11.260495
       7A    -11.241761     8A    -11.237969     9A    -11.232088
      10A    -11.230562    11A    -11.228094    12A    -11.225765
      13A    -11.220314    14A    -11.218618    15A     -1.301761
      16A     -1.227721    17A     -1.127775    18A     -1.099294
      19A     -1.049643    20A     -1.004114    21A     -0.989948
      22A     -0.937060    23A     -0.872066    24A     -0.844231
      25A     -0.818354    26A     -0.798533    27A     -0.727819
      28A     -0.718294    29A     -0.670311    30A     -0.656954
      31A     -0.639970    32A     -0.621223    33A     -0.598495
      34A     -0.593739    35A     -0.586848    36A     -0.576898
      37A     -0.571725    38A     -0.564326    39A     -0.548501
      40A     -0.520714    41A     -0.511586    42A     -0.504781
      43A     -0.479726    44A     -0.454977    45A     -0.416675
      46A     -0.383428    47A     -0.337770    48A     -0.327092
      49A     -0.273464

  @DF-RHF Final Energy:  -570.49513936558674

   => Energetics <=

    Nuclear Repulsion Energy =            790.7821278082220715
    One-Electron Energy =               -2341.5856038639572034
    Two-Electron Energy =                 980.3083366901485078
    Total Energy =                       -570.4951393655867378
  Basis Set: (AUG-CC-PVTZ AUX)
    Blend: AUG-CC-PVTZ-RI
    Molecular point group: c1

    Geometry (in Angstrom), charge = 0, multiplicity = 1:

       Center              X                  Y                   Z               Mass
    ------------   -----------------  -----------------  -----------------  -----------------
         N           -0.461826519702     1.065385910284    -0.311624243687    14.003074004430
         N            1.038174480298    -0.725409089716    -0.008557243687    14.003074004430
         C           -1.652635419702     0.431628110284    -0.117395843687    12.000000000000
         C            0.834498480298     0.591152910284    -0.150318243687    12.000000000000
         C            3.432204480298    -0.324977089716     0.117176756313    12.000000000000
         C            1.898458480298     1.518007910284    -0.175772243687    12.000000000000
         C            3.193745480298     1.050020910284    -0.038749243687    12.000000000000
         C           -2.789176519702     1.165343910284     0.262538756313    12.000000000000
         C           -1.857061519702    -0.978252089716    -0.375344243687    12.000000000000
         C            2.309953480298    -1.150091089716     0.121767756313    12.000000000000
         C            4.822681480298    -0.877176089716     0.266894756313    12.000000000000
         C           -4.045906519702     0.584008910284     0.409671756313    12.000000000000
         C           -3.118743519702    -1.549820089716    -0.205292243687    12.000000000000
         C           -4.219709519702    -0.781668089716     0.176854756313    12.000000000000
         H           -0.538733519702     2.073713910284    -0.235663243687     1.007825032230
         H            1.702617480298     2.581606910284    -0.297800243687     1.007825032230
         H            4.026485480298     1.752012910284    -0.051674243687     1.007825032230
         H           -2.658214519702     2.228568910284     0.462608756313     1.007825032230
         H           -1.009985519702    -1.580802089716    -0.673476243687     1.007825032230
         H            2.425834480298    -2.228205089716     0.238125756313     1.007825032230
         H            5.439113480298    -0.643693089716    -0.607187243687     1.007825032230
         H            5.323205480298    -0.458796089716     1.146042756313     1.007825032230
         H            4.798213480298    -1.964539089716     0.380016756313     1.007825032230
         H           -4.888884519702     1.202556910284     0.709021756313     1.007825032230
         H           -3.241129519702    -2.613497089716    -0.397333243687     1.007825032230
         H           -5.197240519702    -1.240806089716     0.298851756313     1.007825032230

  Basis Set: AUG-CC-PVTZ
    Blend: AUG-CC-PVTZ
  Basis Set: (AUG-CC-PVTZ AUX)
    Blend: AUG-CC-PVTZ-JKFIT
	 Reference Energy          =    -570.4951393655867378 [Eh]
	 Singles Energy            =      -0.0000000000000000 [Eh]
	 Same-Spin Energy          =      -0.6368934180507769 [Eh]
	 Opposite-Spin Energy      =      -1.9715000230008750 [Eh]
	 Correlation Energy        =      -2.6083934410516521 [Eh]
	 Total Energy              =    -573.1035328066384409 [Eh]

	 ================> DF-SCS-MP2 Energies <==================
	-----------------------------------------------------------
	 SCS Same-Spin Scale       =       0.3333333333333333 [-]
	 SCS Opposite-Spin Scale   =       1.2000000000000000 [-]
	 SCS Same-Spin Energy      =      -0.2122978060169256 [Eh]
	 SCS Opposite-Spin Energy  =      -2.3658000276010500 [Eh]
	 SCS Correlation Energy    =      -2.5780978336179756 [Eh]
	 SCS Total Energy          =    -573.0732371992047547 [Eh]
	-----------------------------------------------------------

  Dipole Moment: [D]
     X:     2.2660      Y:     1.9216      Z:     0.1397     Total:     2.9743

*** Psi4 exiting successfully. Buy a developer a beer!
