                               Psi4 1.4a3.dev225

  ==> Input File <==

--------------------------------------------------------------------------
#psi4
#
memory 32 gb

molecule  {
0 1
  N       -0.4914050     1.0723760    -0.3164170
  N        1.0085960    -0.7184190    -0.0133500
  C       -1.7100270     0.3982770    -0.1243180
  C        0.8049200     0.5981430    -0.1551110
  C        3.4026260    -0.3179870     0.1123840
  C        1.8688800     1.5249980    -0.1805650
  C        3.1641670     1.0570110    -0.0435420
  C       -2.8187550     1.1723340     0.2577460
  C       -1.8866400    -0.9712620    -0.3801370
  C        2.2803750    -1.1431010     0.1169750
  C        4.7931030    -0.8701860     0.2621020
  C       -4.0754850     0.5909990     0.4048790
  C       -3.1483220    -1.5428300    -0.2100850
  C       -4.2492880    -0.7746780     0.1720620
  H       -0.5683120     2.0807040    -0.2404560
  H        1.6730390     2.5885970    -0.3025930
  H        3.9969070     1.7590030    -0.0564670
  H       -2.6877930     2.2355590     0.4578160
  H       -1.0395640    -1.5738120    -0.6782690
  H        2.3962560    -2.2212150     0.2333330
  H        5.3959448    -0.5627318    -0.5984651
  H        5.2936270    -0.4518060     1.1412500
  H        4.7686350    -1.9575490     0.3752240
  H       -4.9184630     1.2095470     0.7042290
  H       -3.2707080    -2.6065070    -0.4021260
  H       -5.2268190    -1.2338160     0.2940590
units angstrom
no_reorient  #important for SAPT in psi4, default
symmetry c1  #important for SAPT in psi4, default
}

set PROPERTIES_ORIGIN ["COM"]
properties('MP2/aug-cc-pvtz', properties = ['dipole'])
--------------------------------------------------------------------------

    Molecular point group: c1
  Charge       = 0
  Multiplicity = 1
  Basis Set: AUG-CC-PVTZ
    Blend: AUG-CC-PVTZ
  Basis Set: (AUG-CC-PVTZ AUX)
    Blend: AUG-CC-PVTZ-JKFIT

    Orbital Energies [Eh]
    ---------------------

    Doubly Occupied:

       1A    -15.588973     2A    -15.553620     3A    -11.322756
       4A    -11.280862     5A    -11.272413     6A    -11.258386
       7A    -11.238958     8A    -11.235112     9A    -11.233664
      10A    -11.230238    11A    -11.229291    12A    -11.228516
      13A    -11.221369    14A    -11.218327    15A     -1.292977
      16A     -1.219983    17A     -1.132720    18A     -1.097174
      19A     -1.046003    20A     -1.007974    21A     -0.993086
      22A     -0.934940    23A     -0.868523    24A     -0.840949
      25A     -0.821046    26A     -0.797884    27A     -0.723562
      28A     -0.715608    29A     -0.670523    30A     -0.653439
      31A     -0.636753    32A     -0.621167    33A     -0.595484
      34A     -0.593947    35A     -0.587174    36A     -0.579426
      37A     -0.568961    38A     -0.561791    39A     -0.551539
      40A     -0.519103    41A     -0.510227    42A     -0.504290
      43A     -0.487302    44A     -0.453775    45A     -0.414239
      46A     -0.381263    47A     -0.336264    48A     -0.330382
      49A     -0.276650

  @DF-RHF Final Energy:  -570.49831293643501

   => Energetics <=

    Nuclear Repulsion Energy =            790.8350452508602757
    One-Electron Energy =               -2341.7894891881610420
    Two-Electron Energy =                 980.4561310008657529
    Total Energy =                       -570.4983129364350134
  Basis Set: (AUG-CC-PVTZ AUX)
    Blend: AUG-CC-PVTZ-RI
    Molecular point group: c1

    Geometry (in Angstrom), charge = 0, multiplicity = 1:

       Center              X                  Y                   Z               Mass
    ------------   -----------------  -----------------  -----------------  -----------------
         N           -0.459939210346     1.067610485327    -0.311559430312    14.003074004430
         N            1.040061789654    -0.723184514673    -0.008492430312    14.003074004430
         C           -1.678561210346     0.393511485327    -0.119460430312    12.000000000000
         C            0.836385789654     0.593377485327    -0.150253430312    12.000000000000
         C            3.434091789654    -0.322752514673     0.117241569688    12.000000000000
         C            1.900345789654     1.520232485327    -0.175707430312    12.000000000000
         C            3.195632789654     1.052245485327    -0.038684430312    12.000000000000
         C           -2.787289210346     1.167568485327     0.262603569688    12.000000000000
         C           -1.855174210346    -0.976027514673    -0.375279430312    12.000000000000
         C            2.311840789654    -1.147866514673     0.121832569688    12.000000000000
         C            4.824568789654    -0.874951514673     0.266959569688    12.000000000000
         C           -4.044019210346     0.586233485327     0.409736569688    12.000000000000
         C           -3.116856210346    -1.547595514673    -0.205227430312    12.000000000000
         C           -4.217822210346    -0.779443514673     0.176919569688    12.000000000000
         H           -0.536846210346     2.075938485327    -0.235598430312     1.007825032230
         H            1.704504789654     2.583831485327    -0.297735430312     1.007825032230
         H            4.028372789654     1.754237485327    -0.051609430312     1.007825032230
         H           -2.656327210346     2.230793485327     0.462673569688     1.007825032230
         H           -1.008098210346    -1.578577514673    -0.673411430312     1.007825032230
         H            2.427721789654    -2.225980514673     0.238190569688     1.007825032230
         H            5.427410589654    -0.567497314673    -0.593607530312     1.007825032230
         H            5.325092789654    -0.456571514673     1.146107569688     1.007825032230
         H            4.800100789654    -1.962314514673     0.380081569688     1.007825032230
         H           -4.886997210346     1.204781485327     0.709086569688     1.007825032230
         H           -3.239242210346    -2.611272514673    -0.397268430312     1.007825032230
         H           -5.195353210346    -1.238581514673     0.298916569688     1.007825032230

  Basis Set: AUG-CC-PVTZ
    Blend: AUG-CC-PVTZ
  Basis Set: (AUG-CC-PVTZ AUX)
    Blend: AUG-CC-PVTZ-JKFIT
	 Reference Energy          =    -570.4983129364350134 [Eh]
	 Singles Energy            =      -0.0000000000000000 [Eh]
	 Same-Spin Energy          =      -0.6364871254024148 [Eh]
	 Opposite-Spin Energy      =      -1.9710099917287436 [Eh]
	 Correlation Energy        =      -2.6074971171311585 [Eh]
	 Total Energy              =    -573.1058100535661879 [Eh]

	 ================> DF-SCS-MP2 Energies <==================
	-----------------------------------------------------------
	 SCS Same-Spin Scale       =       0.3333333333333333 [-]
	 SCS Opposite-Spin Scale   =       1.2000000000000000 [-]
	 SCS Same-Spin Energy      =      -0.2121623751341383 [Eh]
	 SCS Opposite-Spin Energy  =      -2.3652119900744921 [Eh]
	 SCS Correlation Energy    =      -2.5773743652086303 [Eh]
	 SCS Total Energy          =    -573.0756873016435975 [Eh]
	-----------------------------------------------------------

  Dipole Moment: [D]
     X:     1.8875      Y:     1.8696      Z:     0.1775     Total:     2.6626

*** Psi4 exiting successfully. Buy a developer a beer!
