                               Psi4 1.4a3.dev225

  ==> Input File <==

--------------------------------------------------------------------------
#psi4
#
memory 32 gb

molecule  {
0 1
  N       -0.4510536     0.9858402    -0.3390423
  N        1.0085960    -0.7184190    -0.0133500
  C       -1.7100270     0.3982770    -0.1243180
  C        0.8049200     0.5981430    -0.1551110
  C        3.4026260    -0.3179870     0.1123840
  C        1.8688800     1.5249980    -0.1805650
  C        3.1641670     1.0570110    -0.0435420
  C       -2.8187550     1.1723340     0.2577460
  C       -1.8866400    -0.9712620    -0.3801370
  C        2.2803750    -1.1431010     0.1169750
  C        4.7931030    -0.8701860     0.2621020
  C       -4.0754850     0.5909990     0.4048790
  C       -3.1483220    -1.5428300    -0.2100850
  C       -4.2492880    -0.7746780     0.1720620
  H       -0.5683120     2.0807040    -0.2404560
  H        1.6730390     2.5885970    -0.3025930
  H        3.9969070     1.7590030    -0.0564670
  H       -2.6877930     2.2355590     0.4578160
  H       -1.0395640    -1.5738120    -0.6782690
  H        2.3962560    -2.2212150     0.2333330
  H        5.4095350    -0.6367030    -0.6119800
  H        5.2936270    -0.4518060     1.1412500
  H        4.7686350    -1.9575490     0.3752240
  H       -4.9184630     1.2095470     0.7042290
  H       -3.2707080    -2.6065070    -0.4021260
  H       -5.2268190    -1.2338160     0.2940590
units angstrom
no_reorient  #important for SAPT in psi4, default
symmetry c1  #important for SAPT in psi4, default
}

set PROPERTIES_ORIGIN ["COM"]
properties('MP2/aug-cc-pvtz', properties = ['dipole'])
--------------------------------------------------------------------------

    Molecular point group: c1
  Charge       = 0
  Multiplicity = 1
  Basis Set: AUG-CC-PVTZ
    Blend: AUG-CC-PVTZ
  Basis Set: (AUG-CC-PVTZ AUX)
    Blend: AUG-CC-PVTZ-JKFIT

    Orbital Energies [Eh]
    ---------------------

    Doubly Occupied:

       1A    -15.597258     2A    -15.546627     3A    -11.317910
       4A    -11.284824     5A    -11.269821     6A    -11.256601
       7A    -11.236993     8A    -11.235416     9A    -11.234102
      10A    -11.231721    11A    -11.230176    12A    -11.226127
      13A    -11.224742    14A    -11.219669    15A     -1.304156
      16A     -1.216392    17A     -1.137054    18A     -1.093596
      19A     -1.045602    20A     -1.010826    21A     -0.996632
      22A     -0.930245    23A     -0.868824    24A     -0.845179
      25A     -0.824488    26A     -0.793338    27A     -0.730899
      28A     -0.708899    29A     -0.672873    30A     -0.644415
      31A     -0.635768    32A     -0.621229    33A     -0.599071
      34A     -0.594792    35A     -0.587497    36A     -0.579084
      37A     -0.570451    38A     -0.558803    39A     -0.542774
      40A     -0.517164    41A     -0.510594    42A     -0.505736
      43A     -0.488111    44A     -0.456665    45A     -0.412205
      46A     -0.379178    47A     -0.337496    48A     -0.332424
      49A     -0.274884

  @DF-RHF Final Energy:  -570.48415146834645

   => Energetics <=

    Nuclear Repulsion Energy =            792.0680759610233963
    One-Electron Energy =               -2344.2257879076096287
    Two-Electron Energy =                 981.6735604782397786
    Total Energy =                       -570.4841514683464538
  Basis Set: (AUG-CC-PVTZ AUX)
    Blend: AUG-CC-PVTZ-RI
    Molecular point group: c1

    Geometry (in Angstrom), charge = 0, multiplicity = 1:

       Center              X                  Y                   Z               Mass
    ------------   -----------------  -----------------  -----------------  -----------------
         N           -0.422731428119     0.988061740733    -0.332389812778    14.003074004430
         N            1.036918171881    -0.716197459267    -0.006697512778    14.003074004430
         C           -1.681704828119     0.400498540733    -0.117665512778    12.000000000000
         C            0.833242171881     0.600364540733    -0.148458512778    12.000000000000
         C            3.430948171881    -0.315765459267     0.119036487222    12.000000000000
         C            1.897202171881     1.527219540733    -0.173912512778    12.000000000000
         C            3.192489171881     1.059232540733    -0.036889512778    12.000000000000
         C           -2.790432828119     1.174555540733     0.264398487222    12.000000000000
         C           -1.858317828119    -0.969040459267    -0.373484512778    12.000000000000
         C            2.308697171881    -1.140879459267     0.123627487222    12.000000000000
         C            4.821425171881    -0.867964459267     0.268754487222    12.000000000000
         C           -4.047162828119     0.593220540733     0.411531487222    12.000000000000
         C           -3.119999828119    -1.540608459267    -0.203432512778    12.000000000000
         C           -4.220965828119    -0.772456459267     0.178714487222    12.000000000000
         H           -0.539989828119     2.082925540733    -0.233803512778     1.007825032230
         H            1.701361171881     2.590818540733    -0.295940512778     1.007825032230
         H            4.025229171881     1.761224540733    -0.049814512778     1.007825032230
         H           -2.659470828119     2.237780540733     0.464468487222     1.007825032230
         H           -1.011241828119    -1.571590459267    -0.671616512778     1.007825032230
         H            2.424578171881    -2.218993459267     0.239985487222     1.007825032230
         H            5.437857171881    -0.634481459267    -0.605327512778     1.007825032230
         H            5.321949171881    -0.449584459267     1.147902487222     1.007825032230
         H            4.796957171881    -1.955327459267     0.381876487222     1.007825032230
         H           -4.890140828119     1.211768540733     0.710881487222     1.007825032230
         H           -3.242385828119    -2.604285459267    -0.395473512778     1.007825032230
         H           -5.198496828119    -1.231594459267     0.300711487222     1.007825032230

  Basis Set: AUG-CC-PVTZ
    Blend: AUG-CC-PVTZ
  Basis Set: (AUG-CC-PVTZ AUX)
    Blend: AUG-CC-PVTZ-JKFIT
	 Reference Energy          =    -570.4841514683464538 [Eh]
	 Singles Energy            =      -0.0000000000000000 [Eh]
	 Same-Spin Energy          =      -0.6374822964178380 [Eh]
	 Opposite-Spin Energy      =      -1.9728657499179889 [Eh]
	 Correlation Energy        =      -2.6103480463358268 [Eh]
	 Total Energy              =    -573.0944995146822976 [Eh]

	 ================> DF-SCS-MP2 Energies <==================
	-----------------------------------------------------------
	 SCS Same-Spin Scale       =       0.3333333333333333 [-]
	 SCS Opposite-Spin Scale   =       1.2000000000000000 [-]
	 SCS Same-Spin Energy      =      -0.2124940988059460 [Eh]
	 SCS Opposite-Spin Energy  =      -2.3674388999015865 [Eh]
	 SCS Correlation Energy    =      -2.5799329987075326 [Eh]
	 SCS Total Energy          =    -573.0640844670539309 [Eh]
	-----------------------------------------------------------

  Dipole Moment: [D]
     X:     1.3645      Y:     1.9026      Z:     0.1683     Total:     2.3473

*** Psi4 exiting successfully. Buy a developer a beer!
