                               Psi4 1.4a3.dev225

  ==> Input File <==

--------------------------------------------------------------------------
#psi4
#
memory 32 gb

molecule  {
0 1
  N       -0.4914050     1.0723760    -0.3164170
  N        1.0085960    -0.7184190    -0.0133500
  C       -1.7100270     0.3982770    -0.1243180
  C        0.8049200     0.5981430    -0.1551110
  C        3.5456088    -0.2845853     0.1189899
  C        1.8688800     1.5249980    -0.1805650
  C        3.1641670     1.0570110    -0.0435420
  C       -2.8187550     1.1723340     0.2577460
  C       -1.8866400    -0.9712620    -0.3801370
  C        2.2803750    -1.1431010     0.1169750
  C        4.7931030    -0.8701860     0.2621020
  C       -4.0754850     0.5909990     0.4048790
  C       -3.1483220    -1.5428300    -0.2100850
  C       -4.2492880    -0.7746780     0.1720620
  H       -0.5683120     2.0807040    -0.2404560
  H        1.6730390     2.5885970    -0.3025930
  H        3.9969070     1.7590030    -0.0564670
  H       -2.6877930     2.2355590     0.4578160
  H       -1.0395640    -1.5738120    -0.6782690
  H        2.3962560    -2.2212150     0.2333330
  H        5.4095350    -0.6367030    -0.6119800
  H        5.2936270    -0.4518060     1.1412500
  H        4.7686350    -1.9575490     0.3752240
  H       -4.9184630     1.2095470     0.7042290
  H       -3.2707080    -2.6065070    -0.4021260
  H       -5.2268190    -1.2338160     0.2940590
units angstrom
no_reorient  #important for SAPT in psi4, default
symmetry c1  #important for SAPT in psi4, default
}

set PROPERTIES_ORIGIN ["COM"]
properties('MP2/aug-cc-pvtz', properties = ['dipole'])
--------------------------------------------------------------------------

    Molecular point group: c1
  Charge       = 0
  Multiplicity = 1
  Basis Set: AUG-CC-PVTZ
    Blend: AUG-CC-PVTZ
  Basis Set: (AUG-CC-PVTZ AUX)
    Blend: AUG-CC-PVTZ-JKFIT

    Orbital Energies [Eh]
    ---------------------

    Doubly Occupied:

       1A    -15.588688     2A    -15.559803     3A    -11.322568
       4A    -11.290058     5A    -11.281010     6A    -11.255398
       7A    -11.244849     8A    -11.234850     9A    -11.233783
      10A    -11.230516    11A    -11.228409    12A    -11.225928
      13A    -11.221333    14A    -11.218580    15A     -1.292467
      16A     -1.217447    17A     -1.132442    18A     -1.104970
      19A     -1.048633    20A     -1.008393    21A     -0.997951
      22A     -0.936569    23A     -0.865044    24A     -0.836175
      25A     -0.821979    26A     -0.791268    27A     -0.720762
      28A     -0.714337    29A     -0.671815    30A     -0.654236
      31A     -0.646190    32A     -0.618608    33A     -0.598490
      34A     -0.593684    35A     -0.589691    36A     -0.580203
      37A     -0.572363    38A     -0.561539    39A     -0.556329
      40A     -0.530302    41A     -0.508573    42A     -0.503233
      43A     -0.486566    44A     -0.449671    45A     -0.406025
      46A     -0.383529    47A     -0.331925    48A     -0.326908
      49A     -0.269822

  @DF-RHF Final Energy:  -570.46831683221694

   => Energetics <=

    Nuclear Repulsion Energy =            789.1607085775380028
    One-Electron Energy =               -2338.3302304536800875
    Two-Electron Energy =                 978.7012050439250288
    Total Energy =                       -570.4683168322169422
  Basis Set: (AUG-CC-PVTZ AUX)
    Blend: AUG-CC-PVTZ-RI
    Molecular point group: c1

    Geometry (in Angstrom), charge = 0, multiplicity = 1:

       Center              X                  Y                   Z               Mass
    ------------   -----------------  -----------------  -----------------  -----------------
         N           -0.469333505236     1.065838240420    -0.311916030682    14.003074004430
         N            1.030667494764    -0.724956759580    -0.008849030682    14.003074004430
         C           -1.687955505236     0.391739240420    -0.119817030682    12.000000000000
         C            0.826991494764     0.591605240420    -0.150610030682    12.000000000000
         C            3.567680294764    -0.291123059580     0.123490869318    12.000000000000
         C            1.890951494764     1.518460240420    -0.176064030682    12.000000000000
         C            3.186238494764     1.050473240420    -0.039041030682    12.000000000000
         C           -2.796683505236     1.165796240420     0.262246969318    12.000000000000
         C           -1.864568505236    -0.977799759580    -0.375636030682    12.000000000000
         C            2.302446494764    -1.149638759580     0.121475969318    12.000000000000
         C            4.815174494764    -0.876723759580     0.266602969318    12.000000000000
         C           -4.053413505236     0.584461240420     0.409379969318    12.000000000000
         C           -3.126250505236    -1.549367759580    -0.205584030682    12.000000000000
         C           -4.227216505236    -0.781215759580     0.176562969318    12.000000000000
         H           -0.546240505236     2.074166240420    -0.235955030682     1.007825032230
         H            1.695110494764     2.582059240420    -0.298092030682     1.007825032230
         H            4.018978494764     1.752465240420    -0.051966030682     1.007825032230
         H           -2.665721505236     2.229021240420     0.462316969318     1.007825032230
         H           -1.017492505236    -1.580349759580    -0.673768030682     1.007825032230
         H            2.418327494764    -2.227752759580     0.237833969318     1.007825032230
         H            5.431606494764    -0.643240759580    -0.607479030682     1.007825032230
         H            5.315698494764    -0.458343759580     1.145750969318     1.007825032230
         H            4.790706494764    -1.964086759580     0.379724969318     1.007825032230
         H           -4.896391505236     1.203009240420     0.708729969318     1.007825032230
         H           -3.248636505236    -2.613044759580    -0.397625030682     1.007825032230
         H           -5.204747505236    -1.240353759580     0.298559969318     1.007825032230

  Basis Set: AUG-CC-PVTZ
    Blend: AUG-CC-PVTZ
  Basis Set: (AUG-CC-PVTZ AUX)
    Blend: AUG-CC-PVTZ-JKFIT
	 Reference Energy          =    -570.4683168322169422 [Eh]
	 Singles Energy            =      -0.0000000000000000 [Eh]
	 Same-Spin Energy          =      -0.6387488986047863 [Eh]
	 Opposite-Spin Energy      =      -1.9745567547830127 [Eh]
	 Correlation Energy        =      -2.6133056533877990 [Eh]
	 Total Energy              =    -573.0816224856047256 [Eh]

	 ================> DF-SCS-MP2 Energies <==================
	-----------------------------------------------------------
	 SCS Same-Spin Scale       =       0.3333333333333333 [-]
	 SCS Opposite-Spin Scale   =       1.2000000000000000 [-]
	 SCS Same-Spin Energy      =      -0.2129162995349288 [Eh]
	 SCS Opposite-Spin Energy  =      -2.3694681057396152 [Eh]
	 SCS Correlation Energy    =      -2.5823844052745439 [Eh]
	 SCS Total Energy          =    -573.0507012374914666 [Eh]
	-----------------------------------------------------------

  Dipole Moment: [D]
     X:     2.0475      Y:     1.6731      Z:     0.1916     Total:     2.6511

*** Psi4 exiting successfully. Buy a developer a beer!
