                               Psi4 1.4a3.dev225

  ==> Input File <==

--------------------------------------------------------------------------
#psi4
#
memory 32 gb

molecule  {
0 1
  N       -0.4914050     1.0723760    -0.3164170
  N        1.0085960    -0.7184190    -0.0133500
  C       -1.7100270     0.3982770    -0.1243180
  C        0.8049200     0.5981430    -0.1551110
  C        3.4026260    -0.3179870     0.1123840
  C        1.8688800     1.5249980    -0.1805650
  C        3.1641670     1.0570110    -0.0435420
  C       -2.8029740     1.1613165     0.2523079
  C       -1.8866400    -0.9712620    -0.3801370
  C        2.2803750    -1.1431010     0.1169750
  C        4.7931030    -0.8701860     0.2621020
  C       -4.0754850     0.5909990     0.4048790
  C       -3.1483220    -1.5428300    -0.2100850
  C       -4.2492880    -0.7746780     0.1720620
  H       -0.5683120     2.0807040    -0.2404560
  H        1.6730390     2.5885970    -0.3025930
  H        3.9969070     1.7590030    -0.0564670
  H       -2.6877930     2.2355590     0.4578160
  H       -1.0395640    -1.5738120    -0.6782690
  H        2.3962560    -2.2212150     0.2333330
  H        5.4095350    -0.6367030    -0.6119800
  H        5.2936270    -0.4518060     1.1412500
  H        4.7686350    -1.9575490     0.3752240
  H       -4.9184630     1.2095470     0.7042290
  H       -3.2707080    -2.6065070    -0.4021260
  H       -5.2268190    -1.2338160     0.2940590
units angstrom
no_reorient  #important for SAPT in psi4, default
symmetry c1  #important for SAPT in psi4, default
}

set PROPERTIES_ORIGIN ["COM"]
properties('MP2/aug-cc-pvtz', properties = ['dipole'])
--------------------------------------------------------------------------

    Molecular point group: c1
  Charge       = 0
  Multiplicity = 1
  Basis Set: AUG-CC-PVTZ
    Blend: AUG-CC-PVTZ
  Basis Set: (AUG-CC-PVTZ AUX)
    Blend: AUG-CC-PVTZ-JKFIT

    Orbital Energies [Eh]
    ---------------------

    Doubly Occupied:

       1A    -15.588420     2A    -15.553512     3A    -11.322784
       4A    -11.278722     5A    -11.272642     6A    -11.258298
       7A    -11.238608     8A    -11.235085     9A    -11.234780
      10A    -11.230142    11A    -11.228795    12A    -11.228312
      13A    -11.221936    14A    -11.219033    15A     -1.293049
      16A     -1.220401    17A     -1.133437    18A     -1.096777
      19A     -1.046211    20A     -1.006757    21A     -0.994634
      22A     -0.934783    23A     -0.868259    24A     -0.841686
      25A     -0.820726    26A     -0.798353    27A     -0.723899
      28A     -0.715453    29A     -0.669488    30A     -0.652988
      31A     -0.636689    32A     -0.622389    33A     -0.595502
      34A     -0.594392    35A     -0.588928    36A     -0.577697
      37A     -0.569261    38A     -0.562663    39A     -0.546609
      40A     -0.519050    41A     -0.511625    42A     -0.503087
      43A     -0.488219    44A     -0.453906    45A     -0.414307
      46A     -0.381280    47A     -0.337880    48A     -0.328826
      49A     -0.277905

  @DF-RHF Final Energy:  -570.49854040476225

   => Energetics <=

    Nuclear Repulsion Energy =            791.0834605747862724
    One-Electron Energy =               -2342.2876280698128539
    Two-Electron Energy =                 980.7056270902642154
    Total Energy =                       -570.4985404047622524
  Basis Set: (AUG-CC-PVTZ AUX)
    Blend: AUG-CC-PVTZ-RI
    Molecular point group: c1

    Geometry (in Angstrom), charge = 0, multiplicity = 1:

       Center              X                  Y                   Z               Mass
    ------------   -----------------  -----------------  -----------------  -----------------
         N           -0.461042243971     1.068733570458    -0.311130979286    14.003074004430
         N            1.038958756029    -0.722061429542    -0.008063979286    14.003074004430
         C           -1.679664243971     0.394634570458    -0.119031979286    12.000000000000
         C            0.835282756029     0.594500570458    -0.149824979286    12.000000000000
         C            3.432988756029    -0.321629429542     0.117670020714    12.000000000000
         C            1.899242756029     1.521355570458    -0.175278979286    12.000000000000
         C            3.194529756029     1.053368570458    -0.038255979286    12.000000000000
         C           -2.772611243971     1.157674070458     0.257593920714    12.000000000000
         C           -1.856277243971    -0.974904429542    -0.374850979286    12.000000000000
         C            2.310737756029    -1.146743429542     0.122261020714    12.000000000000
         C            4.823465756029    -0.873828429542     0.267388020714    12.000000000000
         C           -4.045122243971     0.587356570458     0.410165020714    12.000000000000
         C           -3.117959243971    -1.546472429542    -0.204798979286    12.000000000000
         C           -4.218925243971    -0.778320429542     0.177348020714    12.000000000000
         H           -0.537949243971     2.077061570458    -0.235169979286     1.007825032230
         H            1.703401756029     2.584954570458    -0.297306979286     1.007825032230
         H            4.027269756029     1.755360570458    -0.051180979286     1.007825032230
         H           -2.657430243971     2.231916570458     0.463102020714     1.007825032230
         H           -1.009201243971    -1.577454429542    -0.672982979286     1.007825032230
         H            2.426618756029    -2.224857429542     0.238619020714     1.007825032230
         H            5.439897756029    -0.640345429542    -0.606693979286     1.007825032230
         H            5.323989756029    -0.455448429542     1.146536020714     1.007825032230
         H            4.798997756029    -1.961191429542     0.380510020714     1.007825032230
         H           -4.888100243971     1.205904570458     0.709515020714     1.007825032230
         H           -3.240345243971    -2.610149429542    -0.396839979286     1.007825032230
         H           -5.196456243971    -1.237458429542     0.299345020714     1.007825032230

  Basis Set: AUG-CC-PVTZ
    Blend: AUG-CC-PVTZ
  Basis Set: (AUG-CC-PVTZ AUX)
    Blend: AUG-CC-PVTZ-JKFIT
	 Reference Energy          =    -570.4985404047622524 [Eh]
	 Singles Energy            =      -0.0000000000000000 [Eh]
	 Same-Spin Energy          =      -0.6364133245773322 [Eh]
	 Opposite-Spin Energy      =      -1.9708937090602068 [Eh]
	 Correlation Energy        =      -2.6073070336375390 [Eh]
	 Total Energy              =    -573.1058474383997918 [Eh]

	 ================> DF-SCS-MP2 Energies <==================
	-----------------------------------------------------------
	 SCS Same-Spin Scale       =       0.3333333333333333 [-]
	 SCS Opposite-Spin Scale   =       1.2000000000000000 [-]
	 SCS Same-Spin Energy      =      -0.2121377748591107 [Eh]
	 SCS Opposite-Spin Energy  =      -2.3650724508722480 [Eh]
	 SCS Correlation Energy    =      -2.5772102257313589 [Eh]
	 SCS Total Energy          =    -573.0757506304936442 [Eh]
	-----------------------------------------------------------

  Dipole Moment: [D]
     X:     1.8342      Y:     1.8406      Z:     0.1653     Total:     2.6038

*** Psi4 exiting successfully. Buy a developer a beer!
