                               Psi4 1.4a3.dev225

  ==> Input File <==

--------------------------------------------------------------------------
#psi4
#
memory 32 gb

molecule  {
0 1
  N       -0.4914050     1.0723760    -0.3164170
  N        1.0085960    -0.7184190    -0.0133500
  C       -1.6354618     0.2733135    -0.1461690
  C        0.8049200     0.5981430    -0.1551110
  C        3.4026260    -0.3179870     0.1123840
  C        1.8688800     1.5249980    -0.1805650
  C        3.1641670     1.0570110    -0.0435420
  C       -2.8187550     1.1723340     0.2577460
  C       -1.8866400    -0.9712620    -0.3801370
  C        2.2803750    -1.1431010     0.1169750
  C        4.7931030    -0.8701860     0.2621020
  C       -4.0754850     0.5909990     0.4048790
  C       -3.1483220    -1.5428300    -0.2100850
  C       -4.2492880    -0.7746780     0.1720620
  H       -0.5683120     2.0807040    -0.2404560
  H        1.6730390     2.5885970    -0.3025930
  H        3.9969070     1.7590030    -0.0564670
  H       -2.6877930     2.2355590     0.4578160
  H       -1.0395640    -1.5738120    -0.6782690
  H        2.3962560    -2.2212150     0.2333330
  H        5.4095350    -0.6367030    -0.6119800
  H        5.2936270    -0.4518060     1.1412500
  H        4.7686350    -1.9575490     0.3752240
  H       -4.9184630     1.2095470     0.7042290
  H       -3.2707080    -2.6065070    -0.4021260
  H       -5.2268190    -1.2338160     0.2940590
units angstrom
no_reorient  #important for SAPT in psi4, default
symmetry c1  #important for SAPT in psi4, default
}

set PROPERTIES_ORIGIN ["COM"]
properties('MP2/aug-cc-pvtz', properties = ['dipole'])
--------------------------------------------------------------------------

    Molecular point group: c1
  Charge       = 0
  Multiplicity = 1
  Basis Set: AUG-CC-PVTZ
    Blend: AUG-CC-PVTZ
  Basis Set: (AUG-CC-PVTZ AUX)
    Blend: AUG-CC-PVTZ-JKFIT

    Orbital Energies [Eh]
    ---------------------

    Doubly Occupied:

       1A    -15.590568     2A    -15.553173     3A    -11.319883
       4A    -11.279259     5A    -11.272515     6A    -11.257937
       7A    -11.239409     8A    -11.237754     9A    -11.234717
      10A    -11.232627    11A    -11.232560    12A    -11.228589
      13A    -11.222234    14A    -11.203599    15A     -1.293967
      16A     -1.218578    17A     -1.133594    18A     -1.096425
      19A     -1.045049    20A     -1.018268    21A     -0.985446
      22A     -0.934855    23A     -0.868911    24A     -0.838570
      25A     -0.828144    26A     -0.790266    27A     -0.724033
      28A     -0.716510    29A     -0.674161    30A     -0.653722
      31A     -0.638052    32A     -0.618673    33A     -0.605857
      34A     -0.593713    35A     -0.584631    36A     -0.571574
      37A     -0.569668    38A     -0.560846    39A     -0.546500
      40A     -0.518846    41A     -0.511900    42A     -0.507629
      43A     -0.474332    44A     -0.452185    45A     -0.411882
      46A     -0.380993    47A     -0.346155    48A     -0.324677
      49A     -0.277015

  @DF-RHF Final Energy:  -570.47253675286561

   => Energetics <=

    Nuclear Repulsion Energy =            791.4100633585260312
    One-Electron Energy =               -2342.9243005970356535
    Two-Electron Energy =                 981.0417004856440144
    Total Energy =                       -570.4725367528656079
  Basis Set: (AUG-CC-PVTZ AUX)
    Blend: AUG-CC-PVTZ-RI
    Molecular point group: c1

    Geometry (in Angstrom), charge = 0, multiplicity = 1:

       Center              X                  Y                   Z               Mass
    ------------   -----------------  -----------------  -----------------  -----------------
         N           -0.464873912709     1.076160792840    -0.310061154472    14.003074004430
         N            1.035127087291    -0.714634207160    -0.006994154472    14.003074004430
         C           -1.608930712709     0.277098292840    -0.139813154472    12.000000000000
         C            0.831451087291     0.601927792840    -0.148755154472    12.000000000000
         C            3.429157087291    -0.314202207160     0.118739845528    12.000000000000
         C            1.895411087291     1.528782792840    -0.174209154472    12.000000000000
         C            3.190698087291     1.060795792840    -0.037186154472    12.000000000000
         C           -2.792223912709     1.176118792840     0.264101845528    12.000000000000
         C           -1.860108912709    -0.967477207160    -0.373781154472    12.000000000000
         C            2.306906087291    -1.139316207160     0.123330845528    12.000000000000
         C            4.819634087291    -0.866401207160     0.268457845528    12.000000000000
         C           -4.048953912709     0.594783792840     0.411234845528    12.000000000000
         C           -3.121790912709    -1.539045207160    -0.203729154472    12.000000000000
         C           -4.222756912709    -0.770893207160     0.178417845528    12.000000000000
         H           -0.541780912709     2.084488792840    -0.234100154472     1.007825032230
         H            1.699570087291     2.592381792840    -0.296237154472     1.007825032230
         H            4.023438087291     1.762787792840    -0.050111154472     1.007825032230
         H           -2.661261912709     2.239343792840     0.464171845528     1.007825032230
         H           -1.013032912709    -1.570027207160    -0.671913154472     1.007825032230
         H            2.422787087291    -2.217430207160     0.239688845528     1.007825032230
         H            5.436066087291    -0.632918207160    -0.605624154472     1.007825032230
         H            5.320158087291    -0.448021207160     1.147605845528     1.007825032230
         H            4.795166087291    -1.953764207160     0.381579845528     1.007825032230
         H           -4.891931912709     1.213331792840     0.710584845528     1.007825032230
         H           -3.244176912709    -2.602722207160    -0.395770154472     1.007825032230
         H           -5.200287912709    -1.230031207160     0.300414845528     1.007825032230

  Basis Set: AUG-CC-PVTZ
    Blend: AUG-CC-PVTZ
  Basis Set: (AUG-CC-PVTZ AUX)
    Blend: AUG-CC-PVTZ-JKFIT
	 Reference Energy          =    -570.4725367528656079 [Eh]
	 Singles Energy            =      -0.0000000000000000 [Eh]
	 Same-Spin Energy          =      -0.6359338583496467 [Eh]
	 Opposite-Spin Energy      =      -1.9721674893293026 [Eh]
	 Correlation Energy        =      -2.6081013476789492 [Eh]
	 Total Energy              =    -573.0806381005445473 [Eh]

	 ================> DF-SCS-MP2 Energies <==================
	-----------------------------------------------------------
	 SCS Same-Spin Scale       =       0.3333333333333333 [-]
	 SCS Opposite-Spin Scale   =       1.2000000000000000 [-]
	 SCS Same-Spin Energy      =      -0.2119779527832155 [Eh]
	 SCS Opposite-Spin Energy  =      -2.3666009871951630 [Eh]
	 SCS Correlation Energy    =      -2.5785789399783785 [Eh]
	 SCS Total Energy          =    -573.0511156928439505 [Eh]
	-----------------------------------------------------------

  Dipole Moment: [D]
     X:     1.8251      Y:     1.8654      Z:     0.1421     Total:     2.6136

*** Psi4 exiting successfully. Buy a developer a beer!
