                               Psi4 1.4a3.dev225

  ==> Input File <==

--------------------------------------------------------------------------
#psi4
#
memory 32 gb

molecule  {
0 1
  N       -0.4914050     1.0723760    -0.3164170
  N        1.0085960    -0.7184190    -0.0133500
  C       -1.7100270     0.3982770    -0.1243180
  C        0.8049200     0.5981430    -0.1551110
  C        3.4026260    -0.3179870     0.1123840
  C        1.8688800     1.5249980    -0.1805650
  C        3.1641670     1.0570110    -0.0435420
  C       -2.8187550     1.1723340     0.2577460
  C       -1.8866400    -0.9712620    -0.3801370
  C        2.3747815    -1.1746259     0.1266493
  C        4.7931030    -0.8701860     0.2621020
  C       -4.0754850     0.5909990     0.4048790
  C       -3.1483220    -1.5428300    -0.2100850
  C       -4.2492880    -0.7746780     0.1720620
  H       -0.5683120     2.0807040    -0.2404560
  H        1.6730390     2.5885970    -0.3025930
  H        3.9969070     1.7590030    -0.0564670
  H       -2.6877930     2.2355590     0.4578160
  H       -1.0395640    -1.5738120    -0.6782690
  H        2.3962560    -2.2212150     0.2333330
  H        5.4095350    -0.6367030    -0.6119800
  H        5.2936270    -0.4518060     1.1412500
  H        4.7686350    -1.9575490     0.3752240
  H       -4.9184630     1.2095470     0.7042290
  H       -3.2707080    -2.6065070    -0.4021260
  H       -5.2268190    -1.2338160     0.2940590
units angstrom
no_reorient  #important for SAPT in psi4, default
symmetry c1  #important for SAPT in psi4, default
}

set PROPERTIES_ORIGIN ["COM"]
properties('MP2/aug-cc-pvtz', properties = ['dipole'])
--------------------------------------------------------------------------

    Molecular point group: c1
  Charge       = 0
  Multiplicity = 1
  Basis Set: AUG-CC-PVTZ
    Blend: AUG-CC-PVTZ
  Basis Set: (AUG-CC-PVTZ AUX)
    Blend: AUG-CC-PVTZ-JKFIT

    Orbital Energies [Eh]
    ---------------------

    Doubly Occupied:

       1A    -15.588592     2A    -15.552752     3A    -11.321248
       4A    -11.279982     5A    -11.267860     6A    -11.262100
       7A    -11.244095     8A    -11.233356     9A    -11.232940
      10A    -11.229318    11A    -11.228207    12A    -11.228035
      13A    -11.220867    14A    -11.217362    15A     -1.285618
      16A     -1.204654    17A     -1.131802    18A     -1.095353
      19A     -1.049129    20A     -1.007095    21A     -0.993566
      22A     -0.934810    23A     -0.875542    24A     -0.837753
      25A     -0.820649    26A     -0.793763    27A     -0.725055
      28A     -0.713368    29A     -0.670122    30A     -0.653633
      31A     -0.637429    32A     -0.625176    33A     -0.596210
      34A     -0.594470    35A     -0.588071    36A     -0.578519
      37A     -0.568485    38A     -0.563043    39A     -0.542557
      40A     -0.514758    41A     -0.509568    42A     -0.502446
      43A     -0.487026    44A     -0.452692    45A     -0.412203
      46A     -0.370559    47A     -0.342508    48A     -0.329839
      49A     -0.281648

  @DF-RHF Final Energy:  -570.48617103537470

   => Energetics <=

    Nuclear Repulsion Energy =            789.6261526602767162
    One-Electron Energy =               -2339.4329800247965068
    Two-Electron Energy =                 979.3206563291452085
    Total Energy =                       -570.4861710353746957
  Basis Set: (AUG-CC-PVTZ AUX)
    Blend: AUG-CC-PVTZ-RI
    Molecular point group: c1

    Geometry (in Angstrom), charge = 0, multiplicity = 1:

       Center              X                  Y                   Z               Mass
    ------------   -----------------  -----------------  -----------------  -----------------
         N           -0.466167207317     1.070070282763    -0.312116034975    14.003074004430
         N            1.033833792683    -0.720724717237    -0.009049034975    14.003074004430
         C           -1.684789207317     0.395971282763    -0.120017034975    12.000000000000
         C            0.830157792683     0.595837282763    -0.150810034975    12.000000000000
         C            3.427863792683    -0.320292717237     0.116684965025    12.000000000000
         C            1.894117792683     1.522692282763    -0.176264034975    12.000000000000
         C            3.189404792683     1.054705282763    -0.039241034975    12.000000000000
         C           -2.793517207317     1.170028282763     0.262046965025    12.000000000000
         C           -1.861402207317    -0.973567717237    -0.375836034975    12.000000000000
         C            2.400019292683    -1.176931617237     0.130950265025    12.000000000000
         C            4.818340792683    -0.872491717237     0.266402965025    12.000000000000
         C           -4.050247207317     0.588693282763     0.409179965025    12.000000000000
         C           -3.123084207317    -1.545135717237    -0.205784034975    12.000000000000
         C           -4.224050207317    -0.776983717237     0.176362965025    12.000000000000
         H           -0.543074207317     2.078398282763    -0.236155034975     1.007825032230
         H            1.698276792683     2.586291282763    -0.298292034975     1.007825032230
         H            4.022144792683     1.756697282763    -0.052166034975     1.007825032230
         H           -2.662555207317     2.233253282763     0.462116965025     1.007825032230
         H           -1.014326207317    -1.576117717237    -0.673968034975     1.007825032230
         H            2.421493792683    -2.223520717237     0.237633965025     1.007825032230
         H            5.434772792683    -0.639008717237    -0.607679034975     1.007825032230
         H            5.318864792683    -0.454111717237     1.145550965025     1.007825032230
         H            4.793872792683    -1.959854717237     0.379524965025     1.007825032230
         H           -4.893225207317     1.207241282763     0.708529965025     1.007825032230
         H           -3.245470207317    -2.608812717237    -0.397825034975     1.007825032230
         H           -5.201581207317    -1.236121717237     0.298359965025     1.007825032230

  Basis Set: AUG-CC-PVTZ
    Blend: AUG-CC-PVTZ
  Basis Set: (AUG-CC-PVTZ AUX)
    Blend: AUG-CC-PVTZ-JKFIT
	 Reference Energy          =    -570.4861710353746957 [Eh]
	 Singles Energy            =      -0.0000000000000000 [Eh]
	 Same-Spin Energy          =      -0.6362282439801574 [Eh]
	 Opposite-Spin Energy      =      -1.9729237939770339 [Eh]
	 Correlation Energy        =      -2.6091520379571911 [Eh]
	 Total Energy              =    -573.0953230733318833 [Eh]

	 ================> DF-SCS-MP2 Energies <==================
	-----------------------------------------------------------
	 SCS Same-Spin Scale       =       0.3333333333333333 [-]
	 SCS Opposite-Spin Scale   =       1.2000000000000000 [-]
	 SCS Same-Spin Energy      =      -0.2120760813267191 [Eh]
	 SCS Opposite-Spin Energy  =      -2.3675085527724407 [Eh]
	 SCS Correlation Energy    =      -2.5795846340991599 [Eh]
	 SCS Total Energy          =    -573.0657556694739014 [Eh]
	-----------------------------------------------------------

  Dipole Moment: [D]
     X:     1.9572      Y:     1.8761      Z:     0.1653     Total:     2.7162

*** Psi4 exiting successfully. Buy a developer a beer!
