                               Psi4 1.4a3.dev225

  ==> Input File <==

--------------------------------------------------------------------------
#psi4
#
memory 32 gb

molecule  {
0 1
  N       -0.4914050     1.0723760    -0.3164170
  N        1.0085960    -0.7184190    -0.0133500
  C       -1.7712408     0.5306261    -0.1045716
  C        0.8049200     0.5981430    -0.1551110
  C        3.4026260    -0.3179870     0.1123840
  C        1.8688800     1.5249980    -0.1805650
  C        3.1641670     1.0570110    -0.0435420
  C       -2.8187550     1.1723340     0.2577460
  C       -1.8866400    -0.9712620    -0.3801370
  C        2.2803750    -1.1431010     0.1169750
  C        4.7931030    -0.8701860     0.2621020
  C       -4.0754850     0.5909990     0.4048790
  C       -3.1483220    -1.5428300    -0.2100850
  C       -4.2492880    -0.7746780     0.1720620
  H       -0.5683120     2.0807040    -0.2404560
  H        1.6730390     2.5885970    -0.3025930
  H        3.9969070     1.7590030    -0.0564670
  H       -2.6877930     2.2355590     0.4578160
  H       -1.0395640    -1.5738120    -0.6782690
  H        2.3962560    -2.2212150     0.2333330
  H        5.4095350    -0.6367030    -0.6119800
  H        5.2936270    -0.4518060     1.1412500
  H        4.7686350    -1.9575490     0.3752240
  H       -4.9184630     1.2095470     0.7042290
  H       -3.2707080    -2.6065070    -0.4021260
  H       -5.2268190    -1.2338160     0.2940590
units angstrom
no_reorient  #important for SAPT in psi4, default
symmetry c1  #important for SAPT in psi4, default
}

set PROPERTIES_ORIGIN ["COM"]
properties('MP2/aug-cc-pvtz', properties = ['dipole'])
--------------------------------------------------------------------------

    Molecular point group: c1
  Charge       = 0
  Multiplicity = 1
  Basis Set: AUG-CC-PVTZ
    Blend: AUG-CC-PVTZ
  Basis Set: (AUG-CC-PVTZ AUX)
    Blend: AUG-CC-PVTZ-JKFIT

    Orbital Energies [Eh]
    ---------------------

    Doubly Occupied:

       1A    -15.587967     2A    -15.554403     3A    -11.326468
       4A    -11.277961     5A    -11.273161     6A    -11.259007
       7A    -11.239867     8A    -11.235934     9A    -11.233793
      10A    -11.230597    11A    -11.229298    12A    -11.226903
      13A    -11.222991    14A    -11.214019    15A     -1.292614
      16A     -1.222074    17A     -1.136121    18A     -1.097554
      19A     -1.049385    20A     -1.017112    21A     -0.985447
      22A     -0.935865    23A     -0.868598    24A     -0.844976
      25A     -0.818563    26A     -0.796587    27A     -0.730206
      28A     -0.710400    29A     -0.673775    30A     -0.652577
      31A     -0.637962    32A     -0.622456    33A     -0.601451
      34A     -0.593303    35A     -0.582910    36A     -0.578249
      37A     -0.568703    38A     -0.559939    39A     -0.547078
      40A     -0.520392    41A     -0.513908    42A     -0.507958
      43A     -0.471663    44A     -0.453742    45A     -0.415907
      46A     -0.381970    47A     -0.350890    48A     -0.321106
      49A     -0.277510

  @DF-RHF Final Energy:  -570.47153946843582

   => Energetics <=

    Nuclear Repulsion Energy =            790.3039160589055427
    One-Electron Energy =               -2340.6482691914293355
    Two-Electron Energy =                 979.8728136640879711
    Total Energy =                       -570.4715394684358216
  Basis Set: (AUG-CC-PVTZ AUX)
    Blend: AUG-CC-PVTZ-RI
    Molecular point group: c1

    Geometry (in Angstrom), charge = 0, multiplicity = 1:

       Center              X                  Y                   Z               Mass
    ------------   -----------------  -----------------  -----------------  -----------------
         N           -0.456023572830     1.059388656021    -0.312772554085    14.003074004430
         N            1.043977427170    -0.731406343979    -0.009705554085    14.003074004430
         C           -1.735859372830     0.517638756021    -0.100927154085    12.000000000000
         C            0.840301427170     0.585155656021    -0.151466554085    12.000000000000
         C            3.438007427170    -0.330974343979     0.116028445915    12.000000000000
         C            1.904261427170     1.512010656021    -0.176920554085    12.000000000000
         C            3.199548427170     1.044023656021    -0.039897554085    12.000000000000
         C           -2.783373572830     1.159346656021     0.261390445915    12.000000000000
         C           -1.851258572830    -0.984249343979    -0.376492554085    12.000000000000
         C            2.315756427170    -1.156088343979     0.120619445915    12.000000000000
         C            4.828484427170    -0.883173343979     0.265746445915    12.000000000000
         C           -4.040103572830     0.578011656021     0.408523445915    12.000000000000
         C           -3.112940572830    -1.555817343979    -0.206440554085    12.000000000000
         C           -4.213906572830    -0.787665343979     0.175706445915    12.000000000000
         H           -0.532930572830     2.067716656021    -0.236811554085     1.007825032230
         H            1.708420427170     2.575609656021    -0.298948554085     1.007825032230
         H            4.032288427170     1.746015656021    -0.052822554085     1.007825032230
         H           -2.652411572830     2.222571656021     0.461460445915     1.007825032230
         H           -1.004182572830    -1.586799343979    -0.674624554085     1.007825032230
         H            2.431637427170    -2.234202343979     0.236977445915     1.007825032230
         H            5.444916427170    -0.649690343979    -0.608335554085     1.007825032230
         H            5.329008427170    -0.464793343979     1.144894445915     1.007825032230
         H            4.804016427170    -1.970536343979     0.378868445915     1.007825032230
         H           -4.883081572830     1.196559656021     0.707873445915     1.007825032230
         H           -3.235326572830    -2.619494343979    -0.398481554085     1.007825032230
         H           -5.191437572830    -1.246803343979     0.297703445915     1.007825032230

  Basis Set: AUG-CC-PVTZ
    Blend: AUG-CC-PVTZ
  Basis Set: (AUG-CC-PVTZ AUX)
    Blend: AUG-CC-PVTZ-JKFIT
	 Reference Energy          =    -570.4715394684358216 [Eh]
	 Singles Energy            =      -0.0000000000000000 [Eh]
	 Same-Spin Energy          =      -0.6358389209855176 [Eh]
	 Opposite-Spin Energy      =      -1.9718923572445133 [Eh]
	 Correlation Energy        =      -2.6077312782300308 [Eh]
	 Total Energy              =    -573.0792707466658840 [Eh]

	 ================> DF-SCS-MP2 Energies <==================
	-----------------------------------------------------------
	 SCS Same-Spin Scale       =       0.3333333333333333 [-]
	 SCS Opposite-Spin Scale   =       1.2000000000000000 [-]
	 SCS Same-Spin Energy      =      -0.2119463069951725 [Eh]
	 SCS Opposite-Spin Energy  =      -2.3662708286934158 [Eh]
	 SCS Correlation Energy    =      -2.5782171356885883 [Eh]
	 SCS Total Energy          =    -573.0497566041243545 [Eh]
	-----------------------------------------------------------

  Dipole Moment: [D]
     X:     1.9229      Y:     1.8284      Z:     0.1924     Total:     2.6604

*** Psi4 exiting successfully. Buy a developer a beer!
