                               Psi4 1.4a3.dev225

  ==> Input File <==

--------------------------------------------------------------------------
#psi4
#
memory 32 gb

molecule  {
0 1
  N       -0.4914050     1.0723760    -0.3164170
  N        1.0085960    -0.7184190    -0.0133500
  C       -1.7100270     0.3982770    -0.1243180
  C        0.8049200     0.5981430    -0.1551110
  C        3.4026260    -0.3179870     0.1123840
  C        1.8688800     1.5249980    -0.1805650
  C        3.1641670     1.0570110    -0.0435420
  C       -2.8187550     1.1723340     0.2577460
  C       -1.8866400    -0.9712620    -0.3801370
  C        2.2803750    -1.1431010     0.1169750
  C        4.7931030    -0.8701860     0.2621020
  C       -4.2559889     0.5075020     0.4260117
  C       -3.1483220    -1.5428300    -0.2100850
  C       -4.2492880    -0.7746780     0.1720620
  H       -0.5683120     2.0807040    -0.2404560
  H        1.6730390     2.5885970    -0.3025930
  H        3.9969070     1.7590030    -0.0564670
  H       -2.6877930     2.2355590     0.4578160
  H       -1.0395640    -1.5738120    -0.6782690
  H        2.3962560    -2.2212150     0.2333330
  H        5.4095350    -0.6367030    -0.6119800
  H        5.2936270    -0.4518060     1.1412500
  H        4.7686350    -1.9575490     0.3752240
  H       -4.9184630     1.2095470     0.7042290
  H       -3.2707080    -2.6065070    -0.4021260
  H       -5.2268190    -1.2338160     0.2940590
units angstrom
no_reorient  #important for SAPT in psi4, default
symmetry c1  #important for SAPT in psi4, default
}

set PROPERTIES_ORIGIN ["COM"]
properties('MP2/aug-cc-pvtz', properties = ['dipole'])
--------------------------------------------------------------------------

    Molecular point group: c1
  Charge       = 0
  Multiplicity = 1
  Basis Set: AUG-CC-PVTZ
    Blend: AUG-CC-PVTZ
  Basis Set: (AUG-CC-PVTZ AUX)
    Blend: AUG-CC-PVTZ-JKFIT

    Orbital Energies [Eh]
    ---------------------

    Doubly Occupied:

       1A    -15.587206     2A    -15.553406     3A    -11.322686
       4A    -11.280153     5A    -11.272725     6A    -11.258247
       7A    -11.239017     8A    -11.238201     9A    -11.235406
      10A    -11.234772    11A    -11.232378    12A    -11.228659
      13A    -11.225388    14A    -11.217319    15A     -1.292321
      16A     -1.218826    17A     -1.128953    18A     -1.096649
      19A     -1.048995    20A     -1.009612    21A     -0.986908
      22A     -0.932485    23A     -0.868195    24A     -0.844603
      25A     -0.824670    26A     -0.796019    27A     -0.726370
      28A     -0.717146    29A     -0.668053    30A     -0.660351
      31A     -0.640043    32A     -0.619367    33A     -0.615503
      34A     -0.594238    35A     -0.589193    36A     -0.570872
      37A     -0.567831    38A     -0.559764    39A     -0.546039
      40A     -0.518270    41A     -0.510927    42A     -0.502484
      43A     -0.466364    44A     -0.454620    45A     -0.413875
      46A     -0.381285    47A     -0.345632    48A     -0.316712
      49A     -0.279327

  @DF-RHF Final Energy:  -570.45717824589622

   => Energetics <=

    Nuclear Repulsion Energy =            788.4333740097508780
    One-Electron Energy =               -2336.9049754692846363
    Two-Electron Energy =                 978.0144232136375422
    Total Energy =                       -570.4571782458962161
  Basis Set: (AUG-CC-PVTZ AUX)
    Blend: AUG-CC-PVTZ-RI
    Molecular point group: c1

    Geometry (in Angstrom), charge = 0, multiplicity = 1:

       Center              X                  Y                   Z               Mass
    ------------   -----------------  -----------------  -----------------  -----------------
         N           -0.448248011593     1.073457925544    -0.312862915822    14.003074004430
         N            1.051752988407    -0.717337074456    -0.009795915822    14.003074004430
         C           -1.666870011593     0.399358925544    -0.120763915822    12.000000000000
         C            0.848076988407     0.599224925544    -0.151556915822    12.000000000000
         C            3.445782988407    -0.316905074456     0.115938084178    12.000000000000
         C            1.912036988407     1.526079925544    -0.177010915822    12.000000000000
         C            3.207323988407     1.058092925544    -0.039987915822    12.000000000000
         C           -2.775598011593     1.173415925544     0.261300084178    12.000000000000
         C           -1.843483011593    -0.970180074456    -0.376582915822    12.000000000000
         C            2.323531988407    -1.142019074456     0.120529084178    12.000000000000
         C            4.836259988407    -0.869104074456     0.265656084178    12.000000000000
         C           -4.212831911593     0.508583925544     0.429565784178    12.000000000000
         C           -3.105165011593    -1.541748074456    -0.206530915822    12.000000000000
         C           -4.206131011593    -0.773596074456     0.175616084178    12.000000000000
         H           -0.525155011593     2.081785925544    -0.236901915822     1.007825032230
         H            1.716195988407     2.589678925544    -0.299038915822     1.007825032230
         H            4.040063988407     1.760084925544    -0.052912915822     1.007825032230
         H           -2.644636011593     2.236640925544     0.461370084178     1.007825032230
         H           -0.996407011593    -1.572730074456    -0.674714915822     1.007825032230
         H            2.439412988407    -2.220133074456     0.236887084178     1.007825032230
         H            5.452691988407    -0.635621074456    -0.608425915822     1.007825032230
         H            5.336783988407    -0.450724074456     1.144804084178     1.007825032230
         H            4.811791988407    -1.956467074456     0.378778084178     1.007825032230
         H           -4.875306011593     1.210628925544     0.707783084178     1.007825032230
         H           -3.227551011593    -2.605425074456    -0.398571915822     1.007825032230
         H           -5.183662011593    -1.232734074456     0.297613084178     1.007825032230

  Basis Set: AUG-CC-PVTZ
    Blend: AUG-CC-PVTZ
  Basis Set: (AUG-CC-PVTZ AUX)
    Blend: AUG-CC-PVTZ-JKFIT
	 Reference Energy          =    -570.4571782458962161 [Eh]
	 Singles Energy            =      -0.0000000000000000 [Eh]
	 Same-Spin Energy          =      -0.6360048616967940 [Eh]
	 Opposite-Spin Energy      =      -1.9735823036844491 [Eh]
	 Correlation Energy        =      -2.6095871653812432 [Eh]
	 Total Energy              =    -573.0667654112775153 [Eh]

	 ================> DF-SCS-MP2 Energies <==================
	-----------------------------------------------------------
	 SCS Same-Spin Scale       =       0.3333333333333333 [-]
	 SCS Opposite-Spin Scale   =       1.2000000000000000 [-]
	 SCS Same-Spin Energy      =      -0.2120016205655980 [Eh]
	 SCS Opposite-Spin Energy  =      -2.3682987644213389 [Eh]
	 SCS Correlation Energy    =      -2.5803003849869368 [Eh]
	 SCS Total Energy          =    -573.0374786308831290 [Eh]
	-----------------------------------------------------------

  Dipole Moment: [D]
     X:     1.7808      Y:     1.7916      Z:     0.1611     Total:     2.5312

*** Psi4 exiting successfully. Buy a developer a beer!
