                               Psi4 1.4a3.dev225

  ==> Input File <==

--------------------------------------------------------------------------
#psi4
#
memory 32 gb

molecule  {
0 1
  N       -0.4914050     1.0723760    -0.3164170
  N        1.0085960    -0.7184190    -0.0133500
  C       -1.7100270     0.3982770    -0.1243180
  C        0.8049200     0.5981430    -0.1551110
  C        3.4026260    -0.3179870     0.1123840
  C        1.8688800     1.5249980    -0.1805650
  C        3.1641670     1.0570110    -0.0435420
  C       -2.8187550     1.1723340     0.2577460
  C       -1.8614882    -0.7762232    -0.3437053
  C        2.2803750    -1.1431010     0.1169750
  C        4.7931030    -0.8701860     0.2621020
  C       -4.0754850     0.5909990     0.4048790
  C       -3.1483220    -1.5428300    -0.2100850
  C       -4.2492880    -0.7746780     0.1720620
  H       -0.5683120     2.0807040    -0.2404560
  H        1.6730390     2.5885970    -0.3025930
  H        3.9969070     1.7590030    -0.0564670
  H       -2.6877930     2.2355590     0.4578160
  H       -1.0395640    -1.5738120    -0.6782690
  H        2.3962560    -2.2212150     0.2333330
  H        5.4095350    -0.6367030    -0.6119800
  H        5.2936270    -0.4518060     1.1412500
  H        4.7686350    -1.9575490     0.3752240
  H       -4.9184630     1.2095470     0.7042290
  H       -3.2707080    -2.6065070    -0.4021260
  H       -5.2268190    -1.2338160     0.2940590
units angstrom
no_reorient  #important for SAPT in psi4, default
symmetry c1  #important for SAPT in psi4, default
}

set PROPERTIES_ORIGIN ["COM"]
properties('MP2/aug-cc-pvtz', properties = ['dipole'])
--------------------------------------------------------------------------

    Molecular point group: c1
  Charge       = 0
  Multiplicity = 1
  Basis Set: AUG-CC-PVTZ
    Blend: AUG-CC-PVTZ
  Basis Set: (AUG-CC-PVTZ AUX)
    Blend: AUG-CC-PVTZ-JKFIT

    Orbital Energies [Eh]
    ---------------------

    Doubly Occupied:

       1A    -15.581533     2A    -15.549376     3A    -11.320008
       4A    -11.269794     5A    -11.255793     6A    -11.250556
       7A    -11.242051     8A    -11.235777     9A    -11.234932
      10A    -11.233399    11A    -11.232362    12A    -11.226979
      13A    -11.225448    14A    -11.209025    15A     -1.291766
      16A     -1.222194    17A     -1.141940    18A     -1.094094
      19A     -1.049200    20A     -1.015102    21A     -0.993628
      22A     -0.934653    23A     -0.864898    24A     -0.847751
      25A     -0.827092    26A     -0.786566    27A     -0.721503
      28A     -0.716322    29A     -0.666813    30A     -0.650172
      31A     -0.633461    32A     -0.620375    33A     -0.611241
      34A     -0.594322    35A     -0.587311    36A     -0.571560
      37A     -0.566693    38A     -0.555589    39A     -0.544532
      40A     -0.517069    41A     -0.514853    42A     -0.511832
      43A     -0.468330    44A     -0.451089    45A     -0.401648
      46A     -0.378324    47A     -0.352809    48A     -0.319585
      49A     -0.285336

  @DF-RHF Final Energy:  -570.43822870082568

   => Energetics <=

    Nuclear Repulsion Energy =            793.8747006428318400
    One-Electron Energy =               -2347.8724829810412302
    Two-Electron Energy =                 983.5595536373837149
    Total Energy =                       -570.4382287008256753
  Basis Set: (AUG-CC-PVTZ AUX)
    Blend: AUG-CC-PVTZ-RI
    Molecular point group: c1

    Geometry (in Angstrom), charge = 0, multiplicity = 1:

       Center              X                  Y                   Z               Mass
    ------------   -----------------  -----------------  -----------------  -----------------
         N           -0.461653050981     1.055302419181    -0.313860134462    14.003074004430
         N            1.038347949019    -0.735492580819    -0.010793134462    14.003074004430
         C           -1.680275050981     0.381203419181    -0.121761134462    12.000000000000
         C            0.834671949019     0.581069419181    -0.152554134462    12.000000000000
         C            3.432377949019    -0.335060580819     0.114940865538    12.000000000000
         C            1.898631949019     1.507924419181    -0.178008134462    12.000000000000
         C            3.193918949019     1.039937419181    -0.040985134462    12.000000000000
         C           -2.789003050981     1.155260419181     0.260302865538    12.000000000000
         C           -1.831736250981    -0.793296780819    -0.341148434462    12.000000000000
         C            2.310126949019    -1.160174580819     0.119531865538    12.000000000000
         C            4.822854949019    -0.887259580819     0.264658865538    12.000000000000
         C           -4.045733050981     0.573925419181     0.407435865538    12.000000000000
         C           -3.118570050981    -1.559903580819    -0.207528134462    12.000000000000
         C           -4.219536050981    -0.791751580819     0.174618865538    12.000000000000
         H           -0.538560050981     2.063630419181    -0.237899134462     1.007825032230
         H            1.702790949019     2.571523419181    -0.300036134462     1.007825032230
         H            4.026658949019     1.741929419181    -0.053910134462     1.007825032230
         H           -2.658041050981     2.218485419181     0.460372865538     1.007825032230
         H           -1.009812050981    -1.590885580819    -0.675712134462     1.007825032230
         H            2.426007949019    -2.238288580819     0.235889865538     1.007825032230
         H            5.439286949019    -0.653776580819    -0.609423134462     1.007825032230
         H            5.323378949019    -0.468879580819     1.143806865538     1.007825032230
         H            4.798386949019    -1.974622580819     0.377780865538     1.007825032230
         H           -4.888711050981     1.192473419181     0.706785865538     1.007825032230
         H           -3.240956050981    -2.623580580819    -0.399569134462     1.007825032230
         H           -5.197067050981    -1.250889580819     0.296615865538     1.007825032230

  Basis Set: AUG-CC-PVTZ
    Blend: AUG-CC-PVTZ
  Basis Set: (AUG-CC-PVTZ AUX)
    Blend: AUG-CC-PVTZ-JKFIT
	 Reference Energy          =    -570.4382287008256753 [Eh]
	 Singles Energy            =      -0.0000000000000000 [Eh]
	 Same-Spin Energy          =      -0.6359013803854952 [Eh]
	 Opposite-Spin Energy      =      -1.9724611183486553 [Eh]
	 Correlation Energy        =      -2.6083624987341505 [Eh]
	 Total Energy              =    -573.0465911995597708 [Eh]

	 ================> DF-SCS-MP2 Energies <==================
	-----------------------------------------------------------
	 SCS Same-Spin Scale       =       0.3333333333333333 [-]
	 SCS Opposite-Spin Scale   =       1.2000000000000000 [-]
	 SCS Same-Spin Energy      =      -0.2119671267951651 [Eh]
	 SCS Opposite-Spin Energy  =      -2.3669533420183861 [Eh]
	 SCS Correlation Energy    =      -2.5789204688135512 [Eh]
	 SCS Total Energy          =    -573.0171491696391968 [Eh]
	-----------------------------------------------------------

  Dipole Moment: [D]
     X:     1.4115      Y:     1.6968      Z:     0.1964     Total:     2.2158

*** Psi4 exiting successfully. Buy a developer a beer!
