                               Psi4 1.4a3.dev225

  ==> Input File <==

--------------------------------------------------------------------------
#psi4
#
memory 32 gb

molecule  {
0 1
  N       -0.4914050     1.0723760    -0.3164170
  N        1.0085960    -0.7184190    -0.0133500
  C       -1.7100270     0.3982770    -0.1243180
  C        0.8049200     0.5981430    -0.1551110
  C        3.4026260    -0.3179870     0.1123840
  C        1.8688800     1.5249980    -0.1805650
  C        3.1302035     1.2528509    -0.0657504
  C       -2.8187550     1.1723340     0.2577460
  C       -1.8866400    -0.9712620    -0.3801370
  C        2.2803750    -1.1431010     0.1169750
  C        4.7931030    -0.8701860     0.2621020
  C       -4.0754850     0.5909990     0.4048790
  C       -3.1483220    -1.5428300    -0.2100850
  C       -4.2492880    -0.7746780     0.1720620
  H       -0.5683120     2.0807040    -0.2404560
  H        1.6730390     2.5885970    -0.3025930
  H        3.9969070     1.7590030    -0.0564670
  H       -2.6877930     2.2355590     0.4578160
  H       -1.0395640    -1.5738120    -0.6782690
  H        2.3962560    -2.2212150     0.2333330
  H        5.4095350    -0.6367030    -0.6119800
  H        5.2936270    -0.4518060     1.1412500
  H        4.7686350    -1.9575490     0.3752240
  H       -4.9184630     1.2095470     0.7042290
  H       -3.2707080    -2.6065070    -0.4021260
  H       -5.2268190    -1.2338160     0.2940590
units angstrom
no_reorient  #important for SAPT in psi4, default
symmetry c1  #important for SAPT in psi4, default
}

set PROPERTIES_ORIGIN ["COM"]
properties('MP2/aug-cc-pvtz', properties = ['dipole'])
--------------------------------------------------------------------------

    Molecular point group: c1
  Charge       = 0
  Multiplicity = 1
  Basis Set: AUG-CC-PVTZ
    Blend: AUG-CC-PVTZ
  Basis Set: (AUG-CC-PVTZ AUX)
    Blend: AUG-CC-PVTZ-JKFIT

    Orbital Energies [Eh]
    ---------------------

    Doubly Occupied:

       1A    -15.594640     2A    -15.548487     3A    -11.328864
       4A    -11.282704     5A    -11.260910     6A    -11.260006
       7A    -11.244836     8A    -11.239055     9A    -11.235039
      10A    -11.231362    11A    -11.230777    12A    -11.226714
      13A    -11.223297    14A    -11.220064    15A     -1.293950
      16A     -1.216581    17A     -1.134091    18A     -1.094143
      19A     -1.046233    20A     -1.009440    21A     -0.998422
      22A     -0.930515    23A     -0.870169    24A     -0.836456
      25A     -0.817468    26A     -0.802205    27A     -0.731388
      28A     -0.716160    29A     -0.676532    30A     -0.653279
      31A     -0.640910    32A     -0.623563    33A     -0.601197
      34A     -0.594248    35A     -0.587424    36A     -0.582091
      37A     -0.577454    38A     -0.567584    39A     -0.543206
      40A     -0.513831    41A     -0.506303    42A     -0.490196
      43A     -0.473109    44A     -0.451841    45A     -0.408384
      46A     -0.394691    47A     -0.333644    48A     -0.327772
      49A     -0.275248

  @DF-RHF Final Energy:  -570.45828940723959

   => Energetics <=

    Nuclear Repulsion Energy =            788.8745406614907552
    One-Electron Energy =               -2337.7726924568592040
    Two-Electron Energy =                 978.4398623881288586
    Total Energy =                       -570.4582894072395902
  Basis Set: (AUG-CC-PVTZ AUX)
    Blend: AUG-CC-PVTZ-RI
    Molecular point group: c1

    Geometry (in Angstrom), charge = 0, multiplicity = 1:

       Center              X                  Y                   Z               Mass
    ------------   -----------------  -----------------  -----------------  -----------------
         N           -0.457799800500     1.055250201922    -0.310037858444    14.003074004430
         N            1.042201199500    -0.735544798078    -0.006970858444    14.003074004430
         C           -1.676421800500     0.381151201922    -0.117938858444    12.000000000000
         C            0.838525199500     0.581017201922    -0.148731858444    12.000000000000
         C            3.436231199500    -0.335112798078     0.118763141556    12.000000000000
         C            1.902485199500     1.507872201922    -0.174185858444    12.000000000000
         C            3.163808699500     1.235725101922    -0.059371258444    12.000000000000
         C           -2.785149800500     1.155208201922     0.264125141556    12.000000000000
         C           -1.853034800500    -0.988387798078    -0.373757858444    12.000000000000
         C            2.313980199500    -1.160226798078     0.123354141556    12.000000000000
         C            4.826708199500    -0.887311798078     0.268481141556    12.000000000000
         C           -4.041879800500     0.573873201922     0.411258141556    12.000000000000
         C           -3.114716800500    -1.559955798078    -0.203705858444    12.000000000000
         C           -4.215682800500    -0.791803798078     0.178441141556    12.000000000000
         H           -0.534706800500     2.063578201922    -0.234076858444     1.007825032230
         H            1.706644199500     2.571471201922    -0.296213858444     1.007825032230
         H            4.030512199500     1.741877201922    -0.050087858444     1.007825032230
         H           -2.654187800500     2.218433201922     0.464195141556     1.007825032230
         H           -1.005958800500    -1.590937798078    -0.671889858444     1.007825032230
         H            2.429861199500    -2.238340798078     0.239712141556     1.007825032230
         H            5.443140199500    -0.653828798078    -0.605600858444     1.007825032230
         H            5.327232199500    -0.468931798078     1.147629141556     1.007825032230
         H            4.802240199500    -1.974674798078     0.381603141556     1.007825032230
         H           -4.884857800500     1.192421201922     0.710608141556     1.007825032230
         H           -3.237102800500    -2.623632798078    -0.395746858444     1.007825032230
         H           -5.193213800500    -1.250941798078     0.300438141556     1.007825032230

  Basis Set: AUG-CC-PVTZ
    Blend: AUG-CC-PVTZ
  Basis Set: (AUG-CC-PVTZ AUX)
    Blend: AUG-CC-PVTZ-JKFIT
	 Reference Energy          =    -570.4582894072395902 [Eh]
	 Singles Energy            =      -0.0000000000000000 [Eh]
	 Same-Spin Energy          =      -0.6355788442611616 [Eh]
	 Opposite-Spin Energy      =      -1.9729907039106509 [Eh]
	 Correlation Energy        =      -2.6085695481718125 [Eh]
	 Total Energy              =    -573.0668589554113623 [Eh]

	 ================> DF-SCS-MP2 Energies <==================
	-----------------------------------------------------------
	 SCS Same-Spin Scale       =       0.3333333333333333 [-]
	 SCS Opposite-Spin Scale   =       1.2000000000000000 [-]
	 SCS Same-Spin Energy      =      -0.2118596147537205 [Eh]
	 SCS Opposite-Spin Energy  =      -2.3675888446927811 [Eh]
	 SCS Correlation Energy    =      -2.5794484594465015 [Eh]
	 SCS Total Energy          =    -573.0377378666861432 [Eh]
	-----------------------------------------------------------

  Dipole Moment: [D]
     X:     1.7118      Y:     2.0230      Z:     0.1461     Total:     2.6541

*** Psi4 exiting successfully. Buy a developer a beer!
