                               Psi4 1.4a3.dev225

  ==> Input File <==

--------------------------------------------------------------------------
#psi4
#
memory 32 gb

molecule  {
0 1
  N       -0.4914050     1.0723760    -0.3164170
  N        1.0085960    -0.7184190    -0.0133500
  C       -1.7100270     0.3982770    -0.1243180
  C        0.8049200     0.5981430    -0.1551110
  C        3.4026260    -0.3179870     0.1123840
  C        1.8688800     1.5249980    -0.1805650
  C        3.1641670     1.0570110    -0.0435420
  C       -2.8187550     1.1723340     0.2577460
  C       -1.8803520    -0.9225023    -0.3710291
  C        2.2803750    -1.1431010     0.1169750
  C        4.7931030    -0.8701860     0.2621020
  C       -4.0754850     0.5909990     0.4048790
  C       -3.1483220    -1.5428300    -0.2100850
  C       -4.2492880    -0.7746780     0.1720620
  H       -0.5683120     2.0807040    -0.2404560
  H        1.6730390     2.5885970    -0.3025930
  H        3.9969070     1.7590030    -0.0564670
  H       -2.6877930     2.2355590     0.4578160
  H       -1.0395640    -1.5738120    -0.6782690
  H        2.3962560    -2.2212150     0.2333330
  H        5.4095350    -0.6367030    -0.6119800
  H        5.2936270    -0.4518060     1.1412500
  H        4.7686350    -1.9575490     0.3752240
  H       -4.9184630     1.2095470     0.7042290
  H       -3.2707080    -2.6065070    -0.4021260
  H       -5.2268190    -1.2338160     0.2940590
units angstrom
no_reorient  #important for SAPT in psi4, default
symmetry c1  #important for SAPT in psi4, default
}

set PROPERTIES_ORIGIN ["COM"]
properties('MP2/aug-cc-pvtz', properties = ['dipole'])
--------------------------------------------------------------------------

    Molecular point group: c1
  Charge       = 0
  Multiplicity = 1
  Basis Set: AUG-CC-PVTZ
    Blend: AUG-CC-PVTZ
  Basis Set: (AUG-CC-PVTZ AUX)
    Blend: AUG-CC-PVTZ-JKFIT

    Orbital Energies [Eh]
    ---------------------

    Doubly Occupied:

       1A    -15.587381     2A    -15.552676     3A    -11.322271
       4A    -11.274503     5A    -11.272054     6A    -11.257804
       7A    -11.238127     8A    -11.234596     9A    -11.233808
      10A    -11.233285    11A    -11.229868    12A    -11.228457
      13A    -11.222353    14A    -11.216624    15A     -1.292653
      16A     -1.220246    17A     -1.134520    18A     -1.096261
      19A     -1.045980    20A     -1.005756    21A     -0.996625
      22A     -0.934911    23A     -0.867576    24A     -0.841325
      25A     -0.824257    26A     -0.795665    27A     -0.722580
      28A     -0.716538    29A     -0.668522    30A     -0.652889
      31A     -0.636271    32A     -0.620451    33A     -0.599881
      34A     -0.594064    35A     -0.588161    36A     -0.575892
      37A     -0.569311    38A     -0.561330    39A     -0.546248
      40A     -0.517765    41A     -0.511492    42A     -0.504125
      43A     -0.488360    44A     -0.453439    45A     -0.412060
      46A     -0.380680    47A     -0.338228    48A     -0.328276
      49A     -0.279262

  @DF-RHF Final Energy:  -570.49603863026596

   => Energetics <=

    Nuclear Repulsion Energy =            791.4792013866706384
    One-Electron Energy =               -2343.0996610903262081
    Two-Electron Energy =                 981.1244210733896125
    Total Energy =                       -570.4960386302659572
  Basis Set: (AUG-CC-PVTZ AUX)
    Blend: AUG-CC-PVTZ-RI
    Molecular point group: c1

    Geometry (in Angstrom), charge = 0, multiplicity = 1:

       Center              X                  Y                   Z               Mass
    ------------   -----------------  -----------------  -----------------  -----------------
         N           -0.460423471728     1.064837176045    -0.312079115919    14.003074004430
         N            1.039577528272    -0.725957823955    -0.009012115919    14.003074004430
         C           -1.679045471728     0.390738176045    -0.119980115919    12.000000000000
         C            0.835901528272     0.590604176045    -0.150773115919    12.000000000000
         C            3.433607528272    -0.325525823955     0.116721884081    12.000000000000
         C            1.899861528272     1.517459176045    -0.176227115919    12.000000000000
         C            3.195148528272     1.049472176045    -0.039204115919    12.000000000000
         C           -2.787773471728     1.164795176045     0.262083884081    12.000000000000
         C           -1.849370471728    -0.930041123955    -0.366691215919    12.000000000000
         C            2.311356528272    -1.150639823955     0.121312884081    12.000000000000
         C            4.824084528272    -0.877724823955     0.266439884081    12.000000000000
         C           -4.044503471728     0.583460176045     0.409216884081    12.000000000000
         C           -3.117340471728    -1.550368823955    -0.205747115919    12.000000000000
         C           -4.218306471728    -0.782216823955     0.176399884081    12.000000000000
         H           -0.537330471728     2.073165176045    -0.236118115919     1.007825032230
         H            1.704020528272     2.581058176045    -0.298255115919     1.007825032230
         H            4.027888528272     1.751464176045    -0.052129115919     1.007825032230
         H           -2.656811471728     2.228020176045     0.462153884081     1.007825032230
         H           -1.008582471728    -1.581350823955    -0.673931115919     1.007825032230
         H            2.427237528272    -2.228753823955     0.237670884081     1.007825032230
         H            5.440516528272    -0.644241823955    -0.607642115919     1.007825032230
         H            5.324608528272    -0.459344823955     1.145587884081     1.007825032230
         H            4.799616528272    -1.965087823955     0.379561884081     1.007825032230
         H           -4.887481471728     1.202008176045     0.708566884081     1.007825032230
         H           -3.239726471728    -2.614045823955    -0.397788115919     1.007825032230
         H           -5.195837471728    -1.241354823955     0.298396884081     1.007825032230

  Basis Set: AUG-CC-PVTZ
    Blend: AUG-CC-PVTZ
  Basis Set: (AUG-CC-PVTZ AUX)
    Blend: AUG-CC-PVTZ-JKFIT
	 Reference Energy          =    -570.4960386302659572 [Eh]
	 Singles Energy            =      -0.0000000000000000 [Eh]
	 Same-Spin Energy          =      -0.6363952612889303 [Eh]
	 Opposite-Spin Energy      =      -1.9709411220205366 [Eh]
	 Correlation Energy        =      -2.6073363833094669 [Eh]
	 Total Energy              =    -573.1033750135753735 [Eh]

	 ================> DF-SCS-MP2 Energies <==================
	-----------------------------------------------------------
	 SCS Same-Spin Scale       =       0.3333333333333333 [-]
	 SCS Opposite-Spin Scale   =       1.2000000000000000 [-]
	 SCS Same-Spin Energy      =      -0.2121317537629768 [Eh]
	 SCS Opposite-Spin Energy  =      -2.3651293464246437 [Eh]
	 SCS Correlation Energy    =      -2.5772611001876204 [Eh]
	 SCS Total Energy          =    -573.0732997304535274 [Eh]
	-----------------------------------------------------------

  Dipole Moment: [D]
     X:     1.7766      Y:     1.8218      Z:     0.1700     Total:     2.5503

*** Psi4 exiting successfully. Buy a developer a beer!
