                               Psi4 1.4a3.dev225

  ==> Input File <==

--------------------------------------------------------------------------
#psi4
#
memory 32 gb

molecule  {
0 1
  N       -0.4914050     1.0723760    -0.3164170
  N        1.0085960    -0.7184190    -0.0133500
  C       -1.7100270     0.3982770    -0.1243180
  C        0.8049200     0.5981430    -0.1551110
  C        3.4026260    -0.3179870     0.1123840
  C        1.8688800     1.5249980    -0.1805650
  C        3.1641670     1.0570110    -0.0435420
  C       -2.8187550     1.1723340     0.2577460
  C       -1.8866400    -0.9712620    -0.3801370
  C        2.2803750    -1.1431010     0.1169750
  C        4.7931030    -0.8701860     0.2621020
  C       -4.0935354     0.5826493     0.4069923
  C       -3.1483220    -1.5428300    -0.2100850
  C       -4.2492880    -0.7746780     0.1720620
  H       -0.5683120     2.0807040    -0.2404560
  H        1.6730390     2.5885970    -0.3025930
  H        3.9969070     1.7590030    -0.0564670
  H       -2.6877930     2.2355590     0.4578160
  H       -1.0395640    -1.5738120    -0.6782690
  H        2.3962560    -2.2212150     0.2333330
  H        5.4095350    -0.6367030    -0.6119800
  H        5.2936270    -0.4518060     1.1412500
  H        4.7686350    -1.9575490     0.3752240
  H       -4.9184630     1.2095470     0.7042290
  H       -3.2707080    -2.6065070    -0.4021260
  H       -5.2268190    -1.2338160     0.2940590
units angstrom
no_reorient  #important for SAPT in psi4, default
symmetry c1  #important for SAPT in psi4, default
}

set PROPERTIES_ORIGIN ["COM"]
properties('MP2/aug-cc-pvtz', properties = ['dipole'])
--------------------------------------------------------------------------

    Molecular point group: c1
  Charge       = 0
  Multiplicity = 1
  Basis Set: AUG-CC-PVTZ
    Blend: AUG-CC-PVTZ
  Basis Set: (AUG-CC-PVTZ AUX)
    Blend: AUG-CC-PVTZ-JKFIT

    Orbital Energies [Eh]
    ---------------------

    Doubly Occupied:

       1A    -15.588910     2A    -15.553687     3A    -11.322967
       4A    -11.280892     5A    -11.272768     6A    -11.258423
       7A    -11.238783     8A    -11.235242     9A    -11.233970
      10A    -11.230540    11A    -11.230136    12A    -11.228895
      13A    -11.220900    14A    -11.219096    15A     -1.293037
      16A     -1.219964    17A     -1.132006    18A     -1.096912
      19A     -1.046199    20A     -1.006150    21A     -0.993949
      22A     -0.934705    23A     -0.868471    24A     -0.841183
      25A     -0.822006    26A     -0.797613    27A     -0.723928
      28A     -0.715574    29A     -0.670240    30A     -0.653451
      31A     -0.637333    32A     -0.620924    33A     -0.597141
      34A     -0.594365    35A     -0.588515    36A     -0.578103
      37A     -0.569375    38A     -0.562833    39A     -0.546705
      40A     -0.518665    41A     -0.510483    42A     -0.502169
      43A     -0.490097    44A     -0.454111    45A     -0.414366
      46A     -0.381395    47A     -0.336944    48A     -0.328728
      49A     -0.277484

  @DF-RHF Final Energy:  -570.49835237604009

   => Energetics <=

    Nuclear Repulsion Energy =            790.5133759344437294
    One-Electron Energy =               -2341.1428017344246655
    Two-Electron Energy =                 980.1310734239408475
    Total Energy =                       -570.4983523760400885
  Basis Set: (AUG-CC-PVTZ AUX)
    Blend: AUG-CC-PVTZ-RI
    Molecular point group: c1

    Geometry (in Angstrom), charge = 0, multiplicity = 1:

       Center              X                  Y                   Z               Mass
    ------------   -----------------  -----------------  -----------------  -----------------
         N           -0.458837047376     1.068559678054    -0.311623194257    14.003074004430
         N            1.041163952624    -0.722235321946    -0.008556194257    14.003074004430
         C           -1.677459047376     0.394460678054    -0.119524194257    12.000000000000
         C            0.837487952624     0.594326678054    -0.150317194257    12.000000000000
         C            3.435193952624    -0.321803321946     0.117177805743    12.000000000000
         C            1.901447952624     1.521181678054    -0.175771194257    12.000000000000
         C            3.196734952624     1.053194678054    -0.038748194257    12.000000000000
         C           -2.786187047376     1.168517678054     0.262539805743    12.000000000000
         C           -1.854072047376    -0.975078321946    -0.375343194257    12.000000000000
         C            2.312942952624    -1.146917321946     0.121768805743    12.000000000000
         C            4.825670952624    -0.874002321946     0.266895805743    12.000000000000
         C           -4.060967447376     0.578832978054     0.411786105743    12.000000000000
         C           -3.115754047376    -1.546646321946    -0.205291194257    12.000000000000
         C           -4.216720047376    -0.778494321946     0.176855805743    12.000000000000
         H           -0.535744047376     2.076887678054    -0.235662194257     1.007825032230
         H            1.705606952624     2.584780678054    -0.297799194257     1.007825032230
         H            4.029474952624     1.755186678054    -0.051673194257     1.007825032230
         H           -2.655225047376     2.231742678054     0.462609805743     1.007825032230
         H           -1.006996047376    -1.577628321946    -0.673475194257     1.007825032230
         H            2.428823952624    -2.225031321946     0.238126805743     1.007825032230
         H            5.442102952624    -0.640519321946    -0.607186194257     1.007825032230
         H            5.326194952624    -0.455622321946     1.146043805743     1.007825032230
         H            4.801202952624    -1.961365321946     0.380017805743     1.007825032230
         H           -4.885895047376     1.205730678054     0.709022805743     1.007825032230
         H           -3.238140047376    -2.610323321946    -0.397332194257     1.007825032230
         H           -5.194251047376    -1.237632321946     0.298852805743     1.007825032230

  Basis Set: AUG-CC-PVTZ
    Blend: AUG-CC-PVTZ
  Basis Set: (AUG-CC-PVTZ AUX)
    Blend: AUG-CC-PVTZ-JKFIT
	 Reference Energy          =    -570.4983523760400885 [Eh]
	 Singles Energy            =      -0.0000000000000000 [Eh]
	 Same-Spin Energy          =      -0.6363946396073669 [Eh]
	 Opposite-Spin Energy      =      -1.9709685861108348 [Eh]
	 Correlation Energy        =      -2.6073632257182018 [Eh]
	 Total Energy              =    -573.1057156017583338 [Eh]

	 ================> DF-SCS-MP2 Energies <==================
	-----------------------------------------------------------
	 SCS Same-Spin Scale       =       0.3333333333333333 [-]
	 SCS Opposite-Spin Scale   =       1.2000000000000000 [-]
	 SCS Same-Spin Energy      =      -0.2121315465357889 [Eh]
	 SCS Opposite-Spin Energy  =      -2.3651623033330016 [Eh]
	 SCS Correlation Energy    =      -2.5772938498687905 [Eh]
	 SCS Total Energy          =    -573.0756462259088266 [Eh]
	-----------------------------------------------------------

  Dipole Moment: [D]
     X:     1.8623      Y:     1.8484      Z:     0.1629     Total:     2.6289

*** Psi4 exiting successfully. Buy a developer a beer!
