                               Psi4 1.4a3.dev225

  ==> Input File <==

--------------------------------------------------------------------------
#psi4
#
memory 32 gb

molecule  {
0 1
  N       -0.4914050     1.0723760    -0.3164170
  N        1.0085960    -0.7184190    -0.0133500
  C       -1.7100270     0.3982770    -0.1243180
  C        0.8049200     0.5981430    -0.1551110
  C        3.4026260    -0.3179870     0.1123840
  C        1.8688800     1.5249980    -0.1805650
  C        3.1641670     1.0570110    -0.0435420
  C       -2.8187550     1.1723340     0.2577460
  C       -1.8866400    -0.9712620    -0.3801370
  C        2.2803750    -1.1431010     0.1169750
  C        4.7931030    -0.8701860     0.2621020
  C       -4.0754850     0.5909990     0.4048790
  C       -3.1483220    -1.5428300    -0.2100850
  C       -4.2492880    -0.7746780     0.1720620
  H       -0.5683120     2.0807040    -0.2404560
  H        1.6730390     2.5885970    -0.3025930
  H        3.9969070     1.7590030    -0.0564670
  H       -2.6877930     2.2355590     0.4578160
  H       -1.0395640    -1.5738120    -0.6782690
  H        2.3962560    -2.2212150     0.2333330
  H        5.4095350    -0.6367030    -0.6119800
  H        5.2936270    -0.4518060     1.1412500
  H        4.7686350    -1.9575490     0.3752240
  H       -4.9184630     1.2095470     0.7042290
  H       -3.2684578    -2.5869502    -0.3985951
  H       -5.2268190    -1.2338160     0.2940590
units angstrom
no_reorient  #important for SAPT in psi4, default
symmetry c1  #important for SAPT in psi4, default
}

set PROPERTIES_ORIGIN ["COM"]
properties('MP2/aug-cc-pvtz', properties = ['dipole'])
--------------------------------------------------------------------------

    Molecular point group: c1
  Charge       = 0
  Multiplicity = 1
  Basis Set: AUG-CC-PVTZ
    Blend: AUG-CC-PVTZ
  Basis Set: (AUG-CC-PVTZ AUX)
    Blend: AUG-CC-PVTZ-JKFIT

    Orbital Energies [Eh]
    ---------------------

    Doubly Occupied:

       1A    -15.589050     2A    -15.553688     3A    -11.322954
       4A    -11.280805     5A    -11.272749     6A    -11.258416
       7A    -11.238822     8A    -11.235271     9A    -11.233592
      10A    -11.228906    11A    -11.228524    12A    -11.227943
      13A    -11.221249    14A    -11.218229    15A     -1.293070
      16A     -1.220066    17A     -1.132819    18A     -1.096917
      19A     -1.045969    20A     -1.008495    21A     -0.993064
      22A     -0.934886    23A     -0.868500    24A     -0.841344
      25A     -0.822171    26A     -0.797949    27A     -0.723673
      28A     -0.716525    29A     -0.670491    30A     -0.653601
      31A     -0.637422    32A     -0.621528    33A     -0.595625
      34A     -0.593935    35A     -0.588628    36A     -0.580655
      37A     -0.569321    38A     -0.562679    39A     -0.546757
      40A     -0.519118    41A     -0.511040    42A     -0.504418
      43A     -0.488151    44A     -0.454031    45A     -0.414331
      46A     -0.381383    47A     -0.336510    48A     -0.330378
      49A     -0.276849

  @DF-RHF Final Energy:  -570.49906833327657

   => Energetics <=

    Nuclear Repulsion Energy =            790.8708088367195614
    One-Electron Energy =               -2341.8547633967846195
    Two-Electron Energy =                 980.4848862267884897
    Total Energy =                       -570.4990683332765684
  Basis Set: (AUG-CC-PVTZ AUX)
    Blend: AUG-CC-PVTZ-RI
    Molecular point group: c1

    Geometry (in Angstrom), charge = 0, multiplicity = 1:

       Center              X                  Y                   Z               Mass
    ------------   -----------------  -----------------  -----------------  -----------------
         N           -0.460025925976     1.067908367890    -0.311504774567    14.003074004430
         N            1.039975074024    -0.722886632110    -0.008437774567    14.003074004430
         C           -1.678647925976     0.393809367890    -0.119405774567    12.000000000000
         C            0.836299074024     0.593675367890    -0.150198774567    12.000000000000
         C            3.434005074024    -0.322454632110     0.117296225433    12.000000000000
         C            1.900259074024     1.520530367890    -0.175652774567    12.000000000000
         C            3.195546074024     1.052543367890    -0.038629774567    12.000000000000
         C           -2.787375925976     1.167866367890     0.262658225433    12.000000000000
         C           -1.855260925976    -0.975729632110    -0.375224774567    12.000000000000
         C            2.311754074024    -1.147568632110     0.121887225433    12.000000000000
         C            4.824482074024    -0.874653632110     0.267014225433    12.000000000000
         C           -4.044105925976     0.586531367890     0.409791225433    12.000000000000
         C           -3.116942925976    -1.547297632110    -0.205172774567    12.000000000000
         C           -4.217908925976    -0.779145632110     0.176974225433    12.000000000000
         H           -0.536932925976     2.076236367890    -0.235543774567     1.007825032230
         H            1.704418074024     2.584129367890    -0.297680774567     1.007825032230
         H            4.028286074024     1.754535367890    -0.051554774567     1.007825032230
         H           -2.656413925976     2.231091367890     0.462728225433     1.007825032230
         H           -1.008184925976    -1.578279632110    -0.673356774567     1.007825032230
         H            2.427635074024    -2.225682632110     0.238245225433     1.007825032230
         H            5.440914074024    -0.641170632110    -0.607067774567     1.007825032230
         H            5.325006074024    -0.456273632110     1.146162225433     1.007825032230
         H            4.800014074024    -1.962016632110     0.380136225433     1.007825032230
         H           -4.887083925976     1.205079367890     0.709141225433     1.007825032230
         H           -3.237078725976    -2.591417832110    -0.393682874567     1.007825032230
         H           -5.195439925976    -1.238283632110     0.298971225433     1.007825032230

  Basis Set: AUG-CC-PVTZ
    Blend: AUG-CC-PVTZ
  Basis Set: (AUG-CC-PVTZ AUX)
    Blend: AUG-CC-PVTZ-JKFIT
	 Reference Energy          =    -570.4990683332765684 [Eh]
	 Singles Energy            =      -0.0000000000000000 [Eh]
	 Same-Spin Energy          =      -0.6363804485502518 [Eh]
	 Opposite-Spin Energy      =      -1.9707528005317754 [Eh]
	 Correlation Energy        =      -2.6071332490820271 [Eh]
	 Total Energy              =    -573.1062015823586080 [Eh]

	 ================> DF-SCS-MP2 Energies <==================
	-----------------------------------------------------------
	 SCS Same-Spin Scale       =       0.3333333333333333 [-]
	 SCS Opposite-Spin Scale   =       1.2000000000000000 [-]
	 SCS Same-Spin Energy      =      -0.2121268161834172 [Eh]
	 SCS Opposite-Spin Energy  =      -2.3649033606381304 [Eh]
	 SCS Correlation Energy    =      -2.5770301768215478 [Eh]
	 SCS Total Energy          =    -573.0760985100980633 [Eh]
	-----------------------------------------------------------

  Dipole Moment: [D]
     X:     1.8668      Y:     1.8457      Z:     0.1616     Total:     2.6301

*** Psi4 exiting successfully. Buy a developer a beer!
