                               Psi4 1.4a3.dev225

  ==> Input File <==

--------------------------------------------------------------------------
#psi4
#
memory 32 gb

molecule  {
0 1
  N       -0.4914050     1.0723760    -0.3164170
  N        1.0085960    -0.7184190    -0.0133500
  C       -1.7100270     0.3982770    -0.1243180
  C        0.8049200     0.5981430    -0.1551110
  C        3.4026260    -0.3179870     0.1123840
  C        1.8688800     1.5249980    -0.1805650
  C        3.1641670     1.0570110    -0.0435420
  C       -2.9765655     1.2825092     0.3121270
  C       -1.8866400    -0.9712620    -0.3801370
  C        2.2803750    -1.1431010     0.1169750
  C        4.7931030    -0.8701860     0.2621020
  C       -4.0754850     0.5909990     0.4048790
  C       -3.1483220    -1.5428300    -0.2100850
  C       -4.2492880    -0.7746780     0.1720620
  H       -0.5683120     2.0807040    -0.2404560
  H        1.6730390     2.5885970    -0.3025930
  H        3.9969070     1.7590030    -0.0564670
  H       -2.6877930     2.2355590     0.4578160
  H       -1.0395640    -1.5738120    -0.6782690
  H        2.3962560    -2.2212150     0.2333330
  H        5.4095350    -0.6367030    -0.6119800
  H        5.2936270    -0.4518060     1.1412500
  H        4.7686350    -1.9575490     0.3752240
  H       -4.9184630     1.2095470     0.7042290
  H       -3.2707080    -2.6065070    -0.4021260
  H       -5.2268190    -1.2338160     0.2940590
units angstrom
no_reorient  #important for SAPT in psi4, default
symmetry c1  #important for SAPT in psi4, default
}

set PROPERTIES_ORIGIN ["COM"]
properties('MP2/aug-cc-pvtz', properties = ['dipole'])
--------------------------------------------------------------------------

    Molecular point group: c1
  Charge       = 0
  Multiplicity = 1
  Basis Set: AUG-CC-PVTZ
    Blend: AUG-CC-PVTZ
  Basis Set: (AUG-CC-PVTZ AUX)
    Blend: AUG-CC-PVTZ-JKFIT

    Orbital Energies [Eh]
    ---------------------

    Doubly Occupied:

       1A    -15.594480     2A    -15.555176     3A    -11.324232
       4A    -11.294886     5A    -11.273628     6A    -11.259423
       7A    -11.240626     8A    -11.236864     9A    -11.232703
      10A    -11.231870    11A    -11.229841    12A    -11.224604
      13A    -11.217393    14A    -11.212411    15A     -1.293606
      16A     -1.218284    17A     -1.129484    18A     -1.098103
      19A     -1.045118    20A     -1.022865    21A     -0.979991
      22A     -0.935666    23A     -0.870862    24A     -0.839499
      25A     -0.826438    26A     -0.792038    27A     -0.724101
      28A     -0.711865    29A     -0.688665    30A     -0.656740
      31A     -0.641551    32A     -0.615266    33A     -0.604032
      34A     -0.591852    35A     -0.590387    36A     -0.575268
      37A     -0.569159    38A     -0.557884    39A     -0.547943
      40A     -0.521950    41A     -0.515386    42A     -0.504636
      43A     -0.465917    44A     -0.449798    45A     -0.413145
      46A     -0.382235    47A     -0.348512    48A     -0.328338
      49A     -0.268043

  @DF-RHF Final Energy:  -570.45804398905182

   => Energetics <=

    Nuclear Repulsion Energy =            787.8664570633312678
    One-Electron Energy =               -2335.7434685770326723
    Two-Electron Energy =                 977.4189675246494744
    Total Energy =                       -570.4580439890518164
  Basis Set: (AUG-CC-PVTZ AUX)
    Blend: AUG-CC-PVTZ-RI
    Molecular point group: c1

    Geometry (in Angstrom), charge = 0, multiplicity = 1:

       Center              X                  Y                   Z               Mass
    ------------   -----------------  -----------------  -----------------  -----------------
         N           -0.449727211639     1.060833994044    -0.315030104823    14.003074004430
         N            1.050273788361    -0.729961005956    -0.011963104823    14.003074004430
         C           -1.668349211639     0.386734994044    -0.122931104823    12.000000000000
         C            0.846597788361     0.586600994044    -0.153724104823    12.000000000000
         C            3.444303788361    -0.329529005956     0.113770895177    12.000000000000
         C            1.910557788361     1.513455994044    -0.179178104823    12.000000000000
         C            3.205844788361     1.045468994044    -0.042155104823    12.000000000000
         C           -2.934887711639     1.270967194044     0.313513895177    12.000000000000
         C           -1.844962211639    -0.982804005956    -0.378750104823    12.000000000000
         C            2.322052788361    -1.154643005956     0.118361895177    12.000000000000
         C            4.834780788361    -0.881728005956     0.263488895177    12.000000000000
         C           -4.033807211639     0.579456994044     0.406265895177    12.000000000000
         C           -3.106644211639    -1.554372005956    -0.208698104823    12.000000000000
         C           -4.207610211639    -0.786220005956     0.173448895177    12.000000000000
         H           -0.526634211639     2.069161994044    -0.239069104823     1.007825032230
         H            1.714716788361     2.577054994044    -0.301206104823     1.007825032230
         H            4.038584788361     1.747460994044    -0.055080104823     1.007825032230
         H           -2.646115211639     2.224016994044     0.459202895177     1.007825032230
         H           -0.997886211639    -1.585354005956    -0.676882104823     1.007825032230
         H            2.437933788361    -2.232757005956     0.234719895177     1.007825032230
         H            5.451212788361    -0.648245005956    -0.610593104823     1.007825032230
         H            5.335304788361    -0.463348005956     1.142636895177     1.007825032230
         H            4.810312788361    -1.969091005956     0.376610895177     1.007825032230
         H           -4.876785211639     1.198004994044     0.705615895177     1.007825032230
         H           -3.229030211639    -2.618049005956    -0.400739104823     1.007825032230
         H           -5.185141211639    -1.245358005956     0.295445895177     1.007825032230

  Basis Set: AUG-CC-PVTZ
    Blend: AUG-CC-PVTZ
  Basis Set: (AUG-CC-PVTZ AUX)
    Blend: AUG-CC-PVTZ-JKFIT
	 Reference Energy          =    -570.4580439890518164 [Eh]
	 Singles Energy            =      -0.0000000000000000 [Eh]
	 Same-Spin Energy          =      -0.6360493359809468 [Eh]
	 Opposite-Spin Energy      =      -1.9728733893473425 [Eh]
	 Correlation Energy        =      -2.6089227253282892 [Eh]
	 Total Energy              =    -573.0669667143801007 [Eh]

	 ================> DF-SCS-MP2 Energies <==================
	-----------------------------------------------------------
	 SCS Same-Spin Scale       =       0.3333333333333333 [-]
	 SCS Opposite-Spin Scale   =       1.2000000000000000 [-]
	 SCS Same-Spin Energy      =      -0.2120164453269823 [Eh]
	 SCS Opposite-Spin Energy  =      -2.3674480672168108 [Eh]
	 SCS Correlation Energy    =      -2.5794645125437929 [Eh]
	 SCS Total Energy          =    -573.0375085015956529 [Eh]
	-----------------------------------------------------------

  Dipole Moment: [D]
     X:     2.1163      Y:     1.9615      Z:     0.1544     Total:     2.8896

*** Psi4 exiting successfully. Buy a developer a beer!
