                               Psi4 1.4a3.dev225

  ==> Input File <==

--------------------------------------------------------------------------
#psi4
#
memory 32 gb

molecule  {
0 1
  N       -0.4807524     1.0510337    -0.3221654
  N        1.0085960    -0.7184190    -0.0133500
  C       -1.7100270     0.3982770    -0.1243180
  C        0.8049200     0.5981430    -0.1551110
  C        3.4026260    -0.3179870     0.1123840
  C        1.8688800     1.5249980    -0.1805650
  C        3.1641670     1.0570110    -0.0435420
  C       -2.8187550     1.1723340     0.2577460
  C       -1.8866400    -0.9712620    -0.3801370
  C        2.2803750    -1.1431010     0.1169750
  C        4.7931030    -0.8701860     0.2621020
  C       -4.0754850     0.5909990     0.4048790
  C       -3.1483220    -1.5428300    -0.2100850
  C       -4.2492880    -0.7746780     0.1720620
  H       -0.5683120     2.0807040    -0.2404560
  H        1.6730390     2.5885970    -0.3025930
  H        3.9969070     1.7590030    -0.0564670
  H       -2.6877930     2.2355590     0.4578160
  H       -1.0395640    -1.5738120    -0.6782690
  H        2.3962560    -2.2212150     0.2333330
  H        5.4095350    -0.6367030    -0.6119800
  H        5.2936270    -0.4518060     1.1412500
  H        4.7686350    -1.9575490     0.3752240
  H       -4.9184630     1.2095470     0.7042290
  H       -3.2707080    -2.6065070    -0.4021260
  H       -5.2268190    -1.2338160     0.2940590
units angstrom
no_reorient  #important for SAPT in psi4, default
symmetry c1  #important for SAPT in psi4, default
}

set PROPERTIES_ORIGIN ["COM"]
properties('MP2/aug-cc-pvtz', properties = ['dipole'])
--------------------------------------------------------------------------

    Molecular point group: c1
  Charge       = 0
  Multiplicity = 1
  Basis Set: AUG-CC-PVTZ
    Blend: AUG-CC-PVTZ
  Basis Set: (AUG-CC-PVTZ AUX)
    Blend: AUG-CC-PVTZ-JKFIT

    Orbital Energies [Eh]
    ---------------------

    Doubly Occupied:

       1A    -15.591221     2A    -15.551930     3A    -11.321711
       4A    -11.281781     5A    -11.272026     6A    -11.257976
       7A    -11.237982     8A    -11.234535     9A    -11.233999
      10A    -11.230642    11A    -11.229953    12A    -11.228214
      13A    -11.222240    14A    -11.218679    15A     -1.295566
      16A     -1.219148    17A     -1.133803    18A     -1.096096
      19A     -1.045779    20A     -1.008715    21A     -0.993900
      22A     -0.933674    23A     -0.868569    24A     -0.842128
      25A     -0.821940    26A     -0.796619    27A     -0.725343
      28A     -0.713938    29A     -0.671105    30A     -0.650747
      31A     -0.636809    32A     -0.621262    33A     -0.595957
      34A     -0.593511    35A     -0.588984    36A     -0.579707
      37A     -0.569726    38A     -0.562301    39A     -0.545871
      40A     -0.518612    41A     -0.510962    42A     -0.504636
      43A     -0.487695    44A     -0.454800    45A     -0.413832
      46A     -0.380845    47A     -0.336702    48A     -0.330962
      49A     -0.276440

  @DF-RHF Final Energy:  -570.49753810584571

   => Energetics <=

    Nuclear Repulsion Energy =            791.0883313106797914
    One-Electron Energy =               -2342.2925926085931678
    Two-Electron Energy =                 980.7067231920677841
    Total Energy =                       -570.4975381058457060
  Basis Set: (AUG-CC-PVTZ AUX)
    Blend: AUG-CC-PVTZ-RI
    Molecular point group: c1

    Geometry (in Angstrom), charge = 0, multiplicity = 1:

       Center              X                  Y                   Z               Mass
    ------------   -----------------  -----------------  -----------------  -----------------
         N           -0.450171268940     1.048296472861    -0.316796608691    14.003074004430
         N            1.039177131060    -0.721156227139    -0.007981208691    14.003074004430
         C           -1.679445868940     0.395539772861    -0.118949208691    12.000000000000
         C            0.835501131060     0.595405772861    -0.149742208691    12.000000000000
         C            3.433207131060    -0.320724227139     0.117752791309    12.000000000000
         C            1.899461131060     1.522260772861    -0.175196208691    12.000000000000
         C            3.194748131060     1.054273772861    -0.038173208691    12.000000000000
         C           -2.788173868940     1.169596772861     0.263114791309    12.000000000000
         C           -1.856058868940    -0.973999227139    -0.374768208691    12.000000000000
         C            2.310956131060    -1.145838227139     0.122343791309    12.000000000000
         C            4.823684131060    -0.872923227139     0.267470791309    12.000000000000
         C           -4.044903868940     0.588261772861     0.410247791309    12.000000000000
         C           -3.117740868940    -1.545567227139    -0.204716208691    12.000000000000
         C           -4.218706868940    -0.777415227139     0.177430791309    12.000000000000
         H           -0.537730868940     2.077966772861    -0.235087208691     1.007825032230
         H            1.703620131060     2.585859772861    -0.297224208691     1.007825032230
         H            4.027488131060     1.756265772861    -0.051098208691     1.007825032230
         H           -2.657211868940     2.232821772861     0.463184791309     1.007825032230
         H           -1.008982868940    -1.576549227139    -0.672900208691     1.007825032230
         H            2.426837131060    -2.223952227139     0.238701791309     1.007825032230
         H            5.440116131060    -0.639440227139    -0.606611208691     1.007825032230
         H            5.324208131060    -0.454543227139     1.146618791309     1.007825032230
         H            4.799216131060    -1.960286227139     0.380592791309     1.007825032230
         H           -4.887881868940     1.206809772861     0.709597791309     1.007825032230
         H           -3.240126868940    -2.609244227139    -0.396757208691     1.007825032230
         H           -5.196237868940    -1.236553227139     0.299427791309     1.007825032230

  Basis Set: AUG-CC-PVTZ
    Blend: AUG-CC-PVTZ
  Basis Set: (AUG-CC-PVTZ AUX)
    Blend: AUG-CC-PVTZ-JKFIT
	 Reference Energy          =    -570.4975381058457060 [Eh]
	 Singles Energy            =      -0.0000000000000000 [Eh]
	 Same-Spin Energy          =      -0.6366340429532023 [Eh]
	 Opposite-Spin Energy      =      -1.9712486901663506 [Eh]
	 Correlation Energy        =      -2.6078827331195527 [Eh]
	 Total Energy              =    -573.1054208389653013 [Eh]

	 ================> DF-SCS-MP2 Energies <==================
	-----------------------------------------------------------
	 SCS Same-Spin Scale       =       0.3333333333333333 [-]
	 SCS Opposite-Spin Scale   =       1.2000000000000000 [-]
	 SCS Same-Spin Energy      =      -0.2122113476510674 [Eh]
	 SCS Opposite-Spin Energy  =      -2.3654984281996208 [Eh]
	 SCS Correlation Energy    =      -2.5777097758506882 [Eh]
	 SCS Total Energy          =    -573.0752478816964413 [Eh]
	-----------------------------------------------------------

  Dipole Moment: [D]
     X:     1.7419      Y:     1.8705      Z:     0.1643     Total:     2.5613

*** Psi4 exiting successfully. Buy a developer a beer!
