                               Psi4 1.4a3.dev225

  ==> Input File <==

--------------------------------------------------------------------------
#psi4
#
memory 32 gb

molecule  {
0 1
  N       -0.4914050     1.0723760    -0.3164170
  N        1.0085960    -0.7184190    -0.0133500
  C       -1.7100270     0.3982770    -0.1243180
  C        0.8049200     0.5981430    -0.1551110
  C        3.4026260    -0.3179870     0.1123840
  C        1.8688800     1.5249980    -0.1805650
  C        3.0211582     1.0236478    -0.0497683
  C       -2.8187550     1.1723340     0.2577460
  C       -1.8866400    -0.9712620    -0.3801370
  C        2.2803750    -1.1431010     0.1169750
  C        4.7931030    -0.8701860     0.2621020
  C       -4.0754850     0.5909990     0.4048790
  C       -3.1483220    -1.5428300    -0.2100850
  C       -4.2492880    -0.7746780     0.1720620
  H       -0.5683120     2.0807040    -0.2404560
  H        1.6730390     2.5885970    -0.3025930
  H        3.9969070     1.7590030    -0.0564670
  H       -2.6877930     2.2355590     0.4578160
  H       -1.0395640    -1.5738120    -0.6782690
  H        2.3962560    -2.2212150     0.2333330
  H        5.4095350    -0.6367030    -0.6119800
  H        5.2936270    -0.4518060     1.1412500
  H        4.7686350    -1.9575490     0.3752240
  H       -4.9184630     1.2095470     0.7042290
  H       -3.2707080    -2.6065070    -0.4021260
  H       -5.2268190    -1.2338160     0.2940590
units angstrom
no_reorient  #important for SAPT in psi4, default
symmetry c1  #important for SAPT in psi4, default
}

set PROPERTIES_ORIGIN ["COM"]
properties('MP2/aug-cc-pvtz', properties = ['dipole'])
--------------------------------------------------------------------------

    Molecular point group: c1
  Charge       = 0
  Multiplicity = 1
  Basis Set: AUG-CC-PVTZ
    Blend: AUG-CC-PVTZ
  Basis Set: (AUG-CC-PVTZ AUX)
    Blend: AUG-CC-PVTZ-JKFIT

    Orbital Energies [Eh]
    ---------------------

    Doubly Occupied:

       1A    -15.592388     2A    -15.549640     3A    -11.325513
       4A    -11.281930     5A    -11.268807     6A    -11.253209
       7A    -11.234765     8A    -11.232444     9A    -11.231228
      10A    -11.231158    11A    -11.230119    12A    -11.227386
      13A    -11.222819    14A    -11.219686    15A     -1.296600
      16A     -1.223647    17A     -1.134054    18A     -1.107973
      19A     -1.056120    20A     -1.009221    21A     -0.998545
      22A     -0.935935    23A     -0.858670    24A     -0.848655
      25A     -0.823718    26A     -0.794265    27A     -0.721183
      28A     -0.716919    29A     -0.675770    30A     -0.656177
      31A     -0.648133    32A     -0.616818    33A     -0.595132
      34A     -0.593340    35A     -0.588761    36A     -0.580174
      37A     -0.569660    38A     -0.546888    39A     -0.545045
      40A     -0.519111    41A     -0.509708    42A     -0.504837
      43A     -0.487392    44A     -0.456809    45A     -0.406390
      46A     -0.398572    47A     -0.336442    48A     -0.331099
      49A     -0.278932

  @DF-RHF Final Energy:  -570.47148984977275

   => Energetics <=

    Nuclear Repulsion Energy =            793.5149392949664389
    One-Electron Energy =               -2347.0292842360049690
    Two-Electron Energy =                 983.0428550912656647
    Total Energy =                       -570.4714898497727518
  Basis Set: (AUG-CC-PVTZ AUX)
    Blend: AUG-CC-PVTZ-RI
    Molecular point group: c1

    Geometry (in Angstrom), charge = 0, multiplicity = 1:

       Center              X                  Y                   Z               Mass
    ------------   -----------------  -----------------  -----------------  -----------------
         N           -0.450692015296     1.070190106740    -0.311079602874    14.003074004430
         N            1.049308984704    -0.720604893260    -0.008012602874    14.003074004430
         C           -1.669314015296     0.396091106740    -0.118980602874    12.000000000000
         C            0.845632984704     0.595957106740    -0.149773602874    12.000000000000
         C            3.443338984704    -0.320172893260     0.117721397126    12.000000000000
         C            1.909592984704     1.522812106740    -0.175227602874    12.000000000000
         C            3.061871184704     1.021461906740    -0.044430902874    12.000000000000
         C           -2.778042015296     1.170148106740     0.263083397126    12.000000000000
         C           -1.845927015296    -0.973447893260    -0.374799602874    12.000000000000
         C            2.321087984704    -1.145286893260     0.122312397126    12.000000000000
         C            4.833815984704    -0.872371893260     0.267439397126    12.000000000000
         C           -4.034772015296     0.588813106740     0.410216397126    12.000000000000
         C           -3.107609015296    -1.545015893260    -0.204747602874    12.000000000000
         C           -4.208575015296    -0.776863893260     0.177399397126    12.000000000000
         H           -0.527599015296     2.078518106740    -0.235118602874     1.007825032230
         H            1.713751984704     2.586411106740    -0.297255602874     1.007825032230
         H            4.037619984704     1.756817106740    -0.051129602874     1.007825032230
         H           -2.647080015296     2.233373106740     0.463153397126     1.007825032230
         H           -0.998851015296    -1.575997893260    -0.672931602874     1.007825032230
         H            2.436968984704    -2.223400893260     0.238670397126     1.007825032230
         H            5.450247984704    -0.638888893260    -0.606642602874     1.007825032230
         H            5.334339984704    -0.453991893260     1.146587397126     1.007825032230
         H            4.809347984704    -1.959734893260     0.380561397126     1.007825032230
         H           -4.877750015296     1.207361106740     0.709566397126     1.007825032230
         H           -3.229995015296    -2.608692893260    -0.396788602874     1.007825032230
         H           -5.186106015296    -1.236001893260     0.299396397126     1.007825032230

  Basis Set: AUG-CC-PVTZ
    Blend: AUG-CC-PVTZ
  Basis Set: (AUG-CC-PVTZ AUX)
    Blend: AUG-CC-PVTZ-JKFIT
	 Reference Energy          =    -570.4714898497727518 [Eh]
	 Singles Energy            =      -0.0000000000000000 [Eh]
	 Same-Spin Energy          =      -0.6361553557132728 [Eh]
	 Opposite-Spin Energy      =      -1.9708764497012052 [Eh]
	 Correlation Energy        =      -2.6070318054144779 [Eh]
	 Total Energy              =    -573.0785216551872736 [Eh]

	 ================> DF-SCS-MP2 Energies <==================
	-----------------------------------------------------------
	 SCS Same-Spin Scale       =       0.3333333333333333 [-]
	 SCS Opposite-Spin Scale   =       1.2000000000000000 [-]
	 SCS Same-Spin Energy      =      -0.2120517852377576 [Eh]
	 SCS Opposite-Spin Energy  =      -2.3650517396414461 [Eh]
	 SCS Correlation Energy    =      -2.5771035248792038 [Eh]
	 SCS Total Energy          =    -573.0485933746520004 [Eh]
	-----------------------------------------------------------

  Dipole Moment: [D]
     X:     1.6564      Y:     1.8040      Z:     0.1574     Total:     2.4542

*** Psi4 exiting successfully. Buy a developer a beer!
