                               Psi4 1.4a3.dev225

  ==> Input File <==

--------------------------------------------------------------------------
#psi4
#
memory 32 gb

molecule  {
0 1
  N       -0.4914050     1.0723760    -0.3164170
  N        1.0085960    -0.7184190    -0.0133500
  C       -1.7100270     0.3982770    -0.1243180
  C        0.8049200     0.5981430    -0.1551110
  C        3.4026260    -0.3179870     0.1123840
  C        1.8688800     1.5249980    -0.1805650
  C        3.1641670     1.0570110    -0.0435420
  C       -2.8187550     1.1723340     0.2577460
  C       -1.8866400    -0.9712620    -0.3801370
  C        2.2803750    -1.1431010     0.1169750
  C        4.8115985    -0.8775311     0.2640935
  C       -4.0754850     0.5909990     0.4048790
  C       -3.1483220    -1.5428300    -0.2100850
  C       -4.2492880    -0.7746780     0.1720620
  H       -0.5683120     2.0807040    -0.2404560
  H        1.6730390     2.5885970    -0.3025930
  H        3.9969070     1.7590030    -0.0564670
  H       -2.6877930     2.2355590     0.4578160
  H       -1.0395640    -1.5738120    -0.6782690
  H        2.3962560    -2.2212150     0.2333330
  H        5.4095350    -0.6367030    -0.6119800
  H        5.2936270    -0.4518060     1.1412500
  H        4.7686350    -1.9575490     0.3752240
  H       -4.9184630     1.2095470     0.7042290
  H       -3.2707080    -2.6065070    -0.4021260
  H       -5.2268190    -1.2338160     0.2940590
units angstrom
no_reorient  #important for SAPT in psi4, default
symmetry c1  #important for SAPT in psi4, default
}

set PROPERTIES_ORIGIN ["COM"]
properties('MP2/aug-cc-pvtz', properties = ['dipole'])
--------------------------------------------------------------------------

    Molecular point group: c1
  Charge       = 0
  Multiplicity = 1
  Basis Set: AUG-CC-PVTZ
    Blend: AUG-CC-PVTZ
  Basis Set: (AUG-CC-PVTZ AUX)
    Blend: AUG-CC-PVTZ-JKFIT

    Orbital Energies [Eh]
    ---------------------

    Doubly Occupied:

       1A    -15.589005     2A    -15.553645     3A    -11.322852
       4A    -11.280877     5A    -11.272705     6A    -11.258363
       7A    -11.238706     8A    -11.236137     9A    -11.233677
      10A    -11.230253    11A    -11.228533    12A    -11.228434
      13A    -11.221387    14A    -11.218349    15A     -1.293000
      16A     -1.219923    17A     -1.132694    18A     -1.095518
      19A     -1.045011    20A     -1.007969    21A     -0.992644
      22A     -0.935519    23A     -0.868203    24A     -0.841567
      25A     -0.821153    26A     -0.797829    27A     -0.723559
      28A     -0.715319    29A     -0.670319    30A     -0.652745
      31A     -0.635603    32A     -0.621163    33A     -0.595579
      34A     -0.593330    35A     -0.588865    36A     -0.579652
      37A     -0.570535    38A     -0.562484    39A     -0.549796
      40A     -0.516520    41A     -0.511077    42A     -0.504053
      43A     -0.487316    44A     -0.454348    45A     -0.414145
      46A     -0.381395    47A     -0.336738    48A     -0.330457
      49A     -0.276960

  @DF-RHF Final Energy:  -570.49884912270954

   => Energetics <=

    Nuclear Repulsion Energy =            790.4074893827526012
    One-Electron Energy =               -2340.9408500047052257
    Two-Electron Energy =                 980.0345114992430808
    Total Energy =                       -570.4988491227095437
  Basis Set: (AUG-CC-PVTZ AUX)
    Blend: AUG-CC-PVTZ-RI
    Molecular point group: c1

    Geometry (in Angstrom), charge = 0, multiplicity = 1:

       Center              X                  Y                   Z               Mass
    ------------   -----------------  -----------------  -----------------  -----------------
         N           -0.461219180372     1.068494196268    -0.311615255096    14.003074004430
         N            1.038781819628    -0.722300803732    -0.008548255096    14.003074004430
         C           -1.679841180372     0.394395196268    -0.119516255096    12.000000000000
         C            0.835105819628     0.594261196268    -0.150309255096    12.000000000000
         C            3.432811819628    -0.321868803732     0.117185744904    12.000000000000
         C            1.899065819628     1.521116196268    -0.175763255096    12.000000000000
         C            3.194352819628     1.053129196268    -0.038740255096    12.000000000000
         C           -2.788569180372     1.168452196268     0.262547744904    12.000000000000
         C           -1.856454180372    -0.975143803732    -0.375335255096    12.000000000000
         C            2.310560819628    -1.146982803732     0.121776744904    12.000000000000
         C            4.841784319628    -0.881412903732     0.268895244904    12.000000000000
         C           -4.045299180372     0.587117196268     0.409680744904    12.000000000000
         C           -3.118136180372    -1.546711803732    -0.205283255096    12.000000000000
         C           -4.219102180372    -0.778559803732     0.176863744904    12.000000000000
         H           -0.538126180372     2.076822196268    -0.235654255096     1.007825032230
         H            1.703224819628     2.584715196268    -0.297791255096     1.007825032230
         H            4.027092819628     1.755121196268    -0.051665255096     1.007825032230
         H           -2.657607180372     2.231677196268     0.462617744904     1.007825032230
         H           -1.009378180372    -1.577693803732    -0.673467255096     1.007825032230
         H            2.426441819628    -2.225096803732     0.238134744904     1.007825032230
         H            5.439720819628    -0.640584803732    -0.607178255096     1.007825032230
         H            5.323812819628    -0.455687803732     1.146051744904     1.007825032230
         H            4.798820819628    -1.961430803732     0.380025744904     1.007825032230
         H           -4.888277180372     1.205665196268     0.709030744904     1.007825032230
         H           -3.240522180372    -2.610388803732    -0.397324255096     1.007825032230
         H           -5.196633180372    -1.237697803732     0.298860744904     1.007825032230

  Basis Set: AUG-CC-PVTZ
    Blend: AUG-CC-PVTZ
  Basis Set: (AUG-CC-PVTZ AUX)
    Blend: AUG-CC-PVTZ-JKFIT
	 Reference Energy          =    -570.4988491227095437 [Eh]
	 Singles Energy            =      -0.0000000000000000 [Eh]
	 Same-Spin Energy          =      -0.6362630739826107 [Eh]
	 Opposite-Spin Energy      =      -1.9707666758980174 [Eh]
	 Correlation Energy        =      -2.6070297498806281 [Eh]
	 Total Energy              =    -573.1058788725902104 [Eh]

	 ================> DF-SCS-MP2 Energies <==================
	-----------------------------------------------------------
	 SCS Same-Spin Scale       =       0.3333333333333333 [-]
	 SCS Opposite-Spin Scale   =       1.2000000000000000 [-]
	 SCS Same-Spin Energy      =      -0.2120876913275369 [Eh]
	 SCS Opposite-Spin Energy  =      -2.3649200110776207 [Eh]
	 SCS Correlation Energy    =      -2.5770077024051576 [Eh]
	 SCS Total Energy          =    -573.0758568251146698 [Eh]
	-----------------------------------------------------------

  Dipole Moment: [D]
     X:     1.8759      Y:     1.8518      Z:     0.1634     Total:     2.6410

*** Psi4 exiting successfully. Buy a developer a beer!
