                               Psi4 1.4a3.dev225

  ==> Input File <==

--------------------------------------------------------------------------
#psi4
#
memory 32 gb

molecule  {
0 1
  N       -0.4914050     1.0723760    -0.3164170
  N        1.0085960    -0.7184190    -0.0133500
  C       -1.7100270     0.3982770    -0.1243180
  C        0.8049200     0.5981430    -0.1551110
  C        3.4026260    -0.3179870     0.1123840
  C        1.8688800     1.5249980    -0.1805650
  C        3.1641670     1.0570110    -0.0435420
  C       -2.8345360     1.1833515     0.2631841
  C       -1.8866400    -0.9712620    -0.3801370
  C        2.2803750    -1.1431010     0.1169750
  C        4.7931030    -0.8701860     0.2621020
  C       -4.0754850     0.5909990     0.4048790
  C       -3.1483220    -1.5428300    -0.2100850
  C       -4.2492880    -0.7746780     0.1720620
  H       -0.5683120     2.0807040    -0.2404560
  H        1.6730390     2.5885970    -0.3025930
  H        3.9969070     1.7590030    -0.0564670
  H       -2.6877930     2.2355590     0.4578160
  H       -1.0395640    -1.5738120    -0.6782690
  H        2.3962560    -2.2212150     0.2333330
  H        5.4095350    -0.6367030    -0.6119800
  H        5.2936270    -0.4518060     1.1412500
  H        4.7686350    -1.9575490     0.3752240
  H       -4.9184630     1.2095470     0.7042290
  H       -3.2707080    -2.6065070    -0.4021260
  H       -5.2268190    -1.2338160     0.2940590
units angstrom
no_reorient  #important for SAPT in psi4, default
symmetry c1  #important for SAPT in psi4, default
}

set PROPERTIES_ORIGIN ["COM"]
properties('MP2/aug-cc-pvtz', properties = ['dipole'])
--------------------------------------------------------------------------

    Molecular point group: c1
  Charge       = 0
  Multiplicity = 1
  Basis Set: AUG-CC-PVTZ
    Blend: AUG-CC-PVTZ
  Basis Set: (AUG-CC-PVTZ AUX)
    Blend: AUG-CC-PVTZ-JKFIT

    Orbital Energies [Eh]
    ---------------------

    Doubly Occupied:

       1A    -15.589802     2A    -15.553922     3A    -11.323186
       4A    -11.283011     5A    -11.272897     6A    -11.258581
       7A    -11.239088     8A    -11.235503     9A    -11.232705
      10A    -11.230481    11A    -11.229046    12A    -11.228836
      13A    -11.220968    14A    -11.217799    15A     -1.293199
      16A     -1.219867    17A     -1.132218    18A     -1.097102
      19A     -1.045747    20A     -1.009420    21A     -0.991499
      22A     -0.934991    23A     -0.868774    24A     -0.840835
      25A     -0.821695    26A     -0.797411    27A     -0.723462
      28A     -0.715551    29A     -0.671778    30A     -0.653608
      31A     -0.637622    32A     -0.620232    33A     -0.595797
      34A     -0.593001    35A     -0.587790    36A     -0.581376
      37A     -0.569422    38A     -0.562676    39A     -0.546936
      40A     -0.519300    41A     -0.510744    42A     -0.505268
      43A     -0.485951    44A     -0.454281    45A     -0.414408
      46A     -0.381532    47A     -0.335390    48A     -0.332177
      49A     -0.275943

  @DF-RHF Final Energy:  -570.49836959385880

   => Energetics <=

    Nuclear Repulsion Energy =            790.4541629413436112
    One-Electron Energy =               -2341.0194032942695230
    Two-Electron Energy =                 980.0668707590671147
    Total Energy =                       -570.4983695938587971
  Basis Set: (AUG-CC-PVTZ AUX)
    Blend: AUG-CC-PVTZ-RI
    Molecular point group: c1

    Geometry (in Angstrom), charge = 0, multiplicity = 1:

       Center              X                  Y                   Z               Mass
    ------------   -----------------  -----------------  -----------------  -----------------
         N           -0.458984971291     1.067297286207    -0.311839911202    14.003074004430
         N            1.041016028709    -0.723497713793    -0.008772911202    14.003074004430
         C           -1.677606971291     0.393198286207    -0.119740911202    12.000000000000
         C            0.837340028709     0.593064286207    -0.150533911202    12.000000000000
         C            3.435046028709    -0.323065713793     0.116961088798    12.000000000000
         C            1.901300028709     1.519919286207    -0.175987911202    12.000000000000
         C            3.196587028709     1.051932286207    -0.038964911202    12.000000000000
         C           -2.802115971291     1.178272786207     0.267761188798    12.000000000000
         C           -1.854219971291    -0.976340713793    -0.375559911202    12.000000000000
         C            2.312795028709    -1.148179713793     0.121552088798    12.000000000000
         C            4.825523028709    -0.875264713793     0.266679088798    12.000000000000
         C           -4.043064971291     0.585920286207     0.409456088798    12.000000000000
         C           -3.115901971291    -1.547908713793    -0.205507911202    12.000000000000
         C           -4.216867971291    -0.779756713793     0.176639088798    12.000000000000
         H           -0.535891971291     2.075625286207    -0.235878911202     1.007825032230
         H            1.705459028709     2.583518286207    -0.298015911202     1.007825032230
         H            4.029327028709     1.753924286207    -0.051889911202     1.007825032230
         H           -2.655372971291     2.230480286207     0.462393088798     1.007825032230
         H           -1.007143971291    -1.578890713793    -0.673691911202     1.007825032230
         H            2.428676028709    -2.226293713793     0.237910088798     1.007825032230
         H            5.441955028709    -0.641781713793    -0.607402911202     1.007825032230
         H            5.326047028709    -0.456884713793     1.145827088798     1.007825032230
         H            4.801055028709    -1.962627713793     0.379801088798     1.007825032230
         H           -4.886042971291     1.204468286207     0.708806088798     1.007825032230
         H           -3.238287971291    -2.611585713793    -0.397548911202     1.007825032230
         H           -5.194398971291    -1.238894713793     0.298636088798     1.007825032230

  Basis Set: AUG-CC-PVTZ
    Blend: AUG-CC-PVTZ
  Basis Set: (AUG-CC-PVTZ AUX)
    Blend: AUG-CC-PVTZ-JKFIT
	 Reference Energy          =    -570.4983695938587971 [Eh]
	 Singles Energy            =      -0.0000000000000000 [Eh]
	 Same-Spin Energy          =      -0.6363993119990602 [Eh]
	 Opposite-Spin Energy      =      -1.9709246584626476 [Eh]
	 Correlation Energy        =      -2.6073239704617079 [Eh]
	 Total Energy              =    -573.1056935643205179 [Eh]

	 ================> DF-SCS-MP2 Energies <==================
	-----------------------------------------------------------
	 SCS Same-Spin Scale       =       0.3333333333333333 [-]
	 SCS Opposite-Spin Scale   =       1.2000000000000000 [-]
	 SCS Same-Spin Energy      =      -0.2121331039996867 [Eh]
	 SCS Opposite-Spin Energy  =      -2.3651095901551771 [Eh]
	 SCS Correlation Energy    =      -2.5772426941548638 [Eh]
	 SCS Total Energy          =    -573.0756122880136445 [Eh]
	-----------------------------------------------------------

  Dipole Moment: [D]
     X:     1.9042      Y:     1.8661      Z:     0.1610     Total:     2.6710

*** Psi4 exiting successfully. Buy a developer a beer!
