                               Psi4 1.4a3.dev225

  ==> Input File <==

--------------------------------------------------------------------------
#psi4
#
memory 32 gb

molecule  {
0 1
  N       -0.4914050     1.0723760    -0.3164170
  N        1.0085960    -0.7184190    -0.0133500
  C       -1.7523642     0.4857771    -0.1109060
  C        0.8049200     0.5981430    -0.1551110
  C        3.4026260    -0.3179870     0.1123840
  C        1.8688800     1.5249980    -0.1805650
  C        3.1641670     1.0570110    -0.0435420
  C       -2.8187550     1.1723340     0.2577460
  C       -1.8866400    -0.9712620    -0.3801370
  C        2.2803750    -1.1431010     0.1169750
  C        4.7931030    -0.8701860     0.2621020
  C       -4.0754850     0.5909990     0.4048790
  C       -3.1483220    -1.5428300    -0.2100850
  C       -4.2492880    -0.7746780     0.1720620
  H       -0.5683120     2.0807040    -0.2404560
  H        1.6730390     2.5885970    -0.3025930
  H        3.9969070     1.7590030    -0.0564670
  H       -2.6877930     2.2355590     0.4578160
  H       -1.0395640    -1.5738120    -0.6782690
  H        2.3962560    -2.2212150     0.2333330
  H        5.4095350    -0.6367030    -0.6119800
  H        5.2936270    -0.4518060     1.1412500
  H        4.7686350    -1.9575490     0.3752240
  H       -4.9184630     1.2095470     0.7042290
  H       -3.2707080    -2.6065070    -0.4021260
  H       -5.2268190    -1.2338160     0.2940590
units angstrom
no_reorient  #important for SAPT in psi4, default
symmetry c1  #important for SAPT in psi4, default
}

set PROPERTIES_ORIGIN ["COM"]
properties('MP2/aug-cc-pvtz', properties = ['dipole'])
--------------------------------------------------------------------------

    Molecular point group: c1
  Charge       = 0
  Multiplicity = 1
  Basis Set: AUG-CC-PVTZ
    Blend: AUG-CC-PVTZ
  Basis Set: (AUG-CC-PVTZ AUX)
    Blend: AUG-CC-PVTZ-JKFIT

    Orbital Energies [Eh]
    ---------------------

    Doubly Occupied:

       1A    -15.588304     2A    -15.554175     3A    -11.325283
       4A    -11.279432     5A    -11.273031     6A    -11.258823
       7A    -11.239543     8A    -11.235722     9A    -11.233841
      10A    -11.229174    11A    -11.228434    12A    -11.226775
      13A    -11.222241    14A    -11.219058    15A     -1.292751
      16A     -1.221367    17A     -1.134519    18A     -1.097350
      19A     -1.047946    20A     -1.012889    21A     -0.988806
      22A     -0.935418    23A     -0.868529    24A     -0.843747
      25A     -0.818126    26A     -0.798731    27A     -0.727864
      28A     -0.712029    29A     -0.671939    30A     -0.653056
      31A     -0.637508    32A     -0.622350    33A     -0.598823
      34A     -0.592804    35A     -0.584327    36A     -0.580180
      37A     -0.568775    38A     -0.561651    39A     -0.546986
      40A     -0.519927    41A     -0.512731    42A     -0.506114
      43A     -0.479716    44A     -0.454137    45A     -0.415453
      46A     -0.381774    47A     -0.345537    48A     -0.323882
      49A     -0.277256

  @DF-RHF Final Energy:  -570.48692207292481

   => Energetics <=

    Nuclear Repulsion Energy =            790.4374135439292104
    One-Electron Energy =               -2340.9510023523057498
    Two-Electron Energy =                 980.0266667354516130
    Total Energy =                       -570.4869220729248127
  Basis Set: (AUG-CC-PVTZ AUX)
    Blend: AUG-CC-PVTZ-RI
    Molecular point group: c1

    Geometry (in Angstrom), charge = 0, multiplicity = 1:

       Center              X                  Y                   Z               Mass
    ------------   -----------------  -----------------  -----------------  -----------------
         N           -0.457253986412     1.062312001261    -0.312359665546    14.003074004430
         N            1.042747013588    -0.728482998739    -0.009292665546    14.003074004430
         C           -1.718213186412     0.475713101261    -0.106848665546    12.000000000000
         C            0.839071013588     0.588079001261    -0.151053665546    12.000000000000
         C            3.436777013588    -0.328050998739     0.116441334454    12.000000000000
         C            1.903031013588     1.514934001261    -0.176507665546    12.000000000000
         C            3.198318013588     1.046947001261    -0.039484665546    12.000000000000
         C           -2.784603986412     1.162270001261     0.261803334454    12.000000000000
         C           -1.852488986412    -0.981325998739    -0.376079665546    12.000000000000
         C            2.314526013588    -1.153164998739     0.121032334454    12.000000000000
         C            4.827254013588    -0.880249998739     0.266159334454    12.000000000000
         C           -4.041333986412     0.580935001261     0.408936334454    12.000000000000
         C           -3.114170986412    -1.552893998739    -0.206027665546    12.000000000000
         C           -4.215136986412    -0.784741998739     0.176119334454    12.000000000000
         H           -0.534160986412     2.070640001261    -0.236398665546     1.007825032230
         H            1.707190013588     2.578533001261    -0.298535665546     1.007825032230
         H            4.031058013588     1.748939001261    -0.052409665546     1.007825032230
         H           -2.653641986412     2.225495001261     0.461873334454     1.007825032230
         H           -1.005412986412    -1.583875998739    -0.674211665546     1.007825032230
         H            2.430407013588    -2.231278998739     0.237390334454     1.007825032230
         H            5.443686013588    -0.646766998739    -0.607922665546     1.007825032230
         H            5.327778013588    -0.461869998739     1.145307334454     1.007825032230
         H            4.802786013588    -1.967612998739     0.379281334454     1.007825032230
         H           -4.884311986412     1.199483001261     0.708286334454     1.007825032230
         H           -3.236556986412    -2.616570998739    -0.398068665546     1.007825032230
         H           -5.192667986412    -1.243879998739     0.298116334454     1.007825032230

  Basis Set: AUG-CC-PVTZ
    Blend: AUG-CC-PVTZ
  Basis Set: (AUG-CC-PVTZ AUX)
    Blend: AUG-CC-PVTZ-JKFIT
	 Reference Energy          =    -570.4869220729248127 [Eh]
	 Singles Energy            =      -0.0000000000000000 [Eh]
	 Same-Spin Energy          =      -0.6361213428502736 [Eh]
	 Opposite-Spin Energy      =      -1.9713088789719713 [Eh]
	 Correlation Energy        =      -2.6074302218222449 [Eh]
	 Total Energy              =    -573.0943522947470683 [Eh]

	 ================> DF-SCS-MP2 Energies <==================
	-----------------------------------------------------------
	 SCS Same-Spin Scale       =       0.3333333333333333 [-]
	 SCS Opposite-Spin Scale   =       1.2000000000000000 [-]
	 SCS Same-Spin Energy      =      -0.2120404476167578 [Eh]
	 SCS Opposite-Spin Energy  =      -2.3655706547663655 [Eh]
	 SCS Correlation Energy    =      -2.5776111023831234 [Eh]
	 SCS Total Energy          =    -573.0645331753079290 [Eh]
	-----------------------------------------------------------

  Dipole Moment: [D]
     X:     1.9066      Y:     1.8360      Z:     0.1812     Total:     2.6531

*** Psi4 exiting successfully. Buy a developer a beer!
