                               Psi4 1.4a3.dev225

  ==> Input File <==

--------------------------------------------------------------------------
#psi4
#
memory 32 gb

molecule  {
0 1
  N       -0.4914050     1.0723760    -0.3164170
  N        1.0085960    -0.7184190    -0.0133500
  C       -1.7100270     0.3982770    -0.1243180
  C        0.8049200     0.5981430    -0.1551110
  C        3.4026260    -0.3179870     0.1123840
  C        1.8688800     1.5249980    -0.1805650
  C        3.1641670     1.0570110    -0.0435420
  C       -2.8187550     1.1723340     0.2577460
  C       -1.8866400    -0.9712620    -0.3801370
  C        2.2803750    -1.1431010     0.1169750
  C        4.7931030    -0.8701860     0.2621020
  C       -4.0754850     0.5909990     0.4048790
  C       -3.1483220    -1.5428300    -0.2100850
  C       -4.2492880    -0.7746780     0.1720620
  H       -0.5683120     2.0807040    -0.2404560
  H        1.6730390     2.5885970    -0.3025930
  H        4.0733594     1.8234516    -0.0576536
  H       -2.6877930     2.2355590     0.4578160
  H       -1.0395640    -1.5738120    -0.6782690
  H        2.3962560    -2.2212150     0.2333330
  H        5.4095350    -0.6367030    -0.6119800
  H        5.2936270    -0.4518060     1.1412500
  H        4.7686350    -1.9575490     0.3752240
  H       -4.9184630     1.2095470     0.7042290
  H       -3.2707080    -2.6065070    -0.4021260
  H       -5.2268190    -1.2338160     0.2940590
units angstrom
no_reorient  #important for SAPT in psi4, default
symmetry c1  #important for SAPT in psi4, default
}

set PROPERTIES_ORIGIN ["COM"]
properties('MP2/aug-cc-pvtz', properties = ['dipole'])
--------------------------------------------------------------------------

    Molecular point group: c1
  Charge       = 0
  Multiplicity = 1
  Basis Set: AUG-CC-PVTZ
    Blend: AUG-CC-PVTZ
  Basis Set: (AUG-CC-PVTZ AUX)
    Blend: AUG-CC-PVTZ-JKFIT

    Orbital Energies [Eh]
    ---------------------

    Doubly Occupied:

       1A    -15.589545     2A    -15.554157     3A    -11.323737
       4A    -11.281199     5A    -11.273598     6A    -11.269589
       7A    -11.239811     8A    -11.236395     9A    -11.233918
      10A    -11.230499    11A    -11.228910    12A    -11.228819
      13A    -11.221647    14A    -11.218649    15A     -1.293619
      16A     -1.220581    17A     -1.133040    18A     -1.095443
      19A     -1.046287    20A     -1.008252    21A     -0.992949
      22A     -0.935025    23A     -0.864664    24A     -0.841493
      25A     -0.821475    26A     -0.794839    27A     -0.719014
      28A     -0.715749    29A     -0.670693    30A     -0.653012
      31A     -0.637656    32A     -0.619014    33A     -0.594307
      34A     -0.593254    35A     -0.588432    36A     -0.579446
      37A     -0.568898    38A     -0.551162    39A     -0.546800
      40A     -0.519776    41A     -0.511363    42A     -0.504479
      43A     -0.487525    44A     -0.454473    45A     -0.414250
      46A     -0.382017    47A     -0.337008    48A     -0.330709
      49A     -0.277332

  @DF-RHF Final Energy:  -570.49160054723586

   => Energetics <=

    Nuclear Repulsion Energy =            790.2540607979785818
    One-Electron Energy =               -2340.6223119469168523
    Two-Electron Energy =                 979.8766506017024085
    Total Energy =                       -570.4916005472358620
  Basis Set: (AUG-CC-PVTZ AUX)
    Blend: AUG-CC-PVTZ-RI
    Molecular point group: c1

    Geometry (in Angstrom), charge = 0, multiplicity = 1:

       Center              X                  Y                   Z               Mass
    ------------   -----------------  -----------------  -----------------  -----------------
         N           -0.460432133553     1.067662615213    -0.311478949400    14.003074004430
         N            1.039568866447    -0.723132384787    -0.008411949400    14.003074004430
         C           -1.679054133553     0.393563615213    -0.119379949400    12.000000000000
         C            0.835892866447     0.593429615213    -0.150172949400    12.000000000000
         C            3.433598866447    -0.322700384787     0.117322050600    12.000000000000
         C            1.899852866447     1.520284615213    -0.175626949400    12.000000000000
         C            3.195139866447     1.052297615213    -0.038603949400    12.000000000000
         C           -2.787782133553     1.167620615213     0.262684050600    12.000000000000
         C           -1.855667133553    -0.975975384787    -0.375198949400    12.000000000000
         C            2.311347866447    -1.147814384787     0.121913050600    12.000000000000
         C            4.824075866447    -0.874899384787     0.267040050600    12.000000000000
         C           -4.044512133553     0.586285615213     0.409817050600    12.000000000000
         C           -3.117349133553    -1.547543384787    -0.205146949400    12.000000000000
         C           -4.218315133553    -0.779391384787     0.177000050600    12.000000000000
         H           -0.537339133553     2.075990615213    -0.235517949400     1.007825032230
         H            1.704011866447     2.583883615213    -0.297654949400     1.007825032230
         H            4.104332266447     1.818738215213    -0.052715549400     1.007825032230
         H           -2.656820133553     2.230845615213     0.462754050600     1.007825032230
         H           -1.008591133553    -1.578525384787    -0.673330949400     1.007825032230
         H            2.427228866447    -2.225928384787     0.238271050600     1.007825032230
         H            5.440507866447    -0.641416384787    -0.607041949400     1.007825032230
         H            5.324599866447    -0.456519384787     1.146188050600     1.007825032230
         H            4.799607866447    -1.962262384787     0.380162050600     1.007825032230
         H           -4.887490133553     1.204833615213     0.709167050600     1.007825032230
         H           -3.239735133553    -2.611220384787    -0.397187949400     1.007825032230
         H           -5.195846133553    -1.238529384787     0.298997050600     1.007825032230

  Basis Set: AUG-CC-PVTZ
    Blend: AUG-CC-PVTZ
  Basis Set: (AUG-CC-PVTZ AUX)
    Blend: AUG-CC-PVTZ-JKFIT
	 Reference Energy          =    -570.4916005472358620 [Eh]
	 Singles Energy            =      -0.0000000000000000 [Eh]
	 Same-Spin Energy          =      -0.6366538596271742 [Eh]
	 Opposite-Spin Energy      =      -1.9718037844460556 [Eh]
	 Correlation Energy        =      -2.6084576440732299 [Eh]
	 Total Energy              =    -573.1000581913091310 [Eh]

	 ================> DF-SCS-MP2 Energies <==================
	-----------------------------------------------------------
	 SCS Same-Spin Scale       =       0.3333333333333333 [-]
	 SCS Opposite-Spin Scale   =       1.2000000000000000 [-]
	 SCS Same-Spin Energy      =      -0.2122179532090581 [Eh]
	 SCS Opposite-Spin Energy  =      -2.3661645413352668 [Eh]
	 SCS Correlation Energy    =      -2.5783824945443250 [Eh]
	 SCS Total Energy          =    -573.0699830417802332 [Eh]
	-----------------------------------------------------------

  Dipole Moment: [D]
     X:     1.8229      Y:     1.8240      Z:     0.1640     Total:     2.5839

*** Psi4 exiting successfully. Buy a developer a beer!
