                               Psi4 1.4a3.dev225

  ==> Input File <==

--------------------------------------------------------------------------
#psi4
#
memory 32 gb

molecule  {
0 1
  N       -0.4914050     1.0723760    -0.3164170
  N        1.0085960    -0.7184190    -0.0133500
  C       -1.7559401     0.4810230    -0.1502732
  C        0.8049200     0.5981430    -0.1551110
  C        3.4026260    -0.3179870     0.1123840
  C        1.8688800     1.5249980    -0.1805650
  C        3.1641670     1.0570110    -0.0435420
  C       -2.8187550     1.1723340     0.2577460
  C       -1.8866400    -0.9712620    -0.3801370
  C        2.2803750    -1.1431010     0.1169750
  C        4.7931030    -0.8701860     0.2621020
  C       -4.0754850     0.5909990     0.4048790
  C       -3.1483220    -1.5428300    -0.2100850
  C       -4.2492880    -0.7746780     0.1720620
  H       -0.5683120     2.0807040    -0.2404560
  H        1.6730390     2.5885970    -0.3025930
  H        3.9969070     1.7590030    -0.0564670
  H       -2.6877930     2.2355590     0.4578160
  H       -1.0395640    -1.5738120    -0.6782690
  H        2.3962560    -2.2212150     0.2333330
  H        5.4095350    -0.6367030    -0.6119800
  H        5.2936270    -0.4518060     1.1412500
  H        4.7686350    -1.9575490     0.3752240
  H       -4.9184630     1.2095470     0.7042290
  H       -3.2707080    -2.6065070    -0.4021260
  H       -5.2268190    -1.2338160     0.2940590
units angstrom
no_reorient  #important for SAPT in psi4, default
symmetry c1  #important for SAPT in psi4, default
}

set PROPERTIES_ORIGIN ["COM"]
properties('MP2/aug-cc-pvtz', properties = ['dipole'])
--------------------------------------------------------------------------

    Molecular point group: c1
  Charge       = 0
  Multiplicity = 1
  Basis Set: AUG-CC-PVTZ
    Blend: AUG-CC-PVTZ
  Basis Set: (AUG-CC-PVTZ AUX)
    Blend: AUG-CC-PVTZ-JKFIT

    Orbital Energies [Eh]
    ---------------------

    Doubly Occupied:

       1A    -15.588270     2A    -15.553985     3A    -11.325376
       4A    -11.280158     5A    -11.272925     6A    -11.258742
       7A    -11.239440     8A    -11.235542     9A    -11.233878
      10A    -11.229073    11A    -11.228687    12A    -11.225982
      13A    -11.222122    14A    -11.220539    15A     -1.292532
      16A     -1.221128    17A     -1.134252    18A     -1.097232
      19A     -1.047686    20A     -1.011904    21A     -0.989761
      22A     -0.935329    23A     -0.868451    24A     -0.843556
      25A     -0.818384    26A     -0.798947    27A     -0.727619
      28A     -0.712194    29A     -0.671618    30A     -0.653103
      31A     -0.637429    32A     -0.622180    33A     -0.598356
      34A     -0.592431    35A     -0.585149    36A     -0.580439
      37A     -0.568812    38A     -0.561808    39A     -0.546887
      40A     -0.519733    41A     -0.512250    42A     -0.506145
      43A     -0.481478    44A     -0.454014    45A     -0.415221
      46A     -0.381702    47A     -0.344305    48A     -0.324685
      49A     -0.276854

  @DF-RHF Final Energy:  -570.48926165872240

   => Energetics <=

    Nuclear Repulsion Energy =            790.3817185094360411
    One-Electron Energy =               -2340.8453749407121904
    Two-Electron Energy =                 979.9743947725537510
    Total Energy =                       -570.4892616587223984
  Basis Set: (AUG-CC-PVTZ AUX)
    Blend: AUG-CC-PVTZ-RI
    Molecular point group: c1

    Geometry (in Angstrom), charge = 0, multiplicity = 1:

       Center              X                  Y                   Z               Mass
    ------------   -----------------  -----------------  -----------------  -----------------
         N           -0.457020902280     1.062621882765    -0.309793634716    14.003074004430
         N            1.042980097720    -0.728173117235    -0.006726634716    14.003074004430
         C           -1.721556002280     0.471268882765    -0.143649834716    12.000000000000
         C            0.839304097720     0.588388882765    -0.148487634716    12.000000000000
         C            3.437010097720    -0.327741117235     0.119007365284    12.000000000000
         C            1.903264097720     1.515243882765    -0.173941634716    12.000000000000
         C            3.198551097720     1.047256882765    -0.036918634716    12.000000000000
         C           -2.784370902280     1.162579882765     0.264369365284    12.000000000000
         C           -1.852255902280    -0.981016117235    -0.373513634716    12.000000000000
         C            2.314759097720    -1.152855117235     0.123598365284    12.000000000000
         C            4.827487097720    -0.879940117235     0.268725365284    12.000000000000
         C           -4.041100902280     0.581244882765     0.411502365284    12.000000000000
         C           -3.113937902280    -1.552584117235    -0.203461634716    12.000000000000
         C           -4.214903902280    -0.784432117235     0.178685365284    12.000000000000
         H           -0.533927902280     2.070949882765    -0.233832634716     1.007825032230
         H            1.707423097720     2.578842882765    -0.295969634716     1.007825032230
         H            4.031291097720     1.749248882765    -0.049843634716     1.007825032230
         H           -2.653408902280     2.225804882765     0.464439365284     1.007825032230
         H           -1.005179902280    -1.583566117235    -0.671645634716     1.007825032230
         H            2.430640097720    -2.230969117235     0.239956365284     1.007825032230
         H            5.443919097720    -0.646457117235    -0.605356634716     1.007825032230
         H            5.328011097720    -0.461560117235     1.147873365284     1.007825032230
         H            4.803019097720    -1.967303117235     0.381847365284     1.007825032230
         H           -4.884078902280     1.199792882765     0.710852365284     1.007825032230
         H           -3.236323902280    -2.616261117235    -0.395502634716     1.007825032230
         H           -5.192434902280    -1.243570117235     0.300682365284     1.007825032230

  Basis Set: AUG-CC-PVTZ
    Blend: AUG-CC-PVTZ
  Basis Set: (AUG-CC-PVTZ AUX)
    Blend: AUG-CC-PVTZ-JKFIT
	 Reference Energy          =    -570.4892616587223984 [Eh]
	 Singles Energy            =      -0.0000000000000000 [Eh]
	 Same-Spin Energy          =      -0.6362326380050191 [Eh]
	 Opposite-Spin Energy      =      -1.9713036522595893 [Eh]
	 Correlation Energy        =      -2.6075362902646084 [Eh]
	 Total Energy              =    -573.0967979489870459 [Eh]

	 ================> DF-SCS-MP2 Energies <==================
	-----------------------------------------------------------
	 SCS Same-Spin Scale       =       0.3333333333333333 [-]
	 SCS Opposite-Spin Scale   =       1.2000000000000000 [-]
	 SCS Same-Spin Energy      =      -0.2120775460016730 [Eh]
	 SCS Opposite-Spin Energy  =      -2.3655643827115069 [Eh]
	 SCS Correlation Energy    =      -2.5776419287131800 [Eh]
	 SCS Total Energy          =    -573.0669035874356041 [Eh]
	-----------------------------------------------------------

  Dipole Moment: [D]
     X:     1.8914      Y:     1.8372      Z:     0.1714     Total:     2.6423

*** Psi4 exiting successfully. Buy a developer a beer!
