                               Psi4 1.4a3.dev225

  ==> Input File <==

--------------------------------------------------------------------------
#psi4
#
memory 32 gb

molecule  {
0 1
  N       -0.4914050     1.0723760    -0.3164170
  N        1.0085960    -0.7184190    -0.0133500
  C       -1.7100270     0.3982770    -0.1243180
  C        0.8049200     0.5981430    -0.1551110
  C        3.4026260    -0.3179870     0.1123840
  C        1.8688800     1.5249980    -0.1805650
  C        3.1641670     1.0570110    -0.0435420
  C       -2.8187550     1.1723340     0.2577460
  C       -1.8866400    -0.9712620    -0.3801370
  C        2.2803750    -1.1431010     0.1169750
  C        4.7931030    -0.8701860     0.2621020
  C       -4.0754850     0.5909990     0.4048790
  C       -3.1483220    -1.5428300    -0.2100850
  C       -4.2492880    -0.7746780     0.1720620
  H       -0.5683120     2.0807040    -0.2404560
  H        1.6730390     2.5885970    -0.3025930
  H        3.9969070     1.7590030    -0.0564670
  H       -2.6877930     2.2355590     0.4578160
  H       -1.0395640    -1.5738120    -0.6782690
  H        2.3962560    -2.2212150     0.2333330
  H        5.4095350    -0.6367030    -0.6119800
  H        5.2936270    -0.4518060     1.1412500
  H        4.7686350    -1.9575490     0.3752240
  H       -4.9184630     1.2095470     0.7042290
  H       -3.2650825    -2.5576149    -0.3932988
  H       -5.2268190    -1.2338160     0.2940590
units angstrom
no_reorient  #important for SAPT in psi4, default
symmetry c1  #important for SAPT in psi4, default
}

set PROPERTIES_ORIGIN ["COM"]
properties('MP2/aug-cc-pvtz', properties = ['dipole'])
--------------------------------------------------------------------------

    Molecular point group: c1
  Charge       = 0
  Multiplicity = 1
  Basis Set: AUG-CC-PVTZ
    Blend: AUG-CC-PVTZ
  Basis Set: (AUG-CC-PVTZ AUX)
    Blend: AUG-CC-PVTZ-JKFIT

    Orbital Energies [Eh]
    ---------------------

    Doubly Occupied:

       1A    -15.588950     2A    -15.553642     3A    -11.322904
       4A    -11.280615     5A    -11.272715     6A    -11.258380
       7A    -11.238779     8A    -11.235233     9A    -11.233400
      10A    -11.228883    11A    -11.228429    12A    -11.224398
      13A    -11.220947    14A    -11.217964    15A     -1.292998
      16A     -1.219994    17A     -1.132894    18A     -1.096881
      19A     -1.046010    20A     -1.009284    21A     -0.993064
      22A     -0.934891    23A     -0.868488    24A     -0.841596
      25A     -0.823768    26A     -0.797978    27A     -0.723776
      28A     -0.718043    29A     -0.670381    30A     -0.654140
      31A     -0.637868    32A     -0.621960    33A     -0.595836
      34A     -0.594421    35A     -0.588917    36A     -0.581962
      37A     -0.569260    38A     -0.562629    39A     -0.546731
      40A     -0.519064    41A     -0.510949    42A     -0.504840
      43A     -0.489170    44A     -0.453929    45A     -0.414281
      46A     -0.381347    47A     -0.336420    48A     -0.330237
      49A     -0.276747

  @DF-RHF Final Energy:  -570.49815582582357

   => Energetics <=

    Nuclear Repulsion Energy =            791.0332347426951856
    One-Electron Energy =               -2342.1707974586970522
    Two-Electron Energy =                 980.6394068901782930
    Total Energy =                       -570.4981558258235737
  Basis Set: (AUG-CC-PVTZ AUX)
    Blend: AUG-CC-PVTZ-RI
    Molecular point group: c1

    Geometry (in Angstrom), charge = 0, multiplicity = 1:

       Center              X                  Y                   Z               Mass
    ------------   -----------------  -----------------  -----------------  -----------------
         N           -0.460044403493     1.067747776680    -0.311533768279    14.003074004430
         N            1.039956596507    -0.723047223320    -0.008466768279    14.003074004430
         C           -1.678666403493     0.393648776680    -0.119434768279    12.000000000000
         C            0.836280596507     0.593514776680    -0.150227768279    12.000000000000
         C            3.433986596507    -0.322615223320     0.117267231721    12.000000000000
         C            1.900240596507     1.520369776680    -0.175681768279    12.000000000000
         C            3.195527596507     1.052382776680    -0.038658768279    12.000000000000
         C           -2.787394403493     1.167705776680     0.262629231721    12.000000000000
         C           -1.855279403493    -0.975890223320    -0.375253768279    12.000000000000
         C            2.311735596507    -1.147729223320     0.121858231721    12.000000000000
         C            4.824463596507    -0.874814223320     0.266985231721    12.000000000000
         C           -4.044124403493     0.586370776680     0.409762231721    12.000000000000
         C           -3.116961403493    -1.547458223320    -0.205201768279    12.000000000000
         C           -4.217927403493    -0.779306223320     0.176945231721    12.000000000000
         H           -0.536951403493     2.076075776680    -0.235572768279     1.007825032230
         H            1.704399596507     2.583968776680    -0.297709768279     1.007825032230
         H            4.028267596507     1.754374776680    -0.051583768279     1.007825032230
         H           -2.656432403493     2.230930776680     0.462699231721     1.007825032230
         H           -1.008203403493    -1.578440223320    -0.673385768279     1.007825032230
         H            2.427616596507    -2.225843223320     0.238216231721     1.007825032230
         H            5.440895596507    -0.641331223320    -0.607096768279     1.007825032230
         H            5.324987596507    -0.456434223320     1.146133231721     1.007825032230
         H            4.799995596507    -1.962177223320     0.380107231721     1.007825032230
         H           -4.887102403493     1.204918776680     0.709112231721     1.007825032230
         H           -3.233721903493    -2.562243123320    -0.388415568279     1.007825032230
         H           -5.195458403493    -1.238444223320     0.298942231721     1.007825032230

  Basis Set: AUG-CC-PVTZ
    Blend: AUG-CC-PVTZ
  Basis Set: (AUG-CC-PVTZ AUX)
    Blend: AUG-CC-PVTZ-JKFIT
	 Reference Energy          =    -570.4981558258235737 [Eh]
	 Singles Energy            =      -0.0000000000000000 [Eh]
	 Same-Spin Energy          =      -0.6363376594408185 [Eh]
	 Opposite-Spin Energy      =      -1.9705841443501131 [Eh]
	 Correlation Energy        =      -2.6069218037909314 [Eh]
	 Total Energy              =    -573.1050776296144704 [Eh]

	 ================> DF-SCS-MP2 Energies <==================
	-----------------------------------------------------------
	 SCS Same-Spin Scale       =       0.3333333333333333 [-]
	 SCS Opposite-Spin Scale   =       1.2000000000000000 [-]
	 SCS Same-Spin Energy      =      -0.2121125531469395 [Eh]
	 SCS Opposite-Spin Energy  =      -2.3647009732201356 [Eh]
	 SCS Correlation Energy    =      -2.5768135263670753 [Eh]
	 SCS Total Energy          =    -573.0749693521906920 [Eh]
	-----------------------------------------------------------

  Dipole Moment: [D]
     X:     1.8619      Y:     1.8353      Z:     0.1596     Total:     2.6192

*** Psi4 exiting successfully. Buy a developer a beer!
