                               Psi4 1.4a3.dev225

  ==> Input File <==

--------------------------------------------------------------------------
#psi4
#
memory 32 gb

molecule  {
0 1
  N       -0.4914050     1.0723760    -0.3164170
  N        1.0085960    -0.7184190    -0.0133500
  C       -1.7100270     0.3982770    -0.1243180
  C        0.7968174     0.5755121    -0.1583526
  C        3.4026260    -0.3179870     0.1123840
  C        1.8688800     1.5249980    -0.1805650
  C        3.1641670     1.0570110    -0.0435420
  C       -2.8187550     1.1723340     0.2577460
  C       -1.8866400    -0.9712620    -0.3801370
  C        2.2803750    -1.1431010     0.1169750
  C        4.7931030    -0.8701860     0.2621020
  C       -4.0754850     0.5909990     0.4048790
  C       -3.1483220    -1.5428300    -0.2100850
  C       -4.2492880    -0.7746780     0.1720620
  H       -0.5683120     2.0807040    -0.2404560
  H        1.6730390     2.5885970    -0.3025930
  H        3.9969070     1.7590030    -0.0564670
  H       -2.6877930     2.2355590     0.4578160
  H       -1.0395640    -1.5738120    -0.6782690
  H        2.3962560    -2.2212150     0.2333330
  H        5.4095350    -0.6367030    -0.6119800
  H        5.2936270    -0.4518060     1.1412500
  H        4.7686350    -1.9575490     0.3752240
  H       -4.9184630     1.2095470     0.7042290
  H       -3.2707080    -2.6065070    -0.4021260
  H       -5.2268190    -1.2338160     0.2940590
units angstrom
no_reorient  #important for SAPT in psi4, default
symmetry c1  #important for SAPT in psi4, default
}

set PROPERTIES_ORIGIN ["COM"]
properties('MP2/aug-cc-pvtz', properties = ['dipole'])
--------------------------------------------------------------------------

    Molecular point group: c1
  Charge       = 0
  Multiplicity = 1
  Basis Set: AUG-CC-PVTZ
    Blend: AUG-CC-PVTZ
  Basis Set: (AUG-CC-PVTZ AUX)
    Blend: AUG-CC-PVTZ-JKFIT

    Orbital Energies [Eh]
    ---------------------

    Doubly Occupied:

       1A    -15.589265     2A    -15.552067     3A    -11.323527
       4A    -11.280601     5A    -11.272393     6A    -11.257696
       7A    -11.240865     8A    -11.235381     9A    -11.233828
      10A    -11.230471    11A    -11.228862    12A    -11.228577
      13A    -11.221488    14A    -11.218550    15A     -1.295665
      16A     -1.222519    17A     -1.132732    18A     -1.097975
      19A     -1.043417    20A     -1.008169    21A     -0.992778
      22A     -0.935956    23A     -0.867524    24A     -0.841558
      25A     -0.821480    26A     -0.797403    27A     -0.724081
      28A     -0.715851    29A     -0.670340    30A     -0.656046
      31A     -0.636774    32A     -0.620493    33A     -0.596501
      34A     -0.592629    35A     -0.588168    36A     -0.579711
      37A     -0.569805    38A     -0.562788    39A     -0.547160
      40A     -0.519544    41A     -0.511591    42A     -0.504434
      43A     -0.487645    44A     -0.454121    45A     -0.412955
      46A     -0.382383    47A     -0.335804    48A     -0.330553
      49A     -0.277053

  @DF-RHF Final Energy:  -570.49918526818590

   => Energetics <=

    Nuclear Repulsion Energy =            790.9180158414371817
    One-Electron Energy =               -2341.9400462416133450
    Two-Electron Energy =                 980.5228451319902661
    Total Energy =                       -570.4991852681858973
  Basis Set: (AUG-CC-PVTZ AUX)
    Blend: AUG-CC-PVTZ-RI
    Molecular point group: c1

    Geometry (in Angstrom), charge = 0, multiplicity = 1:

       Center              X                  Y                   Z               Mass
    ------------   -----------------  -----------------  -----------------  -----------------
         N           -0.459485464370     1.069490554507    -0.311274151437    14.003074004430
         N            1.040515535630    -0.721304445493    -0.008207151437    14.003074004430
         C           -1.678107464370     0.395391554507    -0.119175151437    12.000000000000
         C            0.828736935630     0.572626654507    -0.153209751437    12.000000000000
         C            3.434545535630    -0.320872445493     0.117526848563    12.000000000000
         C            1.900799535630     1.522112554507    -0.175422151437    12.000000000000
         C            3.196086535630     1.054125554507    -0.038399151437    12.000000000000
         C           -2.786835464370     1.169448554507     0.262888848563    12.000000000000
         C           -1.854720464370    -0.974147445493    -0.374994151437    12.000000000000
         C            2.312294535630    -1.145986445493     0.122117848563    12.000000000000
         C            4.825022535630    -0.873071445493     0.267244848563    12.000000000000
         C           -4.043565464370     0.588113554507     0.410021848563    12.000000000000
         C           -3.116402464370    -1.545715445493    -0.204942151437    12.000000000000
         C           -4.217368464370    -0.777563445493     0.177204848563    12.000000000000
         H           -0.536392464370     2.077818554507    -0.235313151437     1.007825032230
         H            1.704958535630     2.585711554507    -0.297450151437     1.007825032230
         H            4.028826535630     1.756117554507    -0.051324151437     1.007825032230
         H           -2.655873464370     2.232673554507     0.462958848563     1.007825032230
         H           -1.007644464370    -1.576697445493    -0.673126151437     1.007825032230
         H            2.428175535630    -2.224100445493     0.238475848563     1.007825032230
         H            5.441454535630    -0.639588445493    -0.606837151437     1.007825032230
         H            5.325546535630    -0.454691445493     1.146392848563     1.007825032230
         H            4.800554535630    -1.960434445493     0.380366848563     1.007825032230
         H           -4.886543464370     1.206661554507     0.709371848563     1.007825032230
         H           -3.238788464370    -2.609392445493    -0.396983151437     1.007825032230
         H           -5.194899464370    -1.236701445493     0.299201848563     1.007825032230

  Basis Set: AUG-CC-PVTZ
    Blend: AUG-CC-PVTZ
  Basis Set: (AUG-CC-PVTZ AUX)
    Blend: AUG-CC-PVTZ-JKFIT
	 Reference Energy          =    -570.4991852681858973 [Eh]
	 Singles Energy            =      -0.0000000000000000 [Eh]
	 Same-Spin Energy          =      -0.6360793174655437 [Eh]
	 Opposite-Spin Energy      =      -1.9704739123199726 [Eh]
	 Correlation Energy        =      -2.6065532297855163 [Eh]
	 Total Energy              =    -573.1057384979714016 [Eh]

	 ================> DF-SCS-MP2 Energies <==================
	-----------------------------------------------------------
	 SCS Same-Spin Scale       =       0.3333333333333333 [-]
	 SCS Opposite-Spin Scale   =       1.2000000000000000 [-]
	 SCS Same-Spin Energy      =      -0.2120264391551812 [Eh]
	 SCS Opposite-Spin Energy  =      -2.3645686947839670 [Eh]
	 SCS Correlation Energy    =      -2.5765951339391484 [Eh]
	 SCS Total Energy          =    -573.0757804021250195 [Eh]
	-----------------------------------------------------------

  Dipole Moment: [D]
     X:     1.8526      Y:     1.8536      Z:     0.1582     Total:     2.6255

*** Psi4 exiting successfully. Buy a developer a beer!
