                               Psi4 1.4a3.dev225

  ==> Input File <==

--------------------------------------------------------------------------
#psi4
#
memory 32 gb

molecule  {
0 1
  N       -0.4914050     1.0723760    -0.3164170
  N        1.0085960    -0.7184190    -0.0133500
  C       -1.7100270     0.3982770    -0.1243180
  C        0.8049200     0.5981430    -0.1551110
  C        3.4026260    -0.3179870     0.1123840
  C        1.8688800     1.5249980    -0.1805650
  C        3.1641670     1.0570110    -0.0435420
  C       -2.8187550     1.1723340     0.2577460
  C       -1.8866400    -0.9712620    -0.3801370
  C        2.2803750    -1.1431010     0.1169750
  C        4.6081480    -0.7967350     0.2421872
  C       -4.0754850     0.5909990     0.4048790
  C       -3.1483220    -1.5428300    -0.2100850
  C       -4.2492880    -0.7746780     0.1720620
  H       -0.5683120     2.0807040    -0.2404560
  H        1.6730390     2.5885970    -0.3025930
  H        3.9969070     1.7590030    -0.0564670
  H       -2.6877930     2.2355590     0.4578160
  H       -1.0395640    -1.5738120    -0.6782690
  H        2.3962560    -2.2212150     0.2333330
  H        5.4095350    -0.6367030    -0.6119800
  H        5.2936270    -0.4518060     1.1412500
  H        4.7686350    -1.9575490     0.3752240
  H       -4.9184630     1.2095470     0.7042290
  H       -3.2707080    -2.6065070    -0.4021260
  H       -5.2268190    -1.2338160     0.2940590
units angstrom
no_reorient  #important for SAPT in psi4, default
symmetry c1  #important for SAPT in psi4, default
}

set PROPERTIES_ORIGIN ["COM"]
properties('MP2/aug-cc-pvtz', properties = ['dipole'])
--------------------------------------------------------------------------

    Molecular point group: c1
  Charge       = 0
  Multiplicity = 1
  Basis Set: AUG-CC-PVTZ
    Blend: AUG-CC-PVTZ
  Basis Set: (AUG-CC-PVTZ AUX)
    Blend: AUG-CC-PVTZ-JKFIT

    Orbital Energies [Eh]
    ---------------------

    Doubly Occupied:

       1A    -15.591069     2A    -15.555051     3A    -11.325243
       4A    -11.281951     5A    -11.274532     6A    -11.260039
       7A    -11.240883     8A    -11.238674     9A    -11.234573
      10A    -11.231145    11A    -11.229625    12A    -11.223221
      13A    -11.222378    14A    -11.219453    15A     -1.295109
      16A     -1.223468    17A     -1.135524    18A     -1.120620
      19A     -1.056549    20A     -1.009186    21A     -0.998004
      22A     -0.931290    23A     -0.872988    24A     -0.836047
      25A     -0.821109    26A     -0.798799    27A     -0.725075
      28A     -0.719019    29A     -0.677637    30A     -0.666557
      31A     -0.651023    32A     -0.622637    33A     -0.600389
      34A     -0.596516    35A     -0.589339    36A     -0.580419
      37A     -0.571602    38A     -0.556780    39A     -0.550298
      40A     -0.512446    41A     -0.502060    42A     -0.492549
      43A     -0.485916    44A     -0.449491    45A     -0.414700
      46A     -0.381506    47A     -0.333926    48A     -0.329972
      49A     -0.275582

  @DF-RHF Final Energy:  -570.44631469386206

   => Energetics <=

    Nuclear Repulsion Energy =            794.6834656141146525
    One-Electron Energy =               -2349.2356267675722847
    Two-Electron Energy =                 984.1058464595956821
    Total Energy =                       -570.4463146938620639
  Basis Set: (AUG-CC-PVTZ AUX)
    Blend: AUG-CC-PVTZ-RI
    Molecular point group: c1

    Geometry (in Angstrom), charge = 0, multiplicity = 1:

       Center              X                  Y                   Z               Mass
    ------------   -----------------  -----------------  -----------------  -----------------
         N           -0.447957880219     1.063227748983    -0.310187359762    14.003074004430
         N            1.052043119781    -0.727567251017    -0.007120359762    14.003074004430
         C           -1.666579880219     0.389128748983    -0.118088359762    12.000000000000
         C            0.848367119781     0.588994748983    -0.148881359762    12.000000000000
         C            3.446073119781    -0.327135251017     0.118613640238    12.000000000000
         C            1.912327119781     1.515849748983    -0.174335359762    12.000000000000
         C            3.207614119781     1.047862748983    -0.037312359762    12.000000000000
         C           -2.775307880219     1.163185748983     0.263975640238    12.000000000000
         C           -1.843192880219    -0.980410251017    -0.373907359762    12.000000000000
         C            2.323822119781    -1.152249251017     0.123204640238    12.000000000000
         C            4.651595119781    -0.805883251017     0.248416840238    12.000000000000
         C           -4.032037880219     0.581850748983     0.411108640238    12.000000000000
         C           -3.104874880219    -1.551978251017    -0.203855359762    12.000000000000
         C           -4.205840880219    -0.783826251017     0.178291640238    12.000000000000
         H           -0.524864880219     2.071555748983    -0.234226359762     1.007825032230
         H            1.716486119781     2.579448748983    -0.296363359762     1.007825032230
         H            4.040354119781     1.749854748983    -0.050237359762     1.007825032230
         H           -2.644345880219     2.226410748983     0.464045640238     1.007825032230
         H           -0.996116880219    -1.582960251017    -0.672039359762     1.007825032230
         H            2.439703119781    -2.230363251017     0.239562640238     1.007825032230
         H            5.452982119781    -0.645851251017    -0.605750359762     1.007825032230
         H            5.337074119781    -0.460954251017     1.147479640238     1.007825032230
         H            4.812082119781    -1.966697251017     0.381453640238     1.007825032230
         H           -4.875015880219     1.200398748983     0.710458640238     1.007825032230
         H           -3.227260880219    -2.615655251017    -0.395896359762     1.007825032230
         H           -5.183371880219    -1.242964251017     0.300288640238     1.007825032230

  Basis Set: AUG-CC-PVTZ
    Blend: AUG-CC-PVTZ
  Basis Set: (AUG-CC-PVTZ AUX)
    Blend: AUG-CC-PVTZ-JKFIT
	 Reference Energy          =    -570.4463146938620639 [Eh]
	 Singles Energy            =      -0.0000000000000000 [Eh]
	 Same-Spin Energy          =      -0.6398967445526358 [Eh]
	 Opposite-Spin Energy      =      -1.9754661391453283 [Eh]
	 Correlation Energy        =      -2.6153628836979639 [Eh]
	 Total Energy              =    -573.0616775775599763 [Eh]

	 ================> DF-SCS-MP2 Energies <==================
	-----------------------------------------------------------
	 SCS Same-Spin Scale       =       0.3333333333333333 [-]
	 SCS Opposite-Spin Scale   =       1.2000000000000000 [-]
	 SCS Same-Spin Energy      =      -0.2132989148508786 [Eh]
	 SCS Opposite-Spin Energy  =      -2.3705593669743941 [Eh]
	 SCS Correlation Energy    =      -2.5838582818252727 [Eh]
	 SCS Total Energy          =    -573.0301729756873783 [Eh]
	-----------------------------------------------------------

  Dipole Moment: [D]
     X:     1.7157      Y:     1.9020      Z:     0.1509     Total:     2.5660

*** Psi4 exiting successfully. Buy a developer a beer!
