                               Psi4 1.4a3.dev225

  ==> Input File <==

--------------------------------------------------------------------------
#psi4
#
memory 32 gb

molecule  {
0 1
  N       -0.4914050     1.0723760    -0.3164170
  N        1.0085960    -0.7184190    -0.0133500
  C       -1.7100270     0.3982770    -0.1243180
  C        0.7701658     0.5085550    -0.1683624
  C        3.4026260    -0.3179870     0.1123840
  C        1.8688800     1.5249980    -0.1805650
  C        3.1641670     1.0570110    -0.0435420
  C       -2.8187550     1.1723340     0.2577460
  C       -1.8866400    -0.9712620    -0.3801370
  C        2.2803750    -1.1431010     0.1169750
  C        4.7931030    -0.8701860     0.2621020
  C       -4.0754850     0.5909990     0.4048790
  C       -3.1483220    -1.5428300    -0.2100850
  C       -4.2492880    -0.7746780     0.1720620
  H       -0.5683120     2.0807040    -0.2404560
  H        1.6730390     2.5885970    -0.3025930
  H        3.9969070     1.7590030    -0.0564670
  H       -2.6877930     2.2355590     0.4578160
  H       -1.0395640    -1.5738120    -0.6782690
  H        2.3962560    -2.2212150     0.2333330
  H        5.4095350    -0.6367030    -0.6119800
  H        5.2936270    -0.4518060     1.1412500
  H        4.7686350    -1.9575490     0.3752240
  H       -4.9184630     1.2095470     0.7042290
  H       -3.2707080    -2.6065070    -0.4021260
  H       -5.2268190    -1.2338160     0.2940590
units angstrom
no_reorient  #important for SAPT in psi4, default
symmetry c1  #important for SAPT in psi4, default
}

set PROPERTIES_ORIGIN ["COM"]
properties('MP2/aug-cc-pvtz', properties = ['dipole'])
--------------------------------------------------------------------------

    Molecular point group: c1
  Charge       = 0
  Multiplicity = 1
  Basis Set: AUG-CC-PVTZ
    Blend: AUG-CC-PVTZ
  Basis Set: (AUG-CC-PVTZ AUX)
    Blend: AUG-CC-PVTZ-JKFIT

    Orbital Energies [Eh]
    ---------------------

    Doubly Occupied:

       1A    -15.589430     2A    -15.547072     3A    -11.324070
       4A    -11.279571     5A    -11.271280     6A    -11.255100
       7A    -11.245839     8A    -11.236293     9A    -11.234092
      10A    -11.230977    11A    -11.228927    12A    -11.228405
      13A    -11.221547    14A    -11.218941    15A     -1.304800
      16A     -1.229726    17A     -1.132513    18A     -1.101206
      19A     -1.036134    20A     -1.008521    21A     -0.991868
      22A     -0.940304    23A     -0.864116    24A     -0.842424
      25A     -0.822393    26A     -0.795229    27A     -0.726338
      28A     -0.716375    29A     -0.670258    30A     -0.663864
      31A     -0.635617    32A     -0.618426    33A     -0.599046
      34A     -0.593133    35A     -0.583191    36A     -0.580135
      37A     -0.571335    38A     -0.563060    39A     -0.547986
      40A     -0.520493    41A     -0.513207    42A     -0.505151
      43A     -0.488316    44A     -0.454153    45A     -0.406921
      46A     -0.386520    47A     -0.333475    48A     -0.330284
      49A     -0.277667

  @DF-RHF Final Energy:  -570.49124436753743

   => Energetics <=

    Nuclear Repulsion Energy =            791.4030961139833380
    One-Electron Energy =               -2342.8572203808344057
    Two-Electron Energy =                 980.9628798993136343
    Total Energy =                       -570.4912443675374334
  Basis Set: (AUG-CC-PVTZ AUX)
    Blend: AUG-CC-PVTZ-RI
    Molecular point group: c1

    Geometry (in Angstrom), charge = 0, multiplicity = 1:

       Center              X                  Y                   Z               Mass
    ------------   -----------------  -----------------  -----------------  -----------------
         N           -0.457748261133     1.073854948796    -0.310621693162    14.003074004430
         N            1.042252738867    -0.716940051204    -0.007554693162    14.003074004430
         C           -1.676370261133     0.399755948796    -0.118522693162    12.000000000000
         C            0.803822538867     0.510033948796    -0.162567093162    12.000000000000
         C            3.436282738867    -0.316508051204     0.118179306838    12.000000000000
         C            1.902536738867     1.526476948796    -0.174769693162    12.000000000000
         C            3.197823738867     1.058489948796    -0.037746693162    12.000000000000
         C           -2.785098261133     1.173812948796     0.263541306838    12.000000000000
         C           -1.852983261133    -0.969783051204    -0.374341693162    12.000000000000
         C            2.314031738867    -1.141622051204     0.122770306838    12.000000000000
         C            4.826759738867    -0.868707051204     0.267897306838    12.000000000000
         C           -4.041828261133     0.592477948796     0.410674306838    12.000000000000
         C           -3.114665261133    -1.541351051204    -0.204289693162    12.000000000000
         C           -4.215631261133    -0.773199051204     0.177857306838    12.000000000000
         H           -0.534655261133     2.082182948796    -0.234660693162     1.007825032230
         H            1.706695738867     2.590075948796    -0.296797693162     1.007825032230
         H            4.030563738867     1.760481948796    -0.050671693162     1.007825032230
         H           -2.654136261133     2.237037948796     0.463611306838     1.007825032230
         H           -1.005907261133    -1.572333051204    -0.672473693162     1.007825032230
         H            2.429912738867    -2.219736051204     0.239128306838     1.007825032230
         H            5.443191738867    -0.635224051204    -0.606184693162     1.007825032230
         H            5.327283738867    -0.450327051204     1.147045306838     1.007825032230
         H            4.802291738867    -1.956070051204     0.381019306838     1.007825032230
         H           -4.884806261133     1.211025948796     0.710024306838     1.007825032230
         H           -3.237051261133    -2.605028051204    -0.396330693162     1.007825032230
         H           -5.193162261133    -1.232337051204     0.299854306838     1.007825032230

  Basis Set: AUG-CC-PVTZ
    Blend: AUG-CC-PVTZ
  Basis Set: (AUG-CC-PVTZ AUX)
    Blend: AUG-CC-PVTZ-JKFIT
	 Reference Energy          =    -570.4912443675374334 [Eh]
	 Singles Energy            =      -0.0000000000000000 [Eh]
	 Same-Spin Energy          =      -0.6350039952706242 [Eh]
	 Opposite-Spin Energy      =      -1.9696874314954926 [Eh]
	 Correlation Energy        =      -2.6046914267661170 [Eh]
	 Total Energy              =    -573.0959357943035002 [Eh]

	 ================> DF-SCS-MP2 Energies <==================
	-----------------------------------------------------------
	 SCS Same-Spin Scale       =       0.3333333333333333 [-]
	 SCS Opposite-Spin Scale   =       1.2000000000000000 [-]
	 SCS Same-Spin Energy      =      -0.2116679984235414 [Eh]
	 SCS Opposite-Spin Energy  =      -2.3636249177945912 [Eh]
	 SCS Correlation Energy    =      -2.5752929162181326 [Eh]
	 SCS Total Energy          =    -573.0665372837555651 [Eh]
	-----------------------------------------------------------

  Dipole Moment: [D]
     X:     1.7894      Y:     1.8251      Z:     0.1455     Total:     2.5601

*** Psi4 exiting successfully. Buy a developer a beer!
