                               Psi4 1.4a3.dev225

  ==> Input File <==

--------------------------------------------------------------------------
#psi4
#
memory 32 gb

molecule  {
0 1
  N       -0.4914050     1.0723760    -0.3164170
  N        1.0085960    -0.7184190    -0.0133500
  C       -1.7100270     0.3982770    -0.1243180
  C        0.8049200     0.5981430    -0.1551110
  C        3.4026260    -0.3179870     0.1123840
  C        1.8688800     1.5249980    -0.1805650
  C        3.0684400     1.0364235    -0.0478873
  C       -2.8187550     1.1723340     0.2577460
  C       -1.8866400    -0.9712620    -0.3801370
  C        2.2803750    -1.1431010     0.1169750
  C        4.7931030    -0.8701860     0.2621020
  C       -4.0754850     0.5909990     0.4048790
  C       -3.1483220    -1.5428300    -0.2100850
  C       -4.2492880    -0.7746780     0.1720620
  H       -0.5683120     2.0807040    -0.2404560
  H        1.6730390     2.5885970    -0.3025930
  H        3.9969070     1.7590030    -0.0564670
  H       -2.6877930     2.2355590     0.4578160
  H       -1.0395640    -1.5738120    -0.6782690
  H        2.3962560    -2.2212150     0.2333330
  H        5.4095350    -0.6367030    -0.6119800
  H        5.2936270    -0.4518060     1.1412500
  H        4.7686350    -1.9575490     0.3752240
  H       -4.9184630     1.2095470     0.7042290
  H       -3.2707080    -2.6065070    -0.4021260
  H       -5.2268190    -1.2338160     0.2940590
units angstrom
no_reorient  #important for SAPT in psi4, default
symmetry c1  #important for SAPT in psi4, default
}

set PROPERTIES_ORIGIN ["COM"]
properties('MP2/aug-cc-pvtz', properties = ['dipole'])
--------------------------------------------------------------------------

    Molecular point group: c1
  Charge       = 0
  Multiplicity = 1
  Basis Set: AUG-CC-PVTZ
    Blend: AUG-CC-PVTZ
  Basis Set: (AUG-CC-PVTZ AUX)
    Blend: AUG-CC-PVTZ-JKFIT

    Orbital Energies [Eh]
    ---------------------

    Doubly Occupied:

       1A    -15.591242     2A    -15.550806     3A    -11.324533
       4A    -11.281557     5A    -11.269880     6A    -11.254693
       7A    -11.234382     8A    -11.232919     9A    -11.231132
      10A    -11.230878    11A    -11.230386    12A    -11.229574
      13A    -11.222324    14A    -11.219214    15A     -1.295163
      16A     -1.222125    17A     -1.133579    18A     -1.103102
      19A     -1.052973    20A     -1.008786    21A     -0.996875
      22A     -0.935478    23A     -0.861449    24A     -0.845855
      25A     -0.822943    26A     -0.795288    27A     -0.720730
      28A     -0.717311    29A     -0.673750    30A     -0.654788
      31A     -0.644840    32A     -0.617706    33A     -0.594391
      34A     -0.593205    35A     -0.588624    36A     -0.579893
      37A     -0.569321    38A     -0.548180    39A     -0.545357
      40A     -0.522506    41A     -0.512018    42A     -0.505734
      43A     -0.487596    44A     -0.455687    45A     -0.409470
      46A     -0.392617    47A     -0.336377    48A     -0.330852
      49A     -0.278195

  @DF-RHF Final Energy:  -570.48748807750258

   => Energetics <=

    Nuclear Repulsion Energy =            792.5586114829690132
    One-Electron Energy =               -2345.1796353109725715
    Two-Electron Energy =                 982.1335357505010961
    Total Energy =                       -570.4874880775025758
  Basis Set: (AUG-CC-PVTZ AUX)
    Blend: AUG-CC-PVTZ-RI
    Molecular point group: c1

    Geometry (in Angstrom), charge = 0, multiplicity = 1:

       Center              X                  Y                   Z               Mass
    ------------   -----------------  -----------------  -----------------  -----------------
         N           -0.453773935181     1.069357361712    -0.311202210120    14.003074004430
         N            1.046227064819    -0.721437638288    -0.008135210120    14.003074004430
         C           -1.672395935181     0.395258361712    -0.119103210120    12.000000000000
         C            0.842551064819     0.595124361712    -0.149896210120    12.000000000000
         C            3.440257064819    -0.321005638288     0.117598789880    12.000000000000
         C            1.906511064819     1.521979361712    -0.175350210120    12.000000000000
         C            3.106071064819     1.033404861712    -0.042672510120    12.000000000000
         C           -2.781123935181     1.169315361712     0.262960789880    12.000000000000
         C           -1.849008935181    -0.974280638288    -0.374922210120    12.000000000000
         C            2.318006064819    -1.146119638288     0.122189789880    12.000000000000
         C            4.830734064819    -0.873204638288     0.267316789880    12.000000000000
         C           -4.037853935181     0.587980361712     0.410093789880    12.000000000000
         C           -3.110690935181    -1.545848638288    -0.204870210120    12.000000000000
         C           -4.211656935181    -0.777696638288     0.177276789880    12.000000000000
         H           -0.530680935181     2.077685361712    -0.235241210120     1.007825032230
         H            1.710670064819     2.585578361712    -0.297378210120     1.007825032230
         H            4.034538064819     1.755984361712    -0.051252210120     1.007825032230
         H           -2.650161935181     2.232540361712     0.463030789880     1.007825032230
         H           -1.001932935181    -1.576830638288    -0.673054210120     1.007825032230
         H            2.433887064819    -2.224233638288     0.238547789880     1.007825032230
         H            5.447166064819    -0.639721638288    -0.606765210120     1.007825032230
         H            5.331258064819    -0.454824638288     1.146464789880     1.007825032230
         H            4.806266064819    -1.960567638288     0.380438789880     1.007825032230
         H           -4.880831935181     1.206528361712     0.709443789880     1.007825032230
         H           -3.233076935181    -2.609525638288    -0.396911210120     1.007825032230
         H           -5.189187935181    -1.236834638288     0.299273789880     1.007825032230

  Basis Set: AUG-CC-PVTZ
    Blend: AUG-CC-PVTZ
  Basis Set: (AUG-CC-PVTZ AUX)
    Blend: AUG-CC-PVTZ-JKFIT
	 Reference Energy          =    -570.4874880775025758 [Eh]
	 Singles Energy            =      -0.0000000000000000 [Eh]
	 Same-Spin Energy          =      -0.6361231734916646 [Eh]
	 Opposite-Spin Energy      =      -1.9705531511855208 [Eh]
	 Correlation Energy        =      -2.6066763246771854 [Eh]
	 Total Energy              =    -573.0941644021797856 [Eh]

	 ================> DF-SCS-MP2 Energies <==================
	-----------------------------------------------------------
	 SCS Same-Spin Scale       =       0.3333333333333333 [-]
	 SCS Opposite-Spin Scale   =       1.2000000000000000 [-]
	 SCS Same-Spin Energy      =      -0.2120410578305549 [Eh]
	 SCS Opposite-Spin Energy  =      -2.3646637814226250 [Eh]
	 SCS Correlation Energy    =      -2.5767048392531797 [Eh]
	 SCS Total Energy          =    -573.0641929167557009 [Eh]
	-----------------------------------------------------------

  Dipole Moment: [D]
     X:     1.7436      Y:     1.8300      Z:     0.1592     Total:     2.5327

*** Psi4 exiting successfully. Buy a developer a beer!
