                               Psi4 1.4a3.dev225

  ==> Input File <==

--------------------------------------------------------------------------
#psi4
#
memory 32 gb

molecule  {
0 1
  N       -0.4914050     1.0723760    -0.3164170
  N        1.0085960    -0.7184190    -0.0133500
  C       -1.7765992     0.5235021    -0.1635625
  C        0.8049200     0.5981430    -0.1551110
  C        3.4026260    -0.3179870     0.1123840
  C        1.8688800     1.5249980    -0.1805650
  C        3.1641670     1.0570110    -0.0435420
  C       -2.8187550     1.1723340     0.2577460
  C       -1.8866400    -0.9712620    -0.3801370
  C        2.2803750    -1.1431010     0.1169750
  C        4.7931030    -0.8701860     0.2621020
  C       -4.0754850     0.5909990     0.4048790
  C       -3.1483220    -1.5428300    -0.2100850
  C       -4.2492880    -0.7746780     0.1720620
  H       -0.5683120     2.0807040    -0.2404560
  H        1.6730390     2.5885970    -0.3025930
  H        3.9969070     1.7590030    -0.0564670
  H       -2.6877930     2.2355590     0.4578160
  H       -1.0395640    -1.5738120    -0.6782690
  H        2.3962560    -2.2212150     0.2333330
  H        5.4095350    -0.6367030    -0.6119800
  H        5.2936270    -0.4518060     1.1412500
  H        4.7686350    -1.9575490     0.3752240
  H       -4.9184630     1.2095470     0.7042290
  H       -3.2707080    -2.6065070    -0.4021260
  H       -5.2268190    -1.2338160     0.2940590
units angstrom
no_reorient  #important for SAPT in psi4, default
symmetry c1  #important for SAPT in psi4, default
}

set PROPERTIES_ORIGIN ["COM"]
properties('MP2/aug-cc-pvtz', properties = ['dipole'])
--------------------------------------------------------------------------

    Molecular point group: c1
  Charge       = 0
  Multiplicity = 1
  Basis Set: AUG-CC-PVTZ
    Blend: AUG-CC-PVTZ
  Basis Set: (AUG-CC-PVTZ AUX)
    Blend: AUG-CC-PVTZ-JKFIT

    Orbital Energies [Eh]
    ---------------------

    Doubly Occupied:

       1A    -15.587851     2A    -15.554089     3A    -11.326602
       4A    -11.279398     5A    -11.272987     6A    -11.258867
       7A    -11.239688     8A    -11.235634     9A    -11.233864
      10A    -11.229699    11A    -11.229130    12A    -11.227410
      13A    -11.222834    14A    -11.216506    15A     -1.292263
      16A     -1.221656    17A     -1.135419    18A     -1.097356
      19A     -1.048849    20A     -1.015377    21A     -0.986888
      22A     -0.935655    23A     -0.868447    24A     -0.844654
      25A     -0.818332    26A     -0.797548    27A     -0.729742
      28A     -0.710550    29A     -0.673078    30A     -0.652705
      31A     -0.637780    32A     -0.622312    33A     -0.600679
      34A     -0.592780    35A     -0.583036    36A     -0.579315
      37A     -0.568589    38A     -0.560549    39A     -0.546915
      40A     -0.520101    41A     -0.513054    42A     -0.507877
      43A     -0.474926    44A     -0.453775    45A     -0.415571
      46A     -0.381844    47A     -0.348784    48A     -0.322049
      49A     -0.276868

  @DF-RHF Final Energy:  -570.47673158492421

   => Energetics <=

    Nuclear Repulsion Energy =            790.1898853727030883
    One-Electron Energy =               -2340.4334761963286837
    Two-Electron Energy =                 979.7668592387014996
    Total Energy =                       -570.4767315849242095
  Basis Set: (AUG-CC-PVTZ AUX)
    Blend: AUG-CC-PVTZ-RI
    Molecular point group: c1

    Geometry (in Angstrom), charge = 0, multiplicity = 1:

       Center              X                  Y                   Z               Mass
    ------------   -----------------  -----------------  -----------------  -----------------
         N           -0.455674301874     1.059853012227    -0.308927412239    14.003074004430
         N            1.044326698126    -0.730941987773    -0.005860412239    14.003074004430
         C           -1.740868501874     0.510979112227    -0.156072912239    12.000000000000
         C            0.840650698126     0.585620012227    -0.147621412239    12.000000000000
         C            3.438356698126    -0.330509987773     0.119873587761    12.000000000000
         C            1.904610698126     1.512475012227    -0.173075412239    12.000000000000
         C            3.199897698126     1.044488012227    -0.036052412239    12.000000000000
         C           -2.783024301874     1.159811012227     0.265235587761    12.000000000000
         C           -1.850909301874    -0.983784987773    -0.372647412239    12.000000000000
         C            2.316105698126    -1.155623987773     0.124464587761    12.000000000000
         C            4.828833698126    -0.882708987773     0.269591587761    12.000000000000
         C           -4.039754301874     0.578476012227     0.412368587761    12.000000000000
         C           -3.112591301874    -1.555352987773    -0.202595412239    12.000000000000
         C           -4.213557301874    -0.787200987773     0.179551587761    12.000000000000
         H           -0.532581301874     2.068181012227    -0.232966412239     1.007825032230
         H            1.708769698126     2.576074012227    -0.295103412239     1.007825032230
         H            4.032637698126     1.746480012227    -0.048977412239     1.007825032230
         H           -2.652062301874     2.223036012227     0.465305587761     1.007825032230
         H           -1.003833301874    -1.586334987773    -0.670779412239     1.007825032230
         H            2.431986698126    -2.233737987773     0.240822587761     1.007825032230
         H            5.445265698126    -0.649225987773    -0.604490412239     1.007825032230
         H            5.329357698126    -0.464328987773     1.148739587761     1.007825032230
         H            4.804365698126    -1.970071987773     0.382713587761     1.007825032230
         H           -4.882732301874     1.197024012227     0.711718587761     1.007825032230
         H           -3.234977301874    -2.619029987773    -0.394636412239     1.007825032230
         H           -5.191088301874    -1.246338987773     0.301548587761     1.007825032230

  Basis Set: AUG-CC-PVTZ
    Blend: AUG-CC-PVTZ
  Basis Set: (AUG-CC-PVTZ AUX)
    Blend: AUG-CC-PVTZ-JKFIT
	 Reference Energy          =    -570.4767315849242095 [Eh]
	 Singles Energy            =      -0.0000000000000000 [Eh]
	 Same-Spin Energy          =      -0.6360762793899520 [Eh]
	 Opposite-Spin Energy      =      -1.9719093465786461 [Eh]
	 Correlation Energy        =      -2.6079856259685981 [Eh]
	 Total Energy              =    -573.0847172108927907 [Eh]

	 ================> DF-SCS-MP2 Energies <==================
	-----------------------------------------------------------
	 SCS Same-Spin Scale       =       0.3333333333333333 [-]
	 SCS Opposite-Spin Scale   =       1.2000000000000000 [-]
	 SCS Same-Spin Energy      =      -0.2120254264633173 [Eh]
	 SCS Opposite-Spin Energy  =      -2.3662912158943752 [Eh]
	 SCS Correlation Energy    =      -2.5783166423576924 [Eh]
	 SCS Total Energy          =    -573.0550482272818726 [Eh]
	-----------------------------------------------------------

  Dipole Moment: [D]
     X:     1.8953      Y:     1.8287      Z:     0.1763     Total:     2.6396

*** Psi4 exiting successfully. Buy a developer a beer!
