                               Psi4 1.4a3.dev225

  ==> Input File <==

--------------------------------------------------------------------------
#psi4
#
memory 32 gb

molecule  {
0 1
  N       -0.4914050     1.0723760    -0.3164170
  N        1.0085960    -0.7184190    -0.0133500
  C       -1.7100270     0.3982770    -0.1243180
  C        0.8049200     0.5981430    -0.1551110
  C        3.4026260    -0.3179870     0.1123840
  C        1.8688800     1.5249980    -0.1805650
  C        3.1556761     1.1059710    -0.0490941
  C       -2.8187550     1.1723340     0.2577460
  C       -1.8866400    -0.9712620    -0.3801370
  C        2.2803750    -1.1431010     0.1169750
  C        4.7931030    -0.8701860     0.2621020
  C       -4.0754850     0.5909990     0.4048790
  C       -3.1483220    -1.5428300    -0.2100850
  C       -4.2492880    -0.7746780     0.1720620
  H       -0.5683120     2.0807040    -0.2404560
  H        1.6730390     2.5885970    -0.3025930
  H        3.9969070     1.7590030    -0.0564670
  H       -2.6877930     2.2355590     0.4578160
  H       -1.0395640    -1.5738120    -0.6782690
  H        2.3962560    -2.2212150     0.2333330
  H        5.4095350    -0.6367030    -0.6119800
  H        5.2936270    -0.4518060     1.1412500
  H        4.7686350    -1.9575490     0.3752240
  H       -4.9184630     1.2095470     0.7042290
  H       -3.2707080    -2.6065070    -0.4021260
  H       -5.2268190    -1.2338160     0.2940590
units angstrom
no_reorient  #important for SAPT in psi4, default
symmetry c1  #important for SAPT in psi4, default
}

set PROPERTIES_ORIGIN ["COM"]
properties('MP2/aug-cc-pvtz', properties = ['dipole'])
--------------------------------------------------------------------------

    Molecular point group: c1
  Charge       = 0
  Multiplicity = 1
  Basis Set: AUG-CC-PVTZ
    Blend: AUG-CC-PVTZ
  Basis Set: (AUG-CC-PVTZ AUX)
    Blend: AUG-CC-PVTZ-JKFIT

    Orbital Energies [Eh]
    ---------------------

    Doubly Occupied:

       1A    -15.590566     2A    -15.552062     3A    -11.324497
       4A    -11.281390     5A    -11.269335     6A    -11.259083
       7A    -11.238846     8A    -11.238507     9A    -11.234061
      10A    -11.230563    11A    -11.229165    12A    -11.228337
      13A    -11.221922    14A    -11.218826    15A     -1.293205
      16A     -1.218988    17A     -1.133065    18A     -1.093525
      19A     -1.047391    20A     -1.008399    21A     -0.994629
      22A     -0.933413    23A     -0.867697    24A     -0.839963
      25A     -0.820272    26A     -0.799537    27A     -0.725446
      28A     -0.715327    29A     -0.671026    30A     -0.652835
      31A     -0.636216    32A     -0.622825    33A     -0.596628
      34A     -0.593553    35A     -0.587730    36A     -0.580286
      37A     -0.571971    38A     -0.567198    39A     -0.545817
      40A     -0.515596    41A     -0.508569    42A     -0.502747
      43A     -0.487403    44A     -0.453316    45A     -0.413390
      46A     -0.383490    47A     -0.335236    48A     -0.330285
      49A     -0.276696

  @DF-RHF Final Energy:  -570.49606805373207

   => Energetics <=

    Nuclear Repulsion Energy =            790.2606026984640266
    One-Electron Energy =               -2340.6316752283796632
    Two-Electron Energy =                 979.8750044761835625
    Total Energy =                       -570.4960680537320741
  Basis Set: (AUG-CC-PVTZ AUX)
    Blend: AUG-CC-PVTZ-RI
    Molecular point group: c1

    Geometry (in Angstrom), charge = 0, multiplicity = 1:

       Center              X                  Y                   Z               Mass
    ------------   -----------------  -----------------  -----------------  -----------------
         N           -0.459460154219     1.064824120100    -0.311123548544    14.003074004430
         N            1.040540845781    -0.725970879900    -0.008056548544    14.003074004430
         C           -1.678082154219     0.390725120100    -0.119024548544    12.000000000000
         C            0.836864845781     0.590591120100    -0.149817548544    12.000000000000
         C            3.434570845781    -0.325538879900     0.117677451456    12.000000000000
         C            1.900824845781     1.517446120100    -0.175271548544    12.000000000000
         C            3.187620945781     1.098419120100    -0.043800648544    12.000000000000
         C           -2.786810154219     1.164782120100     0.263039451456    12.000000000000
         C           -1.854695154219    -0.978813879900    -0.374843548544    12.000000000000
         C            2.312319845781    -1.150652879900     0.122268451456    12.000000000000
         C            4.825047845781    -0.877737879900     0.267395451456    12.000000000000
         C           -4.043540154219     0.583447120100     0.410172451456    12.000000000000
         C           -3.116377154219    -1.550381879900    -0.204791548544    12.000000000000
         C           -4.217343154219    -0.782229879900     0.177355451456    12.000000000000
         H           -0.536367154219     2.073152120100    -0.235162548544     1.007825032230
         H            1.704983845781     2.581045120100    -0.297299548544     1.007825032230
         H            4.028851845781     1.751451120100    -0.051173548544     1.007825032230
         H           -2.655848154219     2.228007120100     0.463109451456     1.007825032230
         H           -1.007619154219    -1.581363879900    -0.672975548544     1.007825032230
         H            2.428200845781    -2.228766879900     0.238626451456     1.007825032230
         H            5.441479845781    -0.644254879900    -0.606686548544     1.007825032230
         H            5.325571845781    -0.459357879900     1.146543451456     1.007825032230
         H            4.800579845781    -1.965100879900     0.380517451456     1.007825032230
         H           -4.886518154219     1.201995120100     0.709522451456     1.007825032230
         H           -3.238763154219    -2.614058879900    -0.396832548544     1.007825032230
         H           -5.194874154219    -1.241367879900     0.299352451456     1.007825032230

  Basis Set: AUG-CC-PVTZ
    Blend: AUG-CC-PVTZ
  Basis Set: (AUG-CC-PVTZ AUX)
    Blend: AUG-CC-PVTZ-JKFIT
	 Reference Energy          =    -570.4960680537320741 [Eh]
	 Singles Energy            =      -0.0000000000000000 [Eh]
	 Same-Spin Energy          =      -0.6361434847147261 [Eh]
	 Opposite-Spin Energy      =      -1.9710372889040106 [Eh]
	 Correlation Energy        =      -2.6071807736187367 [Eh]
	 Total Energy              =    -573.1032488273508534 [Eh]

	 ================> DF-SCS-MP2 Energies <==================
	-----------------------------------------------------------
	 SCS Same-Spin Scale       =       0.3333333333333333 [-]
	 SCS Opposite-Spin Scale   =       1.2000000000000000 [-]
	 SCS Same-Spin Energy      =      -0.2120478282382420 [Eh]
	 SCS Opposite-Spin Energy  =      -2.3652447466848128 [Eh]
	 SCS Correlation Energy    =      -2.5772925749230549 [Eh]
	 SCS Total Energy          =    -573.0733606286551094 [Eh]
	-----------------------------------------------------------

  Dipole Moment: [D]
     X:     1.8365      Y:     1.8971      Z:     0.1591     Total:     2.6452

*** Psi4 exiting successfully. Buy a developer a beer!
