                               Psi4 1.4a3.dev225

  ==> Input File <==

--------------------------------------------------------------------------
#psi4
#
memory 32 gb

molecule  {
0 1
  N       -0.4914050     1.0723760    -0.3164170
  N        1.0085960    -0.7184190    -0.0133500
  C       -1.7100270     0.3982770    -0.1243180
  C        0.8049200     0.5981430    -0.1551110
  C        3.4026260    -0.3179870     0.1123840
  C        1.8688800     1.5249980    -0.1805650
  C        3.1641670     1.0570110    -0.0435420
  C       -2.6609445     1.0621588     0.2033650
  C       -1.8866400    -0.9712620    -0.3801370
  C        2.2803750    -1.1431010     0.1169750
  C        4.7931030    -0.8701860     0.2621020
  C       -4.0754850     0.5909990     0.4048790
  C       -3.1483220    -1.5428300    -0.2100850
  C       -4.2492880    -0.7746780     0.1720620
  H       -0.5683120     2.0807040    -0.2404560
  H        1.6730390     2.5885970    -0.3025930
  H        3.9969070     1.7590030    -0.0564670
  H       -2.6877930     2.2355590     0.4578160
  H       -1.0395640    -1.5738120    -0.6782690
  H        2.3962560    -2.2212150     0.2333330
  H        5.4095350    -0.6367030    -0.6119800
  H        5.2936270    -0.4518060     1.1412500
  H        4.7686350    -1.9575490     0.3752240
  H       -4.9184630     1.2095470     0.7042290
  H       -3.2707080    -2.6065070    -0.4021260
  H       -5.2268190    -1.2338160     0.2940590
units angstrom
no_reorient  #important for SAPT in psi4, default
symmetry c1  #important for SAPT in psi4, default
}

set PROPERTIES_ORIGIN ["COM"]
properties('MP2/aug-cc-pvtz', properties = ['dipole'])
--------------------------------------------------------------------------

    Molecular point group: c1
  Charge       = 0
  Multiplicity = 1
  Basis Set: AUG-CC-PVTZ
    Blend: AUG-CC-PVTZ
  Basis Set: (AUG-CC-PVTZ AUX)
    Blend: AUG-CC-PVTZ-JKFIT

    Orbital Energies [Eh]
    ---------------------

    Doubly Occupied:

       1A    -15.581629     2A    -15.551441     3A    -11.320608
       4A    -11.271335     5A    -11.256859     6A    -11.253165
       7A    -11.244144     8A    -11.236206     9A    -11.233010
      10A    -11.229469    11A    -11.227549    12A    -11.226831
      13A    -11.224837    14A    -11.223396    15A     -1.293256
      16A     -1.225543    17A     -1.142277    18A     -1.095153
      19A     -1.052366    20A     -1.013164    21A     -0.992643
      22A     -0.933808    23A     -0.866340    24A     -0.848578
      25A     -0.818960    26A     -0.794751    27A     -0.727486
      28A     -0.711879    29A     -0.664686    30A     -0.650834
      31A     -0.633419    32A     -0.632362    33A     -0.600676
      34A     -0.596468    35A     -0.589817    36A     -0.572613
      37A     -0.565356    38A     -0.556021    39A     -0.544832
      40A     -0.521213    41A     -0.517793    42A     -0.506700
      43A     -0.463795    44A     -0.451628    45A     -0.413237
      46A     -0.380049    47A     -0.355636    48A     -0.316289
      49A     -0.285985

  @DF-RHF Final Energy:  -570.43818828576218

   => Energetics <=

    Nuclear Repulsion Energy =            794.2933149374342747
    One-Electron Energy =               -2348.6308261495705665
    Two-Electron Energy =                 983.8993229263739977
    Total Energy =                       -570.4381882857621804
  Basis Set: (AUG-CC-PVTZ AUX)
    Blend: AUG-CC-PVTZ-RI
    Molecular point group: c1

    Geometry (in Angstrom), charge = 0, multiplicity = 1:

       Center              X                  Y                   Z               Mass
    ------------   -----------------  -----------------  -----------------  -----------------
         N           -0.470300003624     1.075196862621    -0.307940785665    14.003074004430
         N            1.029700996376    -0.715598137379    -0.004873785665    14.003074004430
         C           -1.688922003624     0.401097862621    -0.115841785665    12.000000000000
         C            0.826024996376     0.600963862621    -0.146634785665    12.000000000000
         C            3.423730996376    -0.315166137379     0.120860214335    12.000000000000
         C            1.889984996376     1.527818862621    -0.172088785665    12.000000000000
         C            3.185271996376     1.059831862621    -0.035065785665    12.000000000000
         C           -2.639839503624     1.064979662621     0.211841214335    12.000000000000
         C           -1.865535003624    -0.968441137379    -0.371660785665    12.000000000000
         C            2.301479996376    -1.140280137379     0.125451214335    12.000000000000
         C            4.814207996376    -0.867365137379     0.270578214335    12.000000000000
         C           -4.054380003624     0.593819862621     0.413355214335    12.000000000000
         C           -3.127217003624    -1.540009137379    -0.201608785665    12.000000000000
         C           -4.228183003624    -0.771857137379     0.180538214335    12.000000000000
         H           -0.547207003624     2.083524862621    -0.231979785665     1.007825032230
         H            1.694143996376     2.591417862621    -0.294116785665     1.007825032230
         H            4.018011996376     1.761823862621    -0.047990785665     1.007825032230
         H           -2.666688003624     2.238379862621     0.466292214335     1.007825032230
         H           -1.018459003624    -1.570991137379    -0.669792785665     1.007825032230
         H            2.417360996376    -2.218394137379     0.241809214335     1.007825032230
         H            5.430639996376    -0.633882137379    -0.603503785665     1.007825032230
         H            5.314731996376    -0.448985137379     1.149726214335     1.007825032230
         H            4.789739996376    -1.954728137379     0.383700214335     1.007825032230
         H           -4.897358003624     1.212367862621     0.712705214335     1.007825032230
         H           -3.249603003624    -2.603686137379    -0.393649785665     1.007825032230
         H           -5.205714003624    -1.230995137379     0.302535214335     1.007825032230

  Basis Set: AUG-CC-PVTZ
    Blend: AUG-CC-PVTZ
  Basis Set: (AUG-CC-PVTZ AUX)
    Blend: AUG-CC-PVTZ-JKFIT
	 Reference Energy          =    -570.4381882857621804 [Eh]
	 Singles Energy            =      -0.0000000000000000 [Eh]
	 Same-Spin Energy          =      -0.6358119285701911 [Eh]
	 Opposite-Spin Energy      =      -1.9724856488631137 [Eh]
	 Correlation Energy        =      -2.6082975774333050 [Eh]
	 Total Energy              =    -573.0464858631954712 [Eh]

	 ================> DF-SCS-MP2 Energies <==================
	-----------------------------------------------------------
	 SCS Same-Spin Scale       =       0.3333333333333333 [-]
	 SCS Opposite-Spin Scale   =       1.2000000000000000 [-]
	 SCS Same-Spin Energy      =      -0.2119373095233970 [Eh]
	 SCS Opposite-Spin Energy  =      -2.3669827786357365 [Eh]
	 SCS Correlation Energy    =      -2.5789200881591334 [Eh]
	 SCS Total Energy          =    -573.0171083739213600 [Eh]
	-----------------------------------------------------------

  Dipole Moment: [D]
     X:     1.4209      Y:     1.6940      Z:     0.1937     Total:     2.2195

*** Psi4 exiting successfully. Buy a developer a beer!
