                               Psi4 1.4a3.dev225

  ==> Input File <==

--------------------------------------------------------------------------
#psi4
#
memory 32 gb

molecule  {
0 1
  N       -0.4914050     1.0723760    -0.3164170
  N        1.0085960    -0.7184190    -0.0133500
  C       -1.7696702     0.3204717    -0.1271783
  C        0.8049200     0.5981430    -0.1551110
  C        3.4026260    -0.3179870     0.1123840
  C        1.8688800     1.5249980    -0.1805650
  C        3.1641670     1.0570110    -0.0435420
  C       -2.8187550     1.1723340     0.2577460
  C       -1.8866400    -0.9712620    -0.3801370
  C        2.2803750    -1.1431010     0.1169750
  C        4.7931030    -0.8701860     0.2621020
  C       -4.0754850     0.5909990     0.4048790
  C       -3.1483220    -1.5428300    -0.2100850
  C       -4.2492880    -0.7746780     0.1720620
  H       -0.5683120     2.0807040    -0.2404560
  H        1.6730390     2.5885970    -0.3025930
  H        3.9969070     1.7590030    -0.0564670
  H       -2.6877930     2.2355590     0.4578160
  H       -1.0395640    -1.5738120    -0.6782690
  H        2.3962560    -2.2212150     0.2333330
  H        5.4095350    -0.6367030    -0.6119800
  H        5.2936270    -0.4518060     1.1412500
  H        4.7686350    -1.9575490     0.3752240
  H       -4.9184630     1.2095470     0.7042290
  H       -3.2707080    -2.6065070    -0.4021260
  H       -5.2268190    -1.2338160     0.2940590
units angstrom
no_reorient  #important for SAPT in psi4, default
symmetry c1  #important for SAPT in psi4, default
}

set PROPERTIES_ORIGIN ["COM"]
properties('MP2/aug-cc-pvtz', properties = ['dipole'])
--------------------------------------------------------------------------

    Molecular point group: c1
  Charge       = 0
  Multiplicity = 1
  Basis Set: AUG-CC-PVTZ
    Blend: AUG-CC-PVTZ
  Basis Set: (AUG-CC-PVTZ AUX)
    Blend: AUG-CC-PVTZ-JKFIT

    Orbital Energies [Eh]
    ---------------------

    Doubly Occupied:

       1A    -15.580805     2A    -15.548253     3A    -11.317129
       4A    -11.278291     5A    -11.269039     6A    -11.254524
       7A    -11.237218     8A    -11.234937     9A    -11.234125
      10A    -11.233402    11A    -11.230352    12A    -11.226439
      13A    -11.225870    14A    -11.213734    15A     -1.279843
      16A     -1.206678    17A     -1.142962    18A     -1.092517
      19A     -1.039819    20A     -1.019935    21A     -0.996786
      22A     -0.930211    23A     -0.862125    24A     -0.839562
      25A     -0.824435    26A     -0.796949    27A     -0.716643
      28A     -0.711511    29A     -0.669513    30A     -0.646816
      31A     -0.632465    32A     -0.623903    33A     -0.604027
      34A     -0.588255    35A     -0.584769    36A     -0.581947
      37A     -0.563891    38A     -0.557976    39A     -0.543533
      40A     -0.516135    41A     -0.512988    42A     -0.504546
      43A     -0.495870    44A     -0.449368    45A     -0.409689
      46A     -0.377567    47A     -0.341189    48A     -0.334270
      49A     -0.280750

  @DF-RHF Final Energy:  -570.48797553952784

   => Energetics <=

    Nuclear Repulsion Energy =            790.8337581481580401
    One-Electron Energy =               -2341.9163411681306570
    Two-Electron Energy =                 980.5946074804447790
    Total Energy =                       -570.4879755395278380
  Basis Set: (AUG-CC-PVTZ AUX)
    Blend: AUG-CC-PVTZ-RI
    Molecular point group: c1

    Geometry (in Angstrom), charge = 0, multiplicity = 1:

       Center              X                  Y                   Z               Mass
    ------------   -----------------  -----------------  -----------------  -----------------
         N           -0.456125947599     1.073086929444    -0.311299005315    14.003074004430
         N            1.043875052401    -0.717708070556    -0.008232005315    14.003074004430
         C           -1.734391147599     0.321182629444    -0.122060305315    12.000000000000
         C            0.840199052401     0.598853929444    -0.149993005315    12.000000000000
         C            3.437905052401    -0.317276070556     0.117501994685    12.000000000000
         C            1.904159052401     1.525708929444    -0.175447005315    12.000000000000
         C            3.199446052401     1.057721929444    -0.038424005315    12.000000000000
         C           -2.783475947599     1.173044929444     0.262863994685    12.000000000000
         C           -1.851360947599    -0.970551070556    -0.375019005315    12.000000000000
         C            2.315654052401    -1.142390070556     0.122092994685    12.000000000000
         C            4.828382052401    -0.869475070556     0.267219994685    12.000000000000
         C           -4.040205947599     0.591709929444     0.409996994685    12.000000000000
         C           -3.113042947599    -1.542119070556    -0.204967005315    12.000000000000
         C           -4.214008947599    -0.773967070556     0.177179994685    12.000000000000
         H           -0.533032947599     2.081414929444    -0.235338005315     1.007825032230
         H            1.708318052401     2.589307929444    -0.297475005315     1.007825032230
         H            4.032186052401     1.759713929444    -0.051349005315     1.007825032230
         H           -2.652513947599     2.236269929444     0.462933994685     1.007825032230
         H           -1.004284947599    -1.573101070556    -0.673151005315     1.007825032230
         H            2.431535052401    -2.220504070556     0.238450994685     1.007825032230
         H            5.444814052401    -0.635992070556    -0.606862005315     1.007825032230
         H            5.328906052401    -0.451095070556     1.146367994685     1.007825032230
         H            4.803914052401    -1.956838070556     0.380341994685     1.007825032230
         H           -4.883183947599     1.210257929444     0.709346994685     1.007825032230
         H           -3.235428947599    -2.605796070556    -0.397008005315     1.007825032230
         H           -5.191539947599    -1.233105070556     0.299176994685     1.007825032230

  Basis Set: AUG-CC-PVTZ
    Blend: AUG-CC-PVTZ
  Basis Set: (AUG-CC-PVTZ AUX)
    Blend: AUG-CC-PVTZ-JKFIT
	 Reference Energy          =    -570.4879755395278380 [Eh]
	 Singles Energy            =      -0.0000000000000000 [Eh]
	 Same-Spin Energy          =      -0.6357879758521070 [Eh]
	 Opposite-Spin Energy      =      -1.9706729140028869 [Eh]
	 Correlation Energy        =      -2.6064608898549939 [Eh]
	 Total Energy              =    -573.0944364293828812 [Eh]

	 ================> DF-SCS-MP2 Energies <==================
	-----------------------------------------------------------
	 SCS Same-Spin Scale       =       0.3333333333333333 [-]
	 SCS Opposite-Spin Scale   =       1.2000000000000000 [-]
	 SCS Same-Spin Energy      =      -0.2119293252840357 [Eh]
	 SCS Opposite-Spin Energy  =      -2.3648074968034640 [Eh]
	 SCS Correlation Energy    =      -2.5767368220874998 [Eh]
	 SCS Total Energy          =    -573.0647123616153067 [Eh]
	-----------------------------------------------------------

  Dipole Moment: [D]
     X:     1.1043      Y:     1.7035      Z:     0.2050     Total:     2.0405

*** Psi4 exiting successfully. Buy a developer a beer!
