                               Psi4 1.4a3.dev225

  ==> Input File <==

--------------------------------------------------------------------------
#psi4
#
memory 32 gb

molecule  {
0 1
  N       -0.4914050     1.0723760    -0.3164170
  N        1.0085960    -0.7184190    -0.0133500
  C       -1.7100270     0.3982770    -0.1243180
  C        0.8049200     0.5981430    -0.1551110
  C        3.4026260    -0.3179870     0.1123840
  C        1.8688800     1.5249980    -0.1805650
  C        3.1641670     1.0570110    -0.0435420
  C       -2.8187550     1.1723340     0.2577460
  C       -1.8866400    -0.9712620    -0.3801370
  C        2.2803750    -1.1431010     0.1169750
  C        4.7931030    -0.8701860     0.2621020
  C       -4.0754850     0.5909990     0.4048790
  C       -3.1483220    -1.5428300    -0.2100850
  C       -4.2492880    -0.7746780     0.1720620
  H       -0.5683120     2.0807040    -0.2404560
  H        1.6550446     2.6863236    -0.3138053
  H        3.9969070     1.7590030    -0.0564670
  H       -2.6877930     2.2355590     0.4578160
  H       -1.0395640    -1.5738120    -0.6782690
  H        2.3962560    -2.2212150     0.2333330
  H        5.4095350    -0.6367030    -0.6119800
  H        5.2936270    -0.4518060     1.1412500
  H        4.7686350    -1.9575490     0.3752240
  H       -4.9184630     1.2095470     0.7042290
  H       -3.2707080    -2.6065070    -0.4021260
  H       -5.2268190    -1.2338160     0.2940590
units angstrom
no_reorient  #important for SAPT in psi4, default
symmetry c1  #important for SAPT in psi4, default
}

set PROPERTIES_ORIGIN ["COM"]
properties('MP2/aug-cc-pvtz', properties = ['dipole'])
--------------------------------------------------------------------------

    Molecular point group: c1
  Charge       = 0
  Multiplicity = 1
  Basis Set: AUG-CC-PVTZ
    Blend: AUG-CC-PVTZ
  Basis Set: (AUG-CC-PVTZ AUX)
    Blend: AUG-CC-PVTZ-JKFIT

    Orbital Energies [Eh]
    ---------------------

    Doubly Occupied:

       1A    -15.588951     2A    -15.554706     3A    -11.324184
       4A    -11.280883     5A    -11.273346     6A    -11.259584
       7A    -11.250138     8A    -11.236142     9A    -11.233710
      10A    -11.230310    11A    -11.229436    12A    -11.228552
      13A    -11.221431    14A    -11.218427    15A     -1.293392
      16A     -1.220542    17A     -1.132766    18A     -1.096979
      19A     -1.044379    20A     -1.008030    21A     -0.992909
      22A     -0.935326    23A     -0.866950    24A     -0.839813
      25A     -0.819574    26A     -0.798000    27A     -0.723474
      28A     -0.715158    29A     -0.670629    30A     -0.652056
      31A     -0.628020    32A     -0.615597    33A     -0.594836
      34A     -0.593204    35A     -0.588035    36A     -0.579340
      37A     -0.569582    38A     -0.563353    39A     -0.546891
      40A     -0.517640    41A     -0.510481    42A     -0.503487
      43A     -0.487289    44A     -0.454230    45A     -0.414391
      46A     -0.382216    47A     -0.336887    48A     -0.330524
      49A     -0.277112

  @DF-RHF Final Energy:  -570.49148976701508

   => Energetics <=

    Nuclear Repulsion Energy =            790.2619855853881745
    One-Electron Energy =               -2340.6411651053081187
    Two-Electron Energy =                 979.8876897529048620
    Total Energy =                       -570.4914897670150822
  Basis Set: (AUG-CC-PVTZ AUX)
    Blend: AUG-CC-PVTZ-RI
    Molecular point group: c1

    Geometry (in Angstrom), charge = 0, multiplicity = 1:

       Center              X                  Y                   Z               Mass
    ------------   -----------------  -----------------  -----------------  -----------------
         N           -0.459915100287     1.067480440348    -0.311424065376    14.003074004430
         N            1.040085899713    -0.723314559652    -0.008357065376    14.003074004430
         C           -1.678537100287     0.393381440348    -0.119325065376    12.000000000000
         C            0.836409899713     0.593247440348    -0.150118065376    12.000000000000
         C            3.434115899713    -0.322882559652     0.117376934624    12.000000000000
         C            1.900369899713     1.520102440348    -0.175572065376    12.000000000000
         C            3.195656899713     1.052115440348    -0.038549065376    12.000000000000
         C           -2.787265100287     1.167438440348     0.262738934624    12.000000000000
         C           -1.855150100287    -0.976157559652    -0.375144065376    12.000000000000
         C            2.311864899713    -1.147996559652     0.121967934624    12.000000000000
         C            4.824592899713    -0.875081559652     0.267094934624    12.000000000000
         C           -4.043995100287     0.586103440348     0.409871934624    12.000000000000
         C           -3.116832100287    -1.547725559652    -0.205092065376    12.000000000000
         C           -4.217798100287    -0.779573559652     0.177054934624    12.000000000000
         H           -0.536822100287     2.075808440348    -0.235463065376     1.007825032230
         H            1.686534499713     2.681428040348    -0.308812365376     1.007825032230
         H            4.028396899713     1.754107440348    -0.051474065376     1.007825032230
         H           -2.656303100287     2.230663440348     0.462808934624     1.007825032230
         H           -1.008074100287    -1.578707559652    -0.673276065376     1.007825032230
         H            2.427745899713    -2.226110559652     0.238325934624     1.007825032230
         H            5.441024899713    -0.641598559652    -0.606987065376     1.007825032230
         H            5.325116899713    -0.456701559652     1.146242934624     1.007825032230
         H            4.800124899713    -1.962444559652     0.380216934624     1.007825032230
         H           -4.886973100287     1.204651440348     0.709221934624     1.007825032230
         H           -3.239218100287    -2.611402559652    -0.397133065376     1.007825032230
         H           -5.195329100287    -1.238711559652     0.299051934624     1.007825032230

  Basis Set: AUG-CC-PVTZ
    Blend: AUG-CC-PVTZ
  Basis Set: (AUG-CC-PVTZ AUX)
    Blend: AUG-CC-PVTZ-JKFIT
	 Reference Energy          =    -570.4914897670150822 [Eh]
	 Singles Energy            =      -0.0000000000000000 [Eh]
	 Same-Spin Energy          =      -0.6366955615738302 [Eh]
	 Opposite-Spin Energy      =      -1.9719095936250728 [Eh]
	 Correlation Energy        =      -2.6086051551989029 [Eh]
	 Total Energy              =    -573.1000949222139980 [Eh]

	 ================> DF-SCS-MP2 Energies <==================
	-----------------------------------------------------------
	 SCS Same-Spin Scale       =       0.3333333333333333 [-]
	 SCS Opposite-Spin Scale   =       1.2000000000000000 [-]
	 SCS Same-Spin Energy      =      -0.2122318538579434 [Eh]
	 SCS Opposite-Spin Energy  =      -2.3662915123500872 [Eh]
	 SCS Correlation Energy    =      -2.5785233662080307 [Eh]
	 SCS Total Energy          =    -573.0700131332231422 [Eh]
	-----------------------------------------------------------

  Dipole Moment: [D]
     X:     1.8866      Y:     1.8118      Z:     0.1682     Total:     2.6211

*** Psi4 exiting successfully. Buy a developer a beer!
