                               Psi4 1.4a3.dev225

  ==> Input File <==

--------------------------------------------------------------------------
#psi4
#
memory 32 gb

molecule  {
0 1
  N       -0.4914050     1.0723760    -0.3164170
  N        1.0085960    -0.7184190    -0.0133500
  C       -1.7100270     0.3982770    -0.1243180
  C        0.8049200     0.5981430    -0.1551110
  C        3.4026260    -0.3179870     0.1123840
  C        1.8688800     1.5249980    -0.1805650
  C        3.1641670     1.0570110    -0.0435420
  C       -2.8187550     1.1723340     0.2577460
  C       -1.8866400    -0.9712620    -0.3801370
  C        2.2803750    -1.1431010     0.1169750
  C        4.7931030    -0.8701860     0.2621020
  C       -4.0754850     0.5909990     0.4048790
  C       -3.1483220    -1.5428300    -0.2100850
  C       -4.2492880    -0.7746780     0.1720620
  H       -0.5683120     2.0807040    -0.2404560
  H        1.6730390     2.5885970    -0.3025930
  H        3.9969070     1.7590030    -0.0564670
  H       -2.6877930     2.2355590     0.4578160
  H       -1.0395640    -1.5738120    -0.6782690
  H        2.3962560    -2.2212150     0.2333330
  H        5.4152075    -0.6741379    -0.6171438
  H        5.2936270    -0.4518060     1.1412500
  H        4.7686350    -1.9575490     0.3752240
  H       -4.9184630     1.2095470     0.7042290
  H       -3.2707080    -2.6065070    -0.4021260
  H       -5.2268190    -1.2338160     0.2940590
units angstrom
no_reorient  #important for SAPT in psi4, default
symmetry c1  #important for SAPT in psi4, default
}

set PROPERTIES_ORIGIN ["COM"]
properties('MP2/aug-cc-pvtz', properties = ['dipole'])
--------------------------------------------------------------------------

    Molecular point group: c1
  Charge       = 0
  Multiplicity = 1
  Basis Set: AUG-CC-PVTZ
    Blend: AUG-CC-PVTZ
  Basis Set: (AUG-CC-PVTZ AUX)
    Blend: AUG-CC-PVTZ-JKFIT

    Orbital Energies [Eh]
    ---------------------

    Doubly Occupied:

       1A    -15.589196     2A    -15.553775     3A    -11.323106
       4A    -11.280978     5A    -11.272947     6A    -11.258475
       7A    -11.238806     8A    -11.235412     9A    -11.233762
      10A    -11.230338    11A    -11.228754    12A    -11.228635
      13A    -11.221481    14A    -11.218456    15A     -1.293195
      16A     -1.220186    17A     -1.132835    18A     -1.096850
      19A     -1.045943    20A     -1.008077    21A     -0.993075
      22A     -0.934905    23A     -0.868522    24A     -0.841378
      25A     -0.821270    26A     -0.797964    27A     -0.723698
      28A     -0.715533    29A     -0.670620    30A     -0.653232
      31A     -0.637453    32A     -0.621312    33A     -0.595675
      34A     -0.593551    35A     -0.589095    36A     -0.579634
      37A     -0.569726    38A     -0.563017    39A     -0.544232
      40A     -0.519101    41A     -0.511489    42A     -0.504049
      43A     -0.487390    44A     -0.454241    45A     -0.414426
      46A     -0.381480    47A     -0.336721    48A     -0.330529
      49A     -0.277047

  @DF-RHF Final Energy:  -570.49884129059114

   => Energetics <=

    Nuclear Repulsion Energy =            790.7338659491963426
    One-Electron Energy =               -2341.5822703544513388
    Two-Electron Energy =                 980.3495631146638516
    Total Energy =                       -570.4988412905911446
  Basis Set: (AUG-CC-PVTZ AUX)
    Blend: AUG-CC-PVTZ-RI
    Molecular point group: c1

    Geometry (in Angstrom), charge = 0, multiplicity = 1:

       Center              X                  Y                   Z               Mass
    ------------   -----------------  -----------------  -----------------  -----------------
         N           -0.460044660787     1.068220359454    -0.311457176881    14.003074004430
         N            1.039956339213    -0.722574640546    -0.008390176881    14.003074004430
         C           -1.678666660787     0.394121359454    -0.119358176881    12.000000000000
         C            0.836280339213     0.593987359454    -0.150151176881    12.000000000000
         C            3.433986339213    -0.322142640546     0.117343823119    12.000000000000
         C            1.900240339213     1.520842359454    -0.175605176881    12.000000000000
         C            3.195527339213     1.052855359454    -0.038582176881    12.000000000000
         C           -2.787394660787     1.168178359454     0.262705823119    12.000000000000
         C           -1.855279660787    -0.975417640546    -0.375177176881    12.000000000000
         C            2.311735339213    -1.147256640546     0.121934823119    12.000000000000
         C            4.824463339213    -0.874341640546     0.267061823119    12.000000000000
         C           -4.044124660787     0.586843359454     0.409838823119    12.000000000000
         C           -3.116961660787    -1.546985640546    -0.205125176881    12.000000000000
         C           -4.217927660787    -0.778833640546     0.177021823119    12.000000000000
         H           -0.536951660787     2.076548359454    -0.235496176881     1.007825032230
         H            1.704399339213     2.584441359454    -0.297633176881     1.007825032230
         H            4.028267339213     1.754847359454    -0.051507176881     1.007825032230
         H           -2.656432660787     2.231403359454     0.462775823119     1.007825032230
         H           -1.008203660787    -1.577967640546    -0.673309176881     1.007825032230
         H            2.427616339213    -2.225370640546     0.238292823119     1.007825032230
         H            5.446567839213    -0.678293540546    -0.612183976881     1.007825032230
         H            5.324987339213    -0.455961640546     1.146209823119     1.007825032230
         H            4.799995339213    -1.961704640546     0.380183823119     1.007825032230
         H           -4.887102660787     1.205391359454     0.709188823119     1.007825032230
         H           -3.239347660787    -2.610662640546    -0.397166176881     1.007825032230
         H           -5.195458660787    -1.237971640546     0.299018823119     1.007825032230

  Basis Set: AUG-CC-PVTZ
    Blend: AUG-CC-PVTZ
  Basis Set: (AUG-CC-PVTZ AUX)
    Blend: AUG-CC-PVTZ-JKFIT
	 Reference Energy          =    -570.4988412905911446 [Eh]
	 Singles Energy            =      -0.0000000000000000 [Eh]
	 Same-Spin Energy          =      -0.6363979446609105 [Eh]
	 Opposite-Spin Energy      =      -1.9708570037218547 [Eh]
	 Correlation Energy        =      -2.6072549483827654 [Eh]
	 Total Energy              =    -573.1060962389739188 [Eh]

	 ================> DF-SCS-MP2 Energies <==================
	-----------------------------------------------------------
	 SCS Same-Spin Scale       =       0.3333333333333333 [-]
	 SCS Opposite-Spin Scale   =       1.2000000000000000 [-]
	 SCS Same-Spin Energy      =      -0.2121326482203035 [Eh]
	 SCS Opposite-Spin Energy  =      -2.3650284044662255 [Eh]
	 SCS Correlation Energy    =      -2.5771610526865292 [Eh]
	 SCS Total Energy          =    -573.0760023432776507 [Eh]
	-----------------------------------------------------------

  Dipole Moment: [D]
     X:     1.8614      Y:     1.8445      Z:     0.1566     Total:     2.6252

*** Psi4 exiting successfully. Buy a developer a beer!
