                               Psi4 1.4a3.dev225

  ==> Input File <==

--------------------------------------------------------------------------
#psi4
#
memory 32 gb

molecule  {
0 1
  N       -0.4914050     1.0723760    -0.3164170
  N        1.0085960    -0.7184190    -0.0133500
  C       -1.6617528     0.3140610    -0.1386658
  C        0.8049200     0.5981430    -0.1551110
  C        3.4026260    -0.3179870     0.1123840
  C        1.8688800     1.5249980    -0.1805650
  C        3.1641670     1.0570110    -0.0435420
  C       -2.8187550     1.1723340     0.2577460
  C       -1.8866400    -0.9712620    -0.3801370
  C        2.2803750    -1.1431010     0.1169750
  C        4.7931030    -0.8701860     0.2621020
  C       -4.0754850     0.5909990     0.4048790
  C       -3.1483220    -1.5428300    -0.2100850
  C       -4.2492880    -0.7746780     0.1720620
  H       -0.5683120     2.0807040    -0.2404560
  H        1.6730390     2.5885970    -0.3025930
  H        3.9969070     1.7590030    -0.0564670
  H       -2.6877930     2.2355590     0.4578160
  H       -1.0395640    -1.5738120    -0.6782690
  H        2.3962560    -2.2212150     0.2333330
  H        5.4095350    -0.6367030    -0.6119800
  H        5.2936270    -0.4518060     1.1412500
  H        4.7686350    -1.9575490     0.3752240
  H       -4.9184630     1.2095470     0.7042290
  H       -3.2707080    -2.6065070    -0.4021260
  H       -5.2268190    -1.2338160     0.2940590
units angstrom
no_reorient  #important for SAPT in psi4, default
symmetry c1  #important for SAPT in psi4, default
}

set PROPERTIES_ORIGIN ["COM"]
properties('MP2/aug-cc-pvtz', properties = ['dipole'])
--------------------------------------------------------------------------

    Molecular point group: c1
  Charge       = 0
  Multiplicity = 1
  Basis Set: AUG-CC-PVTZ
    Blend: AUG-CC-PVTZ
  Basis Set: (AUG-CC-PVTZ AUX)
    Blend: AUG-CC-PVTZ-JKFIT

    Orbital Energies [Eh]
    ---------------------

    Doubly Occupied:

       1A    -15.590013     2A    -15.553306     3A    -11.320843
       4A    -11.280192     5A    -11.272558     6A    -11.258074
       7A    -11.238104     8A    -11.236575     9A    -11.234881
      10A    -11.233019    11A    -11.231980    12A    -11.228679
      13A    -11.221726    14A    -11.208553    15A     -1.293609
      16A     -1.219023    17A     -1.132914    18A     -1.096561
      19A     -1.045013    20A     -1.013759    21A     -0.988733
      22A     -0.934773    23A     -0.868701    24A     -0.839095
      25A     -0.826230    26A     -0.793113    27A     -0.722150
      28A     -0.717572    29A     -0.672365    30A     -0.653392
      31A     -0.637656    32A     -0.619502    33A     -0.602976
      34A     -0.593604    35A     -0.585079    36A     -0.574462
      37A     -0.570003    38A     -0.562003    39A     -0.546568
      40A     -0.518784    41A     -0.511103    42A     -0.506566
      43A     -0.480885    44A     -0.453255    45A     -0.412894
      46A     -0.381091    47A     -0.341049    48A     -0.327661
      49A     -0.276909

  @DF-RHF Final Energy:  -570.48705029098926

   => Energetics <=

    Nuclear Repulsion Energy =            791.1769514086729487
    One-Electron Energy =               -2342.4728926851598771
    Two-Electron Energy =                 980.8088909854976691
    Total Energy =                       -570.4870502909892593
  Basis Set: (AUG-CC-PVTZ AUX)
    Blend: AUG-CC-PVTZ-RI
    Molecular point group: c1

    Geometry (in Angstrom), charge = 0, multiplicity = 1:

       Center              X                  Y                   Z               Mass
    ------------   -----------------  -----------------  -----------------  -----------------
         N           -0.463160214083     1.073504791365    -0.310550227673    14.003074004430
         N            1.036840785917    -0.717290208635    -0.007483227673    14.003074004430
         C           -1.633508014083     0.315189791365    -0.132799027673    12.000000000000
         C            0.833164785917     0.599271791365    -0.149244227673    12.000000000000
         C            3.430870785917    -0.316858208635     0.118250772327    12.000000000000
         C            1.897124785917     1.526126791365    -0.174698227673    12.000000000000
         C            3.192411785917     1.058139791365    -0.037675227673    12.000000000000
         C           -2.790510214083     1.173462791365     0.263612772327    12.000000000000
         C           -1.858395214083    -0.970133208635    -0.374270227673    12.000000000000
         C            2.308619785917    -1.141972208635     0.122841772327    12.000000000000
         C            4.821347785917    -0.869057208635     0.267968772327    12.000000000000
         C           -4.047240214083     0.592127791365     0.410745772327    12.000000000000
         C           -3.120077214083    -1.541701208635    -0.204218227673    12.000000000000
         C           -4.221043214083    -0.773549208635     0.177928772327    12.000000000000
         H           -0.540067214083     2.081832791365    -0.234589227673     1.007825032230
         H            1.701283785917     2.589725791365    -0.296726227673     1.007825032230
         H            4.025151785917     1.760131791365    -0.050600227673     1.007825032230
         H           -2.659548214083     2.236687791365     0.463682772327     1.007825032230
         H           -1.011319214083    -1.572683208635    -0.672402227673     1.007825032230
         H            2.424500785917    -2.220086208635     0.239199772327     1.007825032230
         H            5.437779785917    -0.635574208635    -0.606113227673     1.007825032230
         H            5.321871785917    -0.450677208635     1.147116772327     1.007825032230
         H            4.796879785917    -1.956420208635     0.381090772327     1.007825032230
         H           -4.890218214083     1.210675791365     0.710095772327     1.007825032230
         H           -3.242463214083    -2.605378208635    -0.396259227673     1.007825032230
         H           -5.198574214083    -1.232687208635     0.299925772327     1.007825032230

  Basis Set: AUG-CC-PVTZ
    Blend: AUG-CC-PVTZ
  Basis Set: (AUG-CC-PVTZ AUX)
    Blend: AUG-CC-PVTZ-JKFIT
	 Reference Energy          =    -570.4870502909892593 [Eh]
	 Singles Energy            =      -0.0000000000000000 [Eh]
	 Same-Spin Energy          =      -0.6361677162873176 [Eh]
	 Opposite-Spin Energy      =      -1.9714867807187304 [Eh]
	 Correlation Energy        =      -2.6076544970060480 [Eh]
	 Total Energy              =    -573.0947047879952834 [Eh]

	 ================> DF-SCS-MP2 Energies <==================
	-----------------------------------------------------------
	 SCS Same-Spin Scale       =       0.3333333333333333 [-]
	 SCS Opposite-Spin Scale   =       1.2000000000000000 [-]
	 SCS Same-Spin Energy      =      -0.2120559054291059 [Eh]
	 SCS Opposite-Spin Energy  =      -2.3657841368624766 [Eh]
	 SCS Correlation Energy    =      -2.5778400422915824 [Eh]
	 SCS Total Energy          =    -573.0648903332808004 [Eh]
	-----------------------------------------------------------

  Dipole Moment: [D]
     X:     1.8361      Y:     1.8652      Z:     0.1489     Total:     2.6215

*** Psi4 exiting successfully. Buy a developer a beer!
