                               Psi4 1.4a3.dev225

  ==> Input File <==

--------------------------------------------------------------------------
#psi4
#
memory 32 gb

molecule  {
0 1
  N       -0.4914050     1.0723760    -0.3164170
  N        1.0085960    -0.7184190    -0.0133500
  C       -1.7100270     0.3982770    -0.1243180
  C        0.8049200     0.5981430    -0.1551110
  C        3.4026260    -0.3179870     0.1123840
  C        1.8688800     1.5249980    -0.1805650
  C        3.1641670     1.0570110    -0.0435420
  C       -2.8187550     1.1723340     0.2577460
  C       -1.8866400    -0.9712620    -0.3801370
  C        2.2803750    -1.1431010     0.1169750
  C        4.7931030    -0.8701860     0.2621020
  C       -4.0754850     0.5909990     0.4048790
  C       -3.1483220    -1.5428300    -0.2100850
  C       -4.2492880    -0.7746780     0.1720620
  H       -0.5683120     2.0807040    -0.2404560
  H        1.6730390     2.5885970    -0.3025930
  H        3.9969070     1.7590030    -0.0564670
  H       -2.6877930     2.2355590     0.4578160
  H       -1.0395640    -1.5738120    -0.6782690
  H        2.3962560    -2.2212150     0.2333330
  H        5.4095350    -0.6367030    -0.6119800
  H        5.2844829    -0.4594494     1.1251888
  H        4.7686350    -1.9575490     0.3752240
  H       -4.9184630     1.2095470     0.7042290
  H       -3.2707080    -2.6065070    -0.4021260
  H       -5.2268190    -1.2338160     0.2940590
units angstrom
no_reorient  #important for SAPT in psi4, default
symmetry c1  #important for SAPT in psi4, default
}

set PROPERTIES_ORIGIN ["COM"]
properties('MP2/aug-cc-pvtz', properties = ['dipole'])
--------------------------------------------------------------------------

    Molecular point group: c1
  Charge       = 0
  Multiplicity = 1
  Basis Set: AUG-CC-PVTZ
    Blend: AUG-CC-PVTZ
  Basis Set: (AUG-CC-PVTZ AUX)
    Blend: AUG-CC-PVTZ-JKFIT

    Orbital Energies [Eh]
    ---------------------

    Doubly Occupied:

       1A    -15.589052     2A    -15.553654     3A    -11.322901
       4A    -11.280899     5A    -11.272649     6A    -11.258380
       7A    -11.238791     8A    -11.235149     9A    -11.233695
      10A    -11.230270    11A    -11.228556    12A    -11.226493
      13A    -11.221407    14A    -11.218371    15A     -1.293052
      16A     -1.220048    17A     -1.132757    18A     -1.097047
      19A     -1.046074    20A     -1.008014    21A     -0.993301
      22A     -0.936020    23A     -0.868446    24A     -0.841537
      25A     -0.821192    26A     -0.797962    27A     -0.723606
      28A     -0.715508    29A     -0.670521    30A     -0.653440
      31A     -0.637128    32A     -0.621210    33A     -0.596054
      34A     -0.593709    35A     -0.588982    36A     -0.579623
      37A     -0.570663    38A     -0.562791    39A     -0.547571
      40A     -0.519045    41A     -0.511230    42A     -0.504138
      43A     -0.487323    44A     -0.454154    45A     -0.414312
      46A     -0.381381    47A     -0.336578    48A     -0.330452
      49A     -0.276885

  @DF-RHF Final Energy:  -570.49895665284487

   => Energetics <=

    Nuclear Repulsion Energy =            790.8552525054222997
    One-Electron Energy =               -2341.8243770202157066
    Two-Electron Energy =                 980.4701678619484255
    Total Energy =                       -570.4989566528448677
  Basis Set: (AUG-CC-PVTZ AUX)
    Blend: AUG-CC-PVTZ-RI
    Molecular point group: c1

    Geometry (in Angstrom), charge = 0, multiplicity = 1:

       Center              X                  Y                   Z               Mass
    ------------   -----------------  -----------------  -----------------  -----------------
         N           -0.459963549780     1.068057270852    -0.311397520881    14.003074004430
         N            1.040037450220    -0.722737729148    -0.008330520881    14.003074004430
         C           -1.678585549780     0.393958270852    -0.119298520881    12.000000000000
         C            0.836361450220     0.593824270852    -0.150091520881    12.000000000000
         C            3.434067450220    -0.322305729148     0.117403479119    12.000000000000
         C            1.900321450220     1.520679270852    -0.175545520881    12.000000000000
         C            3.195608450220     1.052692270852    -0.038522520881    12.000000000000
         C           -2.787313549780     1.168015270852     0.262765479119    12.000000000000
         C           -1.855198549780    -0.975580729148    -0.375117520881    12.000000000000
         C            2.311816450220    -1.147419729148     0.121994479119    12.000000000000
         C            4.824544450220    -0.874504729148     0.267121479119    12.000000000000
         C           -4.044043549780     0.586680270852     0.409898479119    12.000000000000
         C           -3.116880549780    -1.547148729148    -0.205065520881    12.000000000000
         C           -4.217846549780    -0.778996729148     0.177081479119    12.000000000000
         H           -0.536870549780     2.076385270852    -0.235436520881     1.007825032230
         H            1.704480450220     2.584278270852    -0.297573520881     1.007825032230
         H            4.028348450220     1.754684270852    -0.051447520881     1.007825032230
         H           -2.656351549780     2.231240270852     0.462835479119     1.007825032230
         H           -1.008122549780    -1.578130729148    -0.673249520881     1.007825032230
         H            2.427697450220    -2.225533729148     0.238352479119     1.007825032230
         H            5.440976450220    -0.641021729148    -0.606960520881     1.007825032230
         H            5.315924350220    -0.463768129148     1.130208279119     1.007825032230
         H            4.800076450220    -1.961867729148     0.380243479119     1.007825032230
         H           -4.887021549780     1.205228270852     0.709248479119     1.007825032230
         H           -3.239266549780    -2.610825729148    -0.397106520881     1.007825032230
         H           -5.195377549780    -1.238134729148     0.299078479119     1.007825032230

  Basis Set: AUG-CC-PVTZ
    Blend: AUG-CC-PVTZ
  Basis Set: (AUG-CC-PVTZ AUX)
    Blend: AUG-CC-PVTZ-JKFIT
	 Reference Energy          =    -570.4989566528448677 [Eh]
	 Singles Energy            =      -0.0000000000000000 [Eh]
	 Same-Spin Energy          =      -0.6364224030206822 [Eh]
	 Opposite-Spin Energy      =      -1.9707835978834973 [Eh]
	 Correlation Energy        =      -2.6072060009041795 [Eh]
	 Total Energy              =    -573.1061626537490383 [Eh]

	 ================> DF-SCS-MP2 Energies <==================
	-----------------------------------------------------------
	 SCS Same-Spin Scale       =       0.3333333333333333 [-]
	 SCS Opposite-Spin Scale   =       1.2000000000000000 [-]
	 SCS Same-Spin Energy      =      -0.2121408010068941 [Eh]
	 SCS Opposite-Spin Energy  =      -2.3649403174601966 [Eh]
	 SCS Correlation Energy    =      -2.5770811184670905 [Eh]
	 SCS Total Energy          =    -573.0760377713119169 [Eh]
	-----------------------------------------------------------

  Dipole Moment: [D]
     X:     1.8819      Y:     1.8541      Z:     0.1694     Total:     2.6472

*** Psi4 exiting successfully. Buy a developer a beer!
