                               Psi4 1.4a3.dev225

  ==> Input File <==

--------------------------------------------------------------------------
#psi4
#
memory 32 gb

molecule  {
0 1
  N       -0.4914050     1.0723760    -0.3164170
  N        1.0085960    -0.7184190    -0.0133500
  C       -1.7100270     0.3982770    -0.1243180
  C        0.8049200     0.5981430    -0.1551110
  C        3.4026260    -0.3179870     0.1123840
  C        1.8688800     1.5249980    -0.1805650
  C        3.1641670     1.0570110    -0.0435420
  C       -2.8187550     1.1723340     0.2577460
  C       -1.8866400    -0.9712620    -0.3801370
  C        2.2400915    -1.1727187     0.1171398
  C        4.7931030    -0.8701860     0.2621020
  C       -4.0754850     0.5909990     0.4048790
  C       -3.1483220    -1.5428300    -0.2100850
  C       -4.2492880    -0.7746780     0.1720620
  H       -0.5683120     2.0807040    -0.2404560
  H        1.6730390     2.5885970    -0.3025930
  H        3.9969070     1.7590030    -0.0564670
  H       -2.6877930     2.2355590     0.4578160
  H       -1.0395640    -1.5738120    -0.6782690
  H        2.3962560    -2.2212150     0.2333330
  H        5.4095350    -0.6367030    -0.6119800
  H        5.2936270    -0.4518060     1.1412500
  H        4.7686350    -1.9575490     0.3752240
  H       -4.9184630     1.2095470     0.7042290
  H       -3.2707080    -2.6065070    -0.4021260
  H       -5.2268190    -1.2338160     0.2940590
units angstrom
no_reorient  #important for SAPT in psi4, default
symmetry c1  #important for SAPT in psi4, default
}

set PROPERTIES_ORIGIN ["COM"]
properties('MP2/aug-cc-pvtz', properties = ['dipole'])
--------------------------------------------------------------------------

    Molecular point group: c1
  Charge       = 0
  Multiplicity = 1
  Basis Set: AUG-CC-PVTZ
    Blend: AUG-CC-PVTZ
  Basis Set: (AUG-CC-PVTZ AUX)
    Blend: AUG-CC-PVTZ-JKFIT

    Orbital Energies [Eh]
    ---------------------

    Doubly Occupied:

       1A    -15.588717     2A    -15.554278     3A    -11.323148
       4A    -11.280955     5A    -11.276378     6A    -11.255999
       7A    -11.239175     8A    -11.237190     9A    -11.233739
      10A    -11.230398    11A    -11.228638    12A    -11.228436
      13A    -11.221319    14A    -11.218417    15A     -1.295140
      16A     -1.223684    17A     -1.132904    18A     -1.094749
      19A     -1.044196    20A     -1.008059    21A     -0.992412
      22A     -0.934561    23A     -0.867793    24A     -0.839602
      25A     -0.821735    26A     -0.797464    27A     -0.725783
      28A     -0.716004    29A     -0.670317    30A     -0.653636
      31A     -0.637737    32A     -0.622569    33A     -0.596049
      34A     -0.594236    35A     -0.588137    36A     -0.579723
      37A     -0.569686    38A     -0.563965    39A     -0.548070
      40A     -0.520672    41A     -0.511790    42A     -0.504408
      43A     -0.487352    44A     -0.453706    45A     -0.409644
      46A     -0.385189    47A     -0.333760    48A     -0.329804
      49A     -0.273288

  @DF-RHF Final Energy:  -570.49578506202192

   => Energetics <=

    Nuclear Repulsion Energy =            790.5214010027470977
    One-Electron Energy =               -2341.1451496075687828
    Two-Electron Energy =                 980.1279635427997619
    Total Energy =                       -570.4957850620219233
  Basis Set: (AUG-CC-PVTZ AUX)
    Blend: AUG-CC-PVTZ-RI
    Molecular point group: c1

    Geometry (in Angstrom), charge = 0, multiplicity = 1:

       Center              X                  Y                   Z               Mass
    ------------   -----------------  -----------------  -----------------  -----------------
         N           -0.457387850581     1.069945967749    -0.311496187229    14.003074004430
         N            1.042613149419    -0.720849032251    -0.008429187229    14.003074004430
         C           -1.676009850581     0.395846967749    -0.119397187229    12.000000000000
         C            0.838937149419     0.595712967749    -0.150190187229    12.000000000000
         C            3.436643149419    -0.320417032251     0.117304812771    12.000000000000
         C            1.902897149419     1.522567967749    -0.175644187229    12.000000000000
         C            3.198184149419     1.054580967749    -0.038621187229    12.000000000000
         C           -2.784737850581     1.169903967749     0.262666812771    12.000000000000
         C           -1.852622850581    -0.973692032251    -0.375216187229    12.000000000000
         C            2.274108649419    -1.175148732251     0.122060612771    12.000000000000
         C            4.827120149419    -0.872616032251     0.267022812771    12.000000000000
         C           -4.041467850581     0.588568967749     0.409799812771    12.000000000000
         C           -3.114304850581    -1.545260032251    -0.205164187229    12.000000000000
         C           -4.215270850581    -0.777108032251     0.176982812771    12.000000000000
         H           -0.534294850581     2.078273967749    -0.235535187229     1.007825032230
         H            1.707056149419     2.586166967749    -0.297672187229     1.007825032230
         H            4.030924149419     1.756572967749    -0.051546187229     1.007825032230
         H           -2.653775850581     2.233128967749     0.462736812771     1.007825032230
         H           -1.005546850581    -1.576242032251    -0.673348187229     1.007825032230
         H            2.430273149419    -2.223645032251     0.238253812771     1.007825032230
         H            5.443552149419    -0.639133032251    -0.607059187229     1.007825032230
         H            5.327644149419    -0.454236032251     1.146170812771     1.007825032230
         H            4.802652149419    -1.959979032251     0.380144812771     1.007825032230
         H           -4.884445850581     1.207116967749     0.709149812771     1.007825032230
         H           -3.236690850581    -2.608937032251    -0.397205187229     1.007825032230
         H           -5.192801850581    -1.236246032251     0.298979812771     1.007825032230

  Basis Set: AUG-CC-PVTZ
    Blend: AUG-CC-PVTZ
  Basis Set: (AUG-CC-PVTZ AUX)
    Blend: AUG-CC-PVTZ-JKFIT
	 Reference Energy          =    -570.4957850620219233 [Eh]
	 Singles Energy            =      -0.0000000000000000 [Eh]
	 Same-Spin Energy          =      -0.6366302476286695 [Eh]
	 Opposite-Spin Energy      =      -1.9708627321709609 [Eh]
	 Correlation Energy        =      -2.6074929797996305 [Eh]
	 Total Energy              =    -573.1032780418215680 [Eh]

	 ================> DF-SCS-MP2 Energies <==================
	-----------------------------------------------------------
	 SCS Same-Spin Scale       =       0.3333333333333333 [-]
	 SCS Opposite-Spin Scale   =       1.2000000000000000 [-]
	 SCS Same-Spin Energy      =      -0.2122100825428898 [Eh]
	 SCS Opposite-Spin Energy  =      -2.3650352786051529 [Eh]
	 SCS Correlation Energy    =      -2.5772453611480426 [Eh]
	 SCS Total Energy          =    -573.0730304231699392 [Eh]
	-----------------------------------------------------------

  Dipole Moment: [D]
     X:     1.8746      Y:     1.7766      Z:     0.1694     Total:     2.5883

*** Psi4 exiting successfully. Buy a developer a beer!
