                               Psi4 1.4a3.dev225

  ==> Input File <==

--------------------------------------------------------------------------
#psi4
#
memory 32 gb

molecule  {
0 1
  N       -0.4914050     1.0723760    -0.3164170
  N        1.0085960    -0.7184190    -0.0133500
  C       -1.7100270     0.3982770    -0.1243180
  C        0.8049200     0.5981430    -0.1551110
  C        3.4026260    -0.3179870     0.1123840
  C        1.8688800     1.5249980    -0.1805650
  C        3.1641670     1.0570110    -0.0435420
  C       -2.8187550     1.1723340     0.2577460
  C       -1.8866400    -0.9712620    -0.3801370
  C        2.2803750    -1.1431010     0.1169750
  C        4.7746075    -0.8628409     0.2601105
  C       -4.0754850     0.5909990     0.4048790
  C       -3.1483220    -1.5428300    -0.2100850
  C       -4.2492880    -0.7746780     0.1720620
  H       -0.5683120     2.0807040    -0.2404560
  H        1.6730390     2.5885970    -0.3025930
  H        3.9969070     1.7590030    -0.0564670
  H       -2.6877930     2.2355590     0.4578160
  H       -1.0395640    -1.5738120    -0.6782690
  H        2.3962560    -2.2212150     0.2333330
  H        5.4095350    -0.6367030    -0.6119800
  H        5.2936270    -0.4518060     1.1412500
  H        4.7686350    -1.9575490     0.3752240
  H       -4.9184630     1.2095470     0.7042290
  H       -3.2707080    -2.6065070    -0.4021260
  H       -5.2268190    -1.2338160     0.2940590
units angstrom
no_reorient  #important for SAPT in psi4, default
symmetry c1  #important for SAPT in psi4, default
}

set PROPERTIES_ORIGIN ["COM"]
properties('MP2/aug-cc-pvtz', properties = ['dipole'])
--------------------------------------------------------------------------

    Molecular point group: c1
  Charge       = 0
  Multiplicity = 1
  Basis Set: AUG-CC-PVTZ
    Blend: AUG-CC-PVTZ
  Basis Set: (AUG-CC-PVTZ AUX)
    Blend: AUG-CC-PVTZ-JKFIT

    Orbital Energies [Eh]
    ---------------------

    Doubly Occupied:

       1A    -15.589249     2A    -15.553804     3A    -11.323140
       4A    -11.281006     5A    -11.272852     6A    -11.258531
       7A    -11.239006     8A    -11.234399     9A    -11.233785
      10A    -11.230360    11A    -11.229518    12A    -11.228664
      13A    -11.221506    14A    -11.218481    15A     -1.293253
      16A     -1.220328    17A     -1.132911    18A     -1.098508
      19A     -1.046931    20A     -1.008121    21A     -0.993511
      22A     -0.934293    23A     -0.868846    24A     -0.840852
      25A     -0.821230    26A     -0.798039    27A     -0.723750
      28A     -0.715796    29A     -0.670854    30A     -0.653940
      31A     -0.638790    32A     -0.621363    33A     -0.595685
      34A     -0.594026    35A     -0.588138    36A     -0.579513
      37A     -0.568256    38A     -0.562906    39A     -0.544204
      40A     -0.521253    41A     -0.510860    42A     -0.504129
      43A     -0.487408    44A     -0.453826    45A     -0.414558
      46A     -0.381419    47A     -0.336394    48A     -0.330505
      49A     -0.276871

  @DF-RHF Final Energy:  -570.49825474335682

   => Energetics <=

    Nuclear Repulsion Energy =            791.1289203492316346
    One-Electron Energy =               -2342.3632207306723103
    Two-Electron Energy =                 980.7360456380839651
    Total Energy =                       -570.4982547433568243
  Basis Set: (AUG-CC-PVTZ AUX)
    Blend: AUG-CC-PVTZ-RI
    Molecular point group: c1

    Geometry (in Angstrom), charge = 0, multiplicity = 1:

       Center              X                  Y                   Z               Mass
    ------------   -----------------  -----------------  -----------------  -----------------
         N           -0.458808034890     1.067536660398    -0.311355635392    14.003074004430
         N            1.041192965110    -0.723258339602    -0.008288635392    14.003074004430
         C           -1.677430034890     0.393437660398    -0.119256635392    12.000000000000
         C            0.837516965110     0.593303660398    -0.150049635392    12.000000000000
         C            3.435222965110    -0.322826339602     0.117445364608    12.000000000000
         C            1.901476965110     1.520158660398    -0.175503635392    12.000000000000
         C            3.196763965110     1.052171660398    -0.038480635392    12.000000000000
         C           -2.786158034890     1.167494660398     0.262807364608    12.000000000000
         C           -1.854043034890    -0.976101339602    -0.375075635392    12.000000000000
         C            2.312971965110    -1.147940339602     0.122036364608    12.000000000000
         C            4.807204465110    -0.867680239602     0.265171864608    12.000000000000
         C           -4.042888034890     0.586159660398     0.409940364608    12.000000000000
         C           -3.115725034890    -1.547669339602    -0.205023635392    12.000000000000
         C           -4.216691034890    -0.779517339602     0.177123364608    12.000000000000
         H           -0.535715034890     2.075864660398    -0.235394635392     1.007825032230
         H            1.705635965110     2.583757660398    -0.297531635392     1.007825032230
         H            4.029503965110     1.754163660398    -0.051405635392     1.007825032230
         H           -2.655196034890     2.230719660398     0.462877364608     1.007825032230
         H           -1.006967034890    -1.578651339602    -0.673207635392     1.007825032230
         H            2.428852965110    -2.226054339602     0.238394364608     1.007825032230
         H            5.442131965110    -0.641542339602    -0.606918635392     1.007825032230
         H            5.326223965110    -0.456645339602     1.146311364608     1.007825032230
         H            4.801231965110    -1.962388339602     0.380285364608     1.007825032230
         H           -4.885866034890     1.204707660398     0.709290364608     1.007825032230
         H           -3.238111034890    -2.611346339602    -0.397064635392     1.007825032230
         H           -5.194222034890    -1.238655339602     0.299120364608     1.007825032230

  Basis Set: AUG-CC-PVTZ
    Blend: AUG-CC-PVTZ
  Basis Set: (AUG-CC-PVTZ AUX)
    Blend: AUG-CC-PVTZ-JKFIT
	 Reference Energy          =    -570.4982547433568243 [Eh]
	 Singles Energy            =      -0.0000000000000000 [Eh]
	 Same-Spin Energy          =      -0.6365960528341882 [Eh]
	 Opposite-Spin Energy      =      -1.9710683805934581 [Eh]
	 Correlation Energy        =      -2.6076644334276464 [Eh]
	 Total Energy              =    -573.1059191767844823 [Eh]

	 ================> DF-SCS-MP2 Energies <==================
	-----------------------------------------------------------
	 SCS Same-Spin Scale       =       0.3333333333333333 [-]
	 SCS Opposite-Spin Scale   =       1.2000000000000000 [-]
	 SCS Same-Spin Energy      =      -0.2121986842780627 [Eh]
	 SCS Opposite-Spin Energy  =      -2.3652820567121497 [Eh]
	 SCS Correlation Energy    =      -2.5774807409902123 [Eh]
	 SCS Total Energy          =    -573.0757354843470921 [Eh]
	-----------------------------------------------------------

  Dipole Moment: [D]
     X:     1.8634      Y:     1.8558      Z:     0.1625     Total:     2.6349

*** Psi4 exiting successfully. Buy a developer a beer!
