                               Psi4 1.4a3.dev225

  ==> Input File <==

--------------------------------------------------------------------------
#psi4
#
memory 32 gb

molecule  {
0 1
  N       -0.4914050     1.0723760    -0.3164170
  N        1.0085960    -0.7184190    -0.0133500
  C       -1.7100270     0.3982770    -0.1243180
  C        0.8049200     0.5981430    -0.1551110
  C        3.4026260    -0.3179870     0.1123840
  C        1.8688800     1.5249980    -0.1805650
  C        3.1641670     1.0570110    -0.0435420
  C       -2.8187550     1.1723340     0.2577460
  C       -1.8866400    -0.9712620    -0.3801370
  C        2.1859685    -1.1115761     0.1073007
  C        4.7931030    -0.8701860     0.2621020
  C       -4.0754850     0.5909990     0.4048790
  C       -3.1483220    -1.5428300    -0.2100850
  C       -4.2492880    -0.7746780     0.1720620
  H       -0.5683120     2.0807040    -0.2404560
  H        1.6730390     2.5885970    -0.3025930
  H        3.9969070     1.7590030    -0.0564670
  H       -2.6877930     2.2355590     0.4578160
  H       -1.0395640    -1.5738120    -0.6782690
  H        2.3962560    -2.2212150     0.2333330
  H        5.4095350    -0.6367030    -0.6119800
  H        5.2936270    -0.4518060     1.1412500
  H        4.7686350    -1.9575490     0.3752240
  H       -4.9184630     1.2095470     0.7042290
  H       -3.2707080    -2.6065070    -0.4021260
  H       -5.2268190    -1.2338160     0.2940590
units angstrom
no_reorient  #important for SAPT in psi4, default
symmetry c1  #important for SAPT in psi4, default
}

set PROPERTIES_ORIGIN ["COM"]
properties('MP2/aug-cc-pvtz', properties = ['dipole'])
--------------------------------------------------------------------------

    Molecular point group: c1
  Charge       = 0
  Multiplicity = 1
  Basis Set: AUG-CC-PVTZ
    Blend: AUG-CC-PVTZ
  Basis Set: (AUG-CC-PVTZ AUX)
    Blend: AUG-CC-PVTZ-JKFIT

    Orbital Energies [Eh]
    ---------------------

    Doubly Occupied:

       1A    -15.589958     2A    -15.552868     3A    -11.324824
       4A    -11.282175     5A    -11.276375     6A    -11.253909
       7A    -11.237137     8A    -11.234753     9A    -11.234026
      10A    -11.231568    11A    -11.229560    12A    -11.229364
      13A    -11.222222    14A    -11.219795    15A     -1.309020
      16A     -1.238517    17A     -1.134732    18A     -1.097947
      19A     -1.042803    20A     -1.009223    21A     -0.992507
      22A     -0.935279    23A     -0.862720    24A     -0.843875
      25A     -0.822552    26A     -0.801877    27A     -0.723429
      28A     -0.716916    29A     -0.671762    30A     -0.657350
      31A     -0.635811    32A     -0.617424    33A     -0.597332
      34A     -0.593850    35A     -0.585991    36A     -0.581069
      37A     -0.570455    38A     -0.563866    39A     -0.550923
      40A     -0.521888    41A     -0.516056    42A     -0.504422
      43A     -0.487596    44A     -0.457620    45A     -0.407205
      46A     -0.393070    47A     -0.333901    48A     -0.330106
      49A     -0.271370

  @DF-RHF Final Energy:  -570.48732012207972

   => Energetics <=

    Nuclear Repulsion Energy =            792.1248077147042750
    One-Electron Energy =               -2344.2262615738482054
    Two-Electron Energy =                 981.6141337370642077
    Total Energy =                       -570.4873201220797228
  Basis Set: (AUG-CC-PVTZ AUX)
    Blend: AUG-CC-PVTZ-RI
    Molecular point group: c1

    Geometry (in Angstrom), charge = 0, multiplicity = 1:

       Center              X                  Y                   Z               Mass
    ------------   -----------------  -----------------  -----------------  -----------------
         N           -0.453860007945     1.065960573903    -0.310854855513    14.003074004430
         N            1.046140992055    -0.724834426097    -0.007787855513    14.003074004430
         C           -1.672482007945     0.391861573903    -0.118755855513    12.000000000000
         C            0.842464992055     0.591727573903    -0.149548855513    12.000000000000
         C            3.440170992055    -0.324402426097     0.117946144487    12.000000000000
         C            1.906424992055     1.518582573903    -0.175002855513    12.000000000000
         C            3.201711992055     1.050595573903    -0.037979855513    12.000000000000
         C           -2.781210007945     1.165918573903     0.263308144487    12.000000000000
         C           -1.849095007945    -0.977677426097    -0.374574855513    12.000000000000
         C            2.223513492055    -1.117991526097     0.112862844487    12.000000000000
         C            4.830647992055    -0.876601426097     0.267664144487    12.000000000000
         C           -4.037940007945     0.584583573903     0.410441144487    12.000000000000
         C           -3.110777007945    -1.549245426097    -0.204522855513    12.000000000000
         C           -4.211743007945    -0.781093426097     0.177624144487    12.000000000000
         H           -0.530767007945     2.074288573903    -0.234893855513     1.007825032230
         H            1.710583992055     2.582181573903    -0.297030855513     1.007825032230
         H            4.034451992055     1.752587573903    -0.050904855513     1.007825032230
         H           -2.650248007945     2.229143573903     0.463378144487     1.007825032230
         H           -1.002019007945    -1.580227426097    -0.672706855513     1.007825032230
         H            2.433800992055    -2.227630426097     0.238895144487     1.007825032230
         H            5.447079992055    -0.643118426097    -0.606417855513     1.007825032230
         H            5.331171992055    -0.458221426097     1.146812144487     1.007825032230
         H            4.806179992055    -1.963964426097     0.380786144487     1.007825032230
         H           -4.880918007945     1.203131573903     0.709791144487     1.007825032230
         H           -3.233163007945    -2.612922426097    -0.396563855513     1.007825032230
         H           -5.189274007945    -1.240231426097     0.299621144487     1.007825032230

  Basis Set: AUG-CC-PVTZ
    Blend: AUG-CC-PVTZ
  Basis Set: (AUG-CC-PVTZ AUX)
    Blend: AUG-CC-PVTZ-JKFIT
	 Reference Energy          =    -570.4873201220797228 [Eh]
	 Singles Energy            =      -0.0000000000000000 [Eh]
	 Same-Spin Energy          =      -0.6362657517817918 [Eh]
	 Opposite-Spin Energy      =      -1.9697781447201583 [Eh]
	 Correlation Energy        =      -2.6060438965019501 [Eh]
	 Total Energy              =    -573.0933640185817239 [Eh]

	 ================> DF-SCS-MP2 Energies <==================
	-----------------------------------------------------------
	 SCS Same-Spin Scale       =       0.3333333333333333 [-]
	 SCS Opposite-Spin Scale   =       1.2000000000000000 [-]
	 SCS Same-Spin Energy      =      -0.2120885839272639 [Eh]
	 SCS Opposite-Spin Energy  =      -2.3637337736641899 [Eh]
	 SCS Correlation Energy    =      -2.5758223575914538 [Eh]
	 SCS Total Energy          =    -573.0631424796712281 [Eh]
	-----------------------------------------------------------

  Dipole Moment: [D]
     X:     1.7282      Y:     1.8377      Z:     0.1574     Total:     2.5275

*** Psi4 exiting successfully. Buy a developer a beer!
