                               Psi4 1.4a3.dev225

  ==> Input File <==

--------------------------------------------------------------------------
#psi4
#
memory 32 gb

molecule  {
0 1
  N       -0.4914050     1.0723760    -0.3164170
  N        1.0085960    -0.7184190    -0.0133500
  C       -1.7100270     0.3982770    -0.1243180
  C        0.9914766     0.5298952    -0.1318971
  C        3.4026260    -0.3179870     0.1123840
  C        1.8688800     1.5249980    -0.1805650
  C        3.1641670     1.0570110    -0.0435420
  C       -2.8187550     1.1723340     0.2577460
  C       -1.8866400    -0.9712620    -0.3801370
  C        2.2803750    -1.1431010     0.1169750
  C        4.7931030    -0.8701860     0.2621020
  C       -4.0754850     0.5909990     0.4048790
  C       -3.1483220    -1.5428300    -0.2100850
  C       -4.2492880    -0.7746780     0.1720620
  H       -0.5683120     2.0807040    -0.2404560
  H        1.6730390     2.5885970    -0.3025930
  H        3.9969070     1.7590030    -0.0564670
  H       -2.6877930     2.2355590     0.4578160
  H       -1.0395640    -1.5738120    -0.6782690
  H        2.3962560    -2.2212150     0.2333330
  H        5.4095350    -0.6367030    -0.6119800
  H        5.2936270    -0.4518060     1.1412500
  H        4.7686350    -1.9575490     0.3752240
  H       -4.9184630     1.2095470     0.7042290
  H       -3.2707080    -2.6065070    -0.4021260
  H       -5.2268190    -1.2338160     0.2940590
units angstrom
no_reorient  #important for SAPT in psi4, default
symmetry c1  #important for SAPT in psi4, default
}

set PROPERTIES_ORIGIN ["COM"]
properties('MP2/aug-cc-pvtz', properties = ['dipole'])
--------------------------------------------------------------------------

    Molecular point group: c1
  Charge       = 0
  Multiplicity = 1
  Basis Set: AUG-CC-PVTZ
    Blend: AUG-CC-PVTZ
  Basis Set: (AUG-CC-PVTZ AUX)
    Blend: AUG-CC-PVTZ-JKFIT

    Orbital Energies [Eh]
    ---------------------

    Doubly Occupied:

       1A    -15.569165     2A    -15.559311     3A    -11.322106
       4A    -11.286542     5A    -11.271773     6A    -11.266822
       7A    -11.251639     8A    -11.246284     9A    -11.239513
      10A    -11.223177    11A    -11.220641    12A    -11.213430
      13A    -11.208275    14A    -11.205446    15A     -1.314909
      16A     -1.197692    17A     -1.125159    18A     -1.113992
      19A     -1.063018    20A     -0.996221    21A     -0.976325
      22A     -0.942405    23A     -0.888402    24A     -0.835418
      25A     -0.812961    26A     -0.791726    27A     -0.716676
      28A     -0.702792    29A     -0.673435    30A     -0.659772
      31A     -0.638985    32A     -0.613926    33A     -0.603265
      34A     -0.591474    35A     -0.571691    36A     -0.571345
      37A     -0.569320    38A     -0.565137    39A     -0.553864
      40A     -0.519994    41A     -0.508570    42A     -0.494447
      43A     -0.479060    44A     -0.435853    45A     -0.433916
      46A     -0.399371    47A     -0.348203    48A     -0.320985
      49A     -0.270971

  @DF-RHF Final Energy:  -570.45637614191332

   => Energetics <=

    Nuclear Repulsion Energy =            791.3207507878483966
    One-Electron Energy =               -2342.7834370864111406
    Two-Electron Energy =                 981.0063101566495334
    Total Energy =                       -570.4563761419133243
  Basis Set: (AUG-CC-PVTZ AUX)
    Blend: AUG-CC-PVTZ-RI
    Molecular point group: c1

    Geometry (in Angstrom), charge = 0, multiplicity = 1:

       Center              X                  Y                   Z               Mass
    ------------   -----------------  -----------------  -----------------  -----------------
         N           -0.472173730453     1.072463952964    -0.312998572494    14.003074004430
         N            1.027827269547    -0.718331047036    -0.009931572494    14.003074004430
         C           -1.690795730453     0.398364952964    -0.120899572494    12.000000000000
         C            1.010707869547     0.529983152964    -0.128478672494    12.000000000000
         C            3.421857269547    -0.317899047036     0.115802427506    12.000000000000
         C            1.888111269547     1.525085952964    -0.177146572494    12.000000000000
         C            3.183398269547     1.057098952964    -0.040123572494    12.000000000000
         C           -2.799523730453     1.172421952964     0.261164427506    12.000000000000
         C           -1.867408730453    -0.971174047036    -0.376718572494    12.000000000000
         C            2.299606269547    -1.143013047036     0.120393427506    12.000000000000
         C            4.812334269547    -0.870098047036     0.265520427506    12.000000000000
         C           -4.056253730453     0.591086952964     0.408297427506    12.000000000000
         C           -3.129090730453    -1.542742047036    -0.206666572494    12.000000000000
         C           -4.230056730453    -0.774590047036     0.175480427506    12.000000000000
         H           -0.549080730453     2.080791952964    -0.237037572494     1.007825032230
         H            1.692270269547     2.588684952964    -0.299174572494     1.007825032230
         H            4.016138269547     1.759090952964    -0.053048572494     1.007825032230
         H           -2.668561730453     2.235646952964     0.461234427506     1.007825032230
         H           -1.020332730453    -1.573724047036    -0.674850572494     1.007825032230
         H            2.415487269547    -2.221127047036     0.236751427506     1.007825032230
         H            5.428766269547    -0.636615047036    -0.608561572494     1.007825032230
         H            5.312858269547    -0.451718047036     1.144668427506     1.007825032230
         H            4.787866269547    -1.957461047036     0.378642427506     1.007825032230
         H           -4.899231730453     1.209634952964     0.707647427506     1.007825032230
         H           -3.251476730453    -2.606419047036    -0.398707572494     1.007825032230
         H           -5.207587730453    -1.233728047036     0.297477427506     1.007825032230

  Basis Set: AUG-CC-PVTZ
    Blend: AUG-CC-PVTZ
  Basis Set: (AUG-CC-PVTZ AUX)
    Blend: AUG-CC-PVTZ-JKFIT
	 Reference Energy          =    -570.4563761419133243 [Eh]
	 Singles Energy            =      -0.0000000000000000 [Eh]
	 Same-Spin Energy          =      -0.6367922955616160 [Eh]
	 Opposite-Spin Energy      =      -1.9721947702978724 [Eh]
	 Correlation Energy        =      -2.6089870658594885 [Eh]
	 Total Energy              =    -573.0653632077728616 [Eh]

	 ================> DF-SCS-MP2 Energies <==================
	-----------------------------------------------------------
	 SCS Same-Spin Scale       =       0.3333333333333333 [-]
	 SCS Opposite-Spin Scale   =       1.2000000000000000 [-]
	 SCS Same-Spin Energy      =      -0.2122640985205387 [Eh]
	 SCS Opposite-Spin Energy  =      -2.3666337243574467 [Eh]
	 SCS Correlation Energy    =      -2.5788978228779853 [Eh]
	 SCS Total Energy          =    -573.0352739647912585 [Eh]
	-----------------------------------------------------------

  Dipole Moment: [D]
     X:     4.1111      Y:     1.6156      Z:     0.3000     Total:     4.4274

*** Psi4 exiting successfully. Buy a developer a beer!
