                               Psi4 1.4a3.dev225

  ==> Input File <==

--------------------------------------------------------------------------
#psi4
#
memory 32 gb

molecule  {
0 1
  N       -0.4914050     1.0723760    -0.3164170
  N        1.0085960    -0.7184190    -0.0133500
  C       -1.7100270     0.3982770    -0.1243180
  C        0.8049200     0.5981430    -0.1551110
  C        3.4026260    -0.3179870     0.1123840
  C        1.8688800     1.5249980    -0.1805650
  C        3.1641670     1.0570110    -0.0435420
  C       -2.8187550     1.1723340     0.2577460
  C       -1.8866400    -0.9712620    -0.3801370
  C        2.2803750    -1.1431010     0.1169750
  C        4.7931030    -0.8701860     0.2621020
  C       -4.0754850     0.5909990     0.4048790
  C       -3.1483220    -1.5428300    -0.2100850
  C       -4.2492880    -0.7746780     0.1720620
  H       -0.5683120     2.0807040    -0.2404560
  H        1.6730390     2.5885970    -0.3025930
  H        3.9816165     1.7461133    -0.0562297
  H       -2.6877930     2.2355590     0.4578160
  H       -1.0395640    -1.5738120    -0.6782690
  H        2.3962560    -2.2212150     0.2333330
  H        5.4095350    -0.6367030    -0.6119800
  H        5.2936270    -0.4518060     1.1412500
  H        4.7686350    -1.9575490     0.3752240
  H       -4.9184630     1.2095470     0.7042290
  H       -3.2707080    -2.6065070    -0.4021260
  H       -5.2268190    -1.2338160     0.2940590
units angstrom
no_reorient  #important for SAPT in psi4, default
symmetry c1  #important for SAPT in psi4, default
}

set PROPERTIES_ORIGIN ["COM"]
properties('MP2/aug-cc-pvtz', properties = ['dipole'])
--------------------------------------------------------------------------

    Molecular point group: c1
  Charge       = 0
  Multiplicity = 1
  Basis Set: AUG-CC-PVTZ
    Blend: AUG-CC-PVTZ
  Basis Set: (AUG-CC-PVTZ AUX)
    Blend: AUG-CC-PVTZ-JKFIT

    Orbital Energies [Eh]
    ---------------------

    Doubly Occupied:

       1A    -15.589051     2A    -15.553657     3A    -11.322862
       4A    -11.280896     5A    -11.272628     6A    -11.256116
       7A    -11.238693     8A    -11.235111     9A    -11.233698
      10A    -11.230273    11A    -11.228930    12A    -11.228559
      13A    -11.221411    14A    -11.218374    15A     -1.293040
      16A     -1.220044    17A     -1.132757    18A     -1.097373
      19A     -1.045916    20A     -1.008008    21A     -0.993128
      22A     -0.934884    23A     -0.869560    24A     -0.841187
      25A     -0.821151    26A     -0.798684    27A     -0.724745
      28A     -0.715500    29A     -0.670563    30A     -0.653385
      31A     -0.637068    32A     -0.621882    33A     -0.596138
      34A     -0.593598    35A     -0.588464    36A     -0.579616
      37A     -0.569677    38A     -0.564278    39A     -0.546770
      40A     -0.519051    41A     -0.511060    42A     -0.504106
      43A     -0.487334    44A     -0.454043    45A     -0.414391
      46A     -0.381317    47A     -0.336504    48A     -0.330444
      49A     -0.276850

  @DF-RHF Final Energy:  -570.49907869321919

   => Energetics <=

    Nuclear Repulsion Energy =            790.8748103735225641
    One-Electron Energy =               -2341.8622369238678402
    Two-Electron Energy =                 980.4883478571262003
    Total Energy =                       -570.4990786932191895
  Basis Set: (AUG-CC-PVTZ AUX)
    Blend: AUG-CC-PVTZ-RI
    Molecular point group: c1

    Geometry (in Angstrom), charge = 0, multiplicity = 1:

       Center              X                  Y                   Z               Mass
    ------------   -----------------  -----------------  -----------------  -----------------
         N           -0.459929902337     1.068085990847    -0.311486744303    14.003074004430
         N            1.040071097663    -0.722709009153    -0.008419744303    14.003074004430
         C           -1.678551902337     0.393986990847    -0.119387744303    12.000000000000
         C            0.836395097663     0.593852990847    -0.150180744303    12.000000000000
         C            3.434101097663    -0.322277009153     0.117314255697    12.000000000000
         C            1.900355097663     1.520707990847    -0.175634744303    12.000000000000
         C            3.195642097663     1.052720990847    -0.038611744303    12.000000000000
         C           -2.787279902337     1.168043990847     0.262676255697    12.000000000000
         C           -1.855164902337    -0.975552009153    -0.375206744303    12.000000000000
         C            2.311850097663    -1.147391009153     0.121905255697    12.000000000000
         C            4.824578097663    -0.874476009153     0.267032255697    12.000000000000
         C           -4.044009902337     0.586708990847     0.409809255697    12.000000000000
         C           -3.116846902337    -1.547120009153    -0.205154744303    12.000000000000
         C           -4.217812902337    -0.778968009153     0.176992255697    12.000000000000
         H           -0.536836902337     2.076413990847    -0.235525744303     1.007825032230
         H            1.704514097663     2.584306990847    -0.297662744303     1.007825032230
         H            4.013091597663     1.741823290847    -0.051299444303     1.007825032230
         H           -2.656317902337     2.231268990847     0.462746255697     1.007825032230
         H           -1.008088902337    -1.578102009153    -0.673338744303     1.007825032230
         H            2.427731097663    -2.225505009153     0.238263255697     1.007825032230
         H            5.441010097663    -0.640993009153    -0.607049744303     1.007825032230
         H            5.325102097663    -0.456096009153     1.146180255697     1.007825032230
         H            4.800110097663    -1.961839009153     0.380154255697     1.007825032230
         H           -4.886987902337     1.205256990847     0.709159255697     1.007825032230
         H           -3.239232902337    -2.610797009153    -0.397195744303     1.007825032230
         H           -5.195343902337    -1.238106009153     0.298989255697     1.007825032230

  Basis Set: AUG-CC-PVTZ
    Blend: AUG-CC-PVTZ
  Basis Set: (AUG-CC-PVTZ AUX)
    Blend: AUG-CC-PVTZ-JKFIT
	 Reference Energy          =    -570.4990786932191895 [Eh]
	 Singles Energy            =      -0.0000000000000000 [Eh]
	 Same-Spin Energy          =      -0.6363745442304337 [Eh]
	 Opposite-Spin Energy      =      -1.9707528882771672 [Eh]
	 Correlation Energy        =      -2.6071274325076010 [Eh]
	 Total Energy              =    -573.1062061257267715 [Eh]

	 ================> DF-SCS-MP2 Energies <==================
	-----------------------------------------------------------
	 SCS Same-Spin Scale       =       0.3333333333333333 [-]
	 SCS Opposite-Spin Scale   =       1.2000000000000000 [-]
	 SCS Same-Spin Energy      =      -0.2121248480768112 [Eh]
	 SCS Opposite-Spin Energy  =      -2.3649034659326005 [Eh]
	 SCS Correlation Energy    =      -2.5770283140094117 [Eh]
	 SCS Total Energy          =    -573.0761070072286429 [Eh]
	-----------------------------------------------------------

  Dipole Moment: [D]
     X:     1.8779      Y:     1.8582      Z:     0.1629     Total:     2.6469

*** Psi4 exiting successfully. Buy a developer a beer!
