                               Psi4 1.4a3.dev225

  ==> Input File <==

--------------------------------------------------------------------------
#psi4
#
memory 32 gb

molecule  {
0 1
  N       -0.4914050     1.0723760    -0.3164170
  N        1.0085960    -0.7184190    -0.0133500
  C       -1.7100270     0.3982770    -0.1243180
  C        0.8049200     0.5981430    -0.1551110
  C        3.4026260    -0.3179870     0.1123840
  C        1.8688800     1.5249980    -0.1805650
  C        3.1641670     1.0570110    -0.0435420
  C       -2.8187550     1.1723340     0.2577460
  C       -1.8866400    -0.9712620    -0.3801370
  C        2.2803750    -1.1431010     0.1169750
  C        4.7931030    -0.8701860     0.2621020
  C       -3.8949811     0.6744960     0.3837463
  C       -3.1483220    -1.5428300    -0.2100850
  C       -4.2492880    -0.7746780     0.1720620
  H       -0.5683120     2.0807040    -0.2404560
  H        1.6730390     2.5885970    -0.3025930
  H        3.9969070     1.7590030    -0.0564670
  H       -2.6877930     2.2355590     0.4578160
  H       -1.0395640    -1.5738120    -0.6782690
  H        2.3962560    -2.2212150     0.2333330
  H        5.4095350    -0.6367030    -0.6119800
  H        5.2936270    -0.4518060     1.1412500
  H        4.7686350    -1.9575490     0.3752240
  H       -4.9184630     1.2095470     0.7042290
  H       -3.2707080    -2.6065070    -0.4021260
  H       -5.2268190    -1.2338160     0.2940590
units angstrom
no_reorient  #important for SAPT in psi4, default
symmetry c1  #important for SAPT in psi4, default
}

set PROPERTIES_ORIGIN ["COM"]
properties('MP2/aug-cc-pvtz', properties = ['dipole'])
--------------------------------------------------------------------------

    Molecular point group: c1
  Charge       = 0
  Multiplicity = 1
  Basis Set: AUG-CC-PVTZ
    Blend: AUG-CC-PVTZ
  Basis Set: (AUG-CC-PVTZ AUX)
    Blend: AUG-CC-PVTZ-JKFIT

    Orbital Energies [Eh]
    ---------------------

    Doubly Occupied:

       1A    -15.591666     2A    -15.554272     3A    -11.323363
       4A    -11.281775     5A    -11.272985     6A    -11.258784
       7A    -11.239728     8A    -11.236032     9A    -11.229328
      10A    -11.228395    11A    -11.227792    12A    -11.226754
      13A    -11.212442    14A    -11.207109    15A     -1.294305
      16A     -1.222551    17A     -1.149951    18A     -1.097413
      19A     -1.044335    20A     -1.035842    21A     -0.981192
      22A     -0.935417    23A     -0.869097    24A     -0.845319
      25A     -0.811036    26A     -0.797885    27A     -0.720155
      28A     -0.717570    29A     -0.674188    30A     -0.654610
      31A     -0.636986    32A     -0.624338    33A     -0.599706
      34A     -0.592854    35A     -0.588842    36A     -0.577130
      37A     -0.570108    38A     -0.555096    39A     -0.547474
      40A     -0.527063    41A     -0.518087    42A     -0.513154
      43A     -0.460145    44A     -0.442582    45A     -0.413934
      46A     -0.381765    47A     -0.361074    48A     -0.329207
      49A     -0.269958

  @DF-RHF Final Energy:  -570.43590347136421

   => Energetics <=

    Nuclear Repulsion Energy =            793.6722760925330249
    One-Electron Energy =               -2347.3147727292862328
    Two-Electron Energy =                 983.2065931653888811
    Total Energy =                       -570.4359034713642131
  Basis Set: (AUG-CC-PVTZ AUX)
    Blend: AUG-CC-PVTZ-RI
    Molecular point group: c1

    Geometry (in Angstrom), charge = 0, multiplicity = 1:

       Center              X                  Y                   Z               Mass
    ------------   -----------------  -----------------  -----------------  -----------------
         N           -0.471779203669     1.062572931121    -0.310107974666    14.003074004430
         N            1.028221796331    -0.728222068879    -0.007040974666    14.003074004430
         C           -1.690401203669     0.388473931121    -0.118008974666    12.000000000000
         C            0.824545796331     0.588339931121    -0.148801974666    12.000000000000
         C            3.422251796331    -0.327790068879     0.118693025334    12.000000000000
         C            1.888505796331     1.515194931121    -0.174255974666    12.000000000000
         C            3.183792796331     1.047207931121    -0.037232974666    12.000000000000
         C           -2.799129203669     1.162530931121     0.264055025334    12.000000000000
         C           -1.867014203669    -0.981065068879    -0.373827974666    12.000000000000
         C            2.300000796331    -1.152904068879     0.123284025334    12.000000000000
         C            4.812728796331    -0.879989068879     0.268411025334    12.000000000000
         C           -3.875355303669     0.664692931121     0.390055325334    12.000000000000
         C           -3.128696203669    -1.552633068879    -0.203775974666    12.000000000000
         C           -4.229662203669    -0.784481068879     0.178371025334    12.000000000000
         H           -0.548686203669     2.070900931121    -0.234146974666     1.007825032230
         H            1.692664796331     2.578793931121    -0.296283974666     1.007825032230
         H            4.016532796331     1.749199931121    -0.050157974666     1.007825032230
         H           -2.668167203669     2.225755931121     0.464125025334     1.007825032230
         H           -1.019938203669    -1.583615068879    -0.671959974666     1.007825032230
         H            2.415881796331    -2.231018068879     0.239642025334     1.007825032230
         H            5.429160796331    -0.646506068879    -0.605670974666     1.007825032230
         H            5.313252796331    -0.461609068879     1.147559025334     1.007825032230
         H            4.788260796331    -1.967352068879     0.381533025334     1.007825032230
         H           -4.898837203669     1.199743931121     0.710538025334     1.007825032230
         H           -3.251082203669    -2.616310068879    -0.395816974666     1.007825032230
         H           -5.207193203669    -1.243619068879     0.300368025334     1.007825032230

  Basis Set: AUG-CC-PVTZ
    Blend: AUG-CC-PVTZ
  Basis Set: (AUG-CC-PVTZ AUX)
    Blend: AUG-CC-PVTZ-JKFIT
	 Reference Energy          =    -570.4359034713642131 [Eh]
	 Singles Energy            =      -0.0000000000000000 [Eh]
	 Same-Spin Energy          =      -0.6360996440207234 [Eh]
	 Opposite-Spin Energy      =      -1.9724490424441319 [Eh]
	 Correlation Energy        =      -2.6085486864648555 [Eh]
	 Total Energy              =    -573.0444521578290278 [Eh]

	 ================> DF-SCS-MP2 Energies <==================
	-----------------------------------------------------------
	 SCS Same-Spin Scale       =       0.3333333333333333 [-]
	 SCS Opposite-Spin Scale   =       1.2000000000000000 [-]
	 SCS Same-Spin Energy      =      -0.2120332146735744 [Eh]
	 SCS Opposite-Spin Energy  =      -2.3669388509329581 [Eh]
	 SCS Correlation Energy    =      -2.5789720656065325 [Eh]
	 SCS Total Energy          =    -573.0148755369707487 [Eh]
	-----------------------------------------------------------

  Dipole Moment: [D]
     X:     1.9747      Y:     1.9002      Z:     0.1594     Total:     2.7451

*** Psi4 exiting successfully. Buy a developer a beer!
