                               Psi4 1.4a3.dev225

  ==> Input File <==

--------------------------------------------------------------------------
#psi4
#
memory 32 gb

molecule  {
0 1
  N       -0.4914050     1.0723760    -0.3164170
  N        1.0085960    -0.7184190    -0.0133500
  C       -1.7100270     0.3982770    -0.1243180
  C        0.8049200     0.5981430    -0.1551110
  C        3.4026260    -0.3179870     0.1123840
  C        1.8688800     1.5249980    -0.1805650
  C        3.1641670     1.0570110    -0.0435420
  C       -2.8187550     1.1723340     0.2577460
  C       -1.8866400    -0.9712620    -0.3801370
  C        2.2803750    -1.1431010     0.1169750
  C        4.7931030    -0.8701860     0.2621020
  C       -4.0754850     0.5909990     0.4048790
  C       -3.1483220    -1.5428300    -0.2100850
  C       -4.2492880    -0.7746780     0.1720620
  H       -0.5683120     2.0807040    -0.2404560
  H        1.6370501     2.7840502    -0.3250176
  H        3.9969070     1.7590030    -0.0564670
  H       -2.6877930     2.2355590     0.4578160
  H       -1.0395640    -1.5738120    -0.6782690
  H        2.3962560    -2.2212150     0.2333330
  H        5.4095350    -0.6367030    -0.6119800
  H        5.2936270    -0.4518060     1.1412500
  H        4.7686350    -1.9575490     0.3752240
  H       -4.9184630     1.2095470     0.7042290
  H       -3.2707080    -2.6065070    -0.4021260
  H       -5.2268190    -1.2338160     0.2940590
units angstrom
no_reorient  #important for SAPT in psi4, default
symmetry c1  #important for SAPT in psi4, default
}

set PROPERTIES_ORIGIN ["COM"]
properties('MP2/aug-cc-pvtz', properties = ['dipole'])
--------------------------------------------------------------------------

    Molecular point group: c1
  Charge       = 0
  Multiplicity = 1
  Basis Set: AUG-CC-PVTZ
    Blend: AUG-CC-PVTZ
  Basis Set: (AUG-CC-PVTZ AUX)
    Blend: AUG-CC-PVTZ-JKFIT

    Orbital Energies [Eh]
    ---------------------

    Doubly Occupied:

       1A    -15.588825     2A    -15.555865     3A    -11.325628
       4A    -11.280854     5A    -11.274118     6A    -11.261390
       7A    -11.260034     8A    -11.237151     9A    -11.233711
      10A    -11.230342    11A    -11.230057    12A    -11.228532
      13A    -11.221446    14A    -11.218478    15A     -1.293813
      16A     -1.221073    17A     -1.132786    18A     -1.097457
      19A     -1.043582    20A     -1.008047    21A     -0.992935
      22A     -0.935900    23A     -0.866344    24A     -0.838987
      25A     -0.818388    26A     -0.798165    27A     -0.723563
      28A     -0.715051    29A     -0.670834    30A     -0.651979
      31A     -0.626359    32A     -0.607394    33A     -0.594601
      34A     -0.592029    35A     -0.585440    36A     -0.578529
      37A     -0.569724    38A     -0.564103    39A     -0.546962
      40A     -0.516222    41A     -0.509388    42A     -0.501673
      43A     -0.487157    44A     -0.454414    45A     -0.414315
      46A     -0.383257    47A     -0.337313    48A     -0.330597
      49A     -0.277404

  @DF-RHF Final Energy:  -570.47668550271146

   => Energetics <=

    Nuclear Repulsion Energy =            789.8049812334047601
    One-Electron Energy =               -2339.6989012223148166
    Two-Electron Energy =                 979.4172344861985948
    Total Energy =                       -570.4766855027114616
  Basis Set: (AUG-CC-PVTZ AUX)
    Blend: AUG-CC-PVTZ-RI
    Molecular point group: c1

    Geometry (in Angstrom), charge = 0, multiplicity = 1:

       Center              X                  Y                   Z               Mass
    ------------   -----------------  -----------------  -----------------  -----------------
         N           -0.459816592396     1.066945452364    -0.311362685509    14.003074004430
         N            1.040184407604    -0.723849547636    -0.008295685509    14.003074004430
         C           -1.678438592396     0.392846452364    -0.119263685509    12.000000000000
         C            0.836508407604     0.592712452364    -0.150056685509    12.000000000000
         C            3.434214407604    -0.323417547636     0.117438314491    12.000000000000
         C            1.900468407604     1.519567452364    -0.175510685509    12.000000000000
         C            3.195755407604     1.051580452364    -0.038487685509    12.000000000000
         C           -2.787166592396     1.166903452364     0.262800314491    12.000000000000
         C           -1.855051592396    -0.976692547636    -0.375082685509    12.000000000000
         C            2.311963407604    -1.148531547636     0.122029314491    12.000000000000
         C            4.824691407604    -0.875616547636     0.267156314491    12.000000000000
         C           -4.043896592396     0.585568452364     0.409933314491    12.000000000000
         C           -3.116733592396    -1.548260547636    -0.205030685509    12.000000000000
         C           -4.217699592396    -0.780108547636     0.177116314491    12.000000000000
         H           -0.536723592396     2.075273452364    -0.235401685509     1.007825032230
         H            1.668638507604     2.778619652364    -0.319963285509     1.007825032230
         H            4.028495407604     1.753572452364    -0.051412685509     1.007825032230
         H           -2.656204592396     2.230128452364     0.462870314491     1.007825032230
         H           -1.007975592396    -1.579242547636    -0.673214685509     1.007825032230
         H            2.427844407604    -2.226645547636     0.238387314491     1.007825032230
         H            5.441123407604    -0.642133547636    -0.606925685509     1.007825032230
         H            5.325215407604    -0.457236547636     1.146304314491     1.007825032230
         H            4.800223407604    -1.962979547636     0.380278314491     1.007825032230
         H           -4.886874592396     1.204116452364     0.709283314491     1.007825032230
         H           -3.239119592396    -2.611937547636    -0.397071685509     1.007825032230
         H           -5.195230592396    -1.239246547636     0.299113314491     1.007825032230

  Basis Set: AUG-CC-PVTZ
    Blend: AUG-CC-PVTZ
  Basis Set: (AUG-CC-PVTZ AUX)
    Blend: AUG-CC-PVTZ-JKFIT
	 Reference Energy          =    -570.4766855027114616 [Eh]
	 Singles Energy            =      -0.0000000000000000 [Eh]
	 Same-Spin Energy          =      -0.6370211114936093 [Eh]
	 Opposite-Spin Energy      =      -1.9732182351798626 [Eh]
	 Correlation Energy        =      -2.6102393466734721 [Eh]
	 Total Energy              =    -573.0869248493849000 [Eh]

	 ================> DF-SCS-MP2 Energies <==================
	-----------------------------------------------------------
	 SCS Same-Spin Scale       =       0.3333333333333333 [-]
	 SCS Opposite-Spin Scale   =       1.2000000000000000 [-]
	 SCS Same-Spin Energy      =      -0.2123403704978697 [Eh]
	 SCS Opposite-Spin Energy  =      -2.3678618822158350 [Eh]
	 SCS Correlation Energy    =      -2.5802022527137050 [Eh]
	 SCS Total Energy          =    -573.0568877554251230 [Eh]
	-----------------------------------------------------------

  Dipole Moment: [D]
     X:     1.9038      Y:     1.7544      Z:     0.1752     Total:     2.5949

*** Psi4 exiting successfully. Buy a developer a beer!
