                               Psi4 1.4a3.dev225

  ==> Input File <==

--------------------------------------------------------------------------
#psi4
#
memory 32 gb

molecule  {
0 1
  N       -0.4914050     1.0723760    -0.3164170
  N        1.0085960    -0.7184190    -0.0133500
  C       -1.7100270     0.3982770    -0.1243180
  C        0.8049200     0.5981430    -0.1551110
  C        3.4026260    -0.3179870     0.1123840
  C        1.8688800     1.5249980    -0.1805650
  C        3.1471852     1.1549309    -0.0546462
  C       -2.8187550     1.1723340     0.2577460
  C       -1.8866400    -0.9712620    -0.3801370
  C        2.2803750    -1.1431010     0.1169750
  C        4.7931030    -0.8701860     0.2621020
  C       -4.0754850     0.5909990     0.4048790
  C       -3.1483220    -1.5428300    -0.2100850
  C       -4.2492880    -0.7746780     0.1720620
  H       -0.5683120     2.0807040    -0.2404560
  H        1.6730390     2.5885970    -0.3025930
  H        3.9969070     1.7590030    -0.0564670
  H       -2.6877930     2.2355590     0.4578160
  H       -1.0395640    -1.5738120    -0.6782690
  H        2.3962560    -2.2212150     0.2333330
  H        5.4095350    -0.6367030    -0.6119800
  H        5.2936270    -0.4518060     1.1412500
  H        4.7686350    -1.9575490     0.3752240
  H       -4.9184630     1.2095470     0.7042290
  H       -3.2707080    -2.6065070    -0.4021260
  H       -5.2268190    -1.2338160     0.2940590
units angstrom
no_reorient  #important for SAPT in psi4, default
symmetry c1  #important for SAPT in psi4, default
}

set PROPERTIES_ORIGIN ["COM"]
properties('MP2/aug-cc-pvtz', properties = ['dipole'])
--------------------------------------------------------------------------

    Molecular point group: c1
  Charge       = 0
  Multiplicity = 1
  Basis Set: AUG-CC-PVTZ
    Blend: AUG-CC-PVTZ
  Basis Set: (AUG-CC-PVTZ AUX)
    Blend: AUG-CC-PVTZ-JKFIT

    Orbital Energies [Eh]
    ---------------------

    Doubly Occupied:

       1A    -15.591987     2A    -15.550627     3A    -11.325993
       4A    -11.281841     5A    -11.266208     6A    -11.259423
       7A    -11.241154     8A    -11.238820     9A    -11.234395
      10A    -11.230830    11A    -11.229725    12A    -11.227779
      13A    -11.222397    14A    -11.219246    15A     -1.293389
      16A     -1.218035    17A     -1.133388    18A     -1.092089
      19A     -1.047837    20A     -1.008757    21A     -0.996038
      22A     -0.932203    23A     -0.867995    24A     -0.838521
      25A     -0.819142    26A     -0.800861    27A     -0.727289
      28A     -0.715320    29A     -0.672107    30A     -0.652481
      31A     -0.636411    32A     -0.624277    33A     -0.598220
      34A     -0.593658    35A     -0.587400    36A     -0.581284
      37A     -0.575327    38A     -0.567819    39A     -0.544897
      40A     -0.514262    41A     -0.506642    42A     -0.497276
      43A     -0.486871    44A     -0.452689    45A     -0.412137
      46A     -0.386610    47A     -0.334251    48A     -0.329731
      49A     -0.276324

  @DF-RHF Final Energy:  -570.48785131447380

   => Energetics <=

    Nuclear Repulsion Energy =            789.7809373762057703
    One-Electron Energy =               -2339.6536489695554337
    Two-Electron Energy =                 979.3848602788759763
    Total Energy =                       -570.4878513144738008
  Basis Set: (AUG-CC-PVTZ AUX)
    Blend: AUG-CC-PVTZ-RI
    Molecular point group: c1

    Geometry (in Angstrom), charge = 0, multiplicity = 1:

       Center              X                  Y                   Z               Mass
    ------------   -----------------  -----------------  -----------------  -----------------
         N           -0.458906700807     1.061632818386    -0.310761651844    14.003074004430
         N            1.041094299193    -0.729162181614    -0.007694651844    14.003074004430
         C           -1.677528700807     0.387533818386    -0.118662651844    12.000000000000
         C            0.837418299193     0.587399818386    -0.149455651844    12.000000000000
         C            3.435124299193    -0.328730181614     0.118039348156    12.000000000000
         C            1.901378299193     1.514254818386    -0.174909651844    12.000000000000
         C            3.179683499193     1.144187718386    -0.048990851844    12.000000000000
         C           -2.786256700807     1.161590818386     0.263401348156    12.000000000000
         C           -1.854141700807    -0.982005181614    -0.374481651844    12.000000000000
         C            2.312873299193    -1.153844181614     0.122630348156    12.000000000000
         C            4.825601299193    -0.880929181614     0.267757348156    12.000000000000
         C           -4.042986700807     0.580255818386     0.410534348156    12.000000000000
         C           -3.115823700807    -1.553573181614    -0.204429651844    12.000000000000
         C           -4.216789700807    -0.785421181614     0.177717348156    12.000000000000
         H           -0.535813700807     2.069960818386    -0.234800651844     1.007825032230
         H            1.705537299193     2.577853818386    -0.296937651844     1.007825032230
         H            4.029405299193     1.748259818386    -0.050811651844     1.007825032230
         H           -2.655294700807     2.224815818386     0.463471348156     1.007825032230
         H           -1.007065700807    -1.584555181614    -0.672613651844     1.007825032230
         H            2.428754299193    -2.231958181614     0.238988348156     1.007825032230
         H            5.442033299193    -0.647446181614    -0.606324651844     1.007825032230
         H            5.326125299193    -0.462549181614     1.146905348156     1.007825032230
         H            4.801133299193    -1.968292181614     0.380879348156     1.007825032230
         H           -4.885964700807     1.198803818386     0.709884348156     1.007825032230
         H           -3.238209700807    -2.617250181614    -0.396470651844     1.007825032230
         H           -5.194320700807    -1.244559181614     0.299714348156     1.007825032230

  Basis Set: AUG-CC-PVTZ
    Blend: AUG-CC-PVTZ
  Basis Set: (AUG-CC-PVTZ AUX)
    Blend: AUG-CC-PVTZ-JKFIT
	 Reference Energy          =    -570.4878513144738008 [Eh]
	 Singles Energy            =      -0.0000000000000000 [Eh]
	 Same-Spin Energy          =      -0.6358789753254870 [Eh]
	 Opposite-Spin Energy      =      -1.9714349647653162 [Eh]
	 Correlation Energy        =      -2.6073139400908030 [Eh]
	 Total Energy              =    -573.0951652545645629 [Eh]

	 ================> DF-SCS-MP2 Energies <==================
	-----------------------------------------------------------
	 SCS Same-Spin Scale       =       0.3333333333333333 [-]
	 SCS Opposite-Spin Scale   =       1.2000000000000000 [-]
	 SCS Same-Spin Energy      =      -0.2119596584418290 [Eh]
	 SCS Opposite-Spin Energy  =      -2.3657219577183795 [Eh]
	 SCS Correlation Energy    =      -2.5776816161602083 [Eh]
	 SCS Total Energy          =    -573.0655329306340491 [Eh]
	-----------------------------------------------------------

  Dipole Moment: [D]
     X:     1.7981      Y:     1.9394      Z:     0.1549     Total:     2.6492

*** Psi4 exiting successfully. Buy a developer a beer!
