                               Psi4 1.4a3.dev225

  ==> Input File <==

--------------------------------------------------------------------------
#psi4
#
memory 32 gb

molecule  {
0 1
  N       -0.4914050     1.0723760    -0.3164170
  N        1.1456286    -0.6891519    -0.0077844
  C       -1.7100270     0.3982770    -0.1243180
  C        0.8049200     0.5981430    -0.1551110
  C        3.4026260    -0.3179870     0.1123840
  C        1.8688800     1.5249980    -0.1805650
  C        3.1641670     1.0570110    -0.0435420
  C       -2.8187550     1.1723340     0.2577460
  C       -1.8866400    -0.9712620    -0.3801370
  C        2.2803750    -1.1431010     0.1169750
  C        4.7931030    -0.8701860     0.2621020
  C       -4.0754850     0.5909990     0.4048790
  C       -3.1483220    -1.5428300    -0.2100850
  C       -4.2492880    -0.7746780     0.1720620
  H       -0.5683120     2.0807040    -0.2404560
  H        1.6730390     2.5885970    -0.3025930
  H        3.9969070     1.7590030    -0.0564670
  H       -2.6877930     2.2355590     0.4578160
  H       -1.0395640    -1.5738120    -0.6782690
  H        2.3962560    -2.2212150     0.2333330
  H        5.4095350    -0.6367030    -0.6119800
  H        5.2936270    -0.4518060     1.1412500
  H        4.7686350    -1.9575490     0.3752240
  H       -4.9184630     1.2095470     0.7042290
  H       -3.2707080    -2.6065070    -0.4021260
  H       -5.2268190    -1.2338160     0.2940590
units angstrom
no_reorient  #important for SAPT in psi4, default
symmetry c1  #important for SAPT in psi4, default
}

set PROPERTIES_ORIGIN ["COM"]
properties('MP2/aug-cc-pvtz', properties = ['dipole'])
--------------------------------------------------------------------------

    Molecular point group: c1
  Charge       = 0
  Multiplicity = 1
  Basis Set: AUG-CC-PVTZ
    Blend: AUG-CC-PVTZ
  Basis Set: (AUG-CC-PVTZ AUX)
    Blend: AUG-CC-PVTZ-JKFIT

    Orbital Energies [Eh]
    ---------------------

    Doubly Occupied:

       1A    -15.593590     2A    -15.540180     3A    -11.324491
       4A    -11.283817     5A    -11.258597     6A    -11.250412
       7A    -11.236227     8A    -11.234356     9A    -11.233370
      10A    -11.230624    11A    -11.228547    12A    -11.224316
      13A    -11.223511    14A    -11.222159    15A     -1.304847
      16A     -1.243407    17A     -1.136653    18A     -1.091949
      19A     -1.050190    20A     -1.010742    21A     -0.993828
      22A     -0.939051    23A     -0.862609    24A     -0.844582
      25A     -0.824728    26A     -0.804419    27A     -0.730099
      28A     -0.719464    29A     -0.672898    30A     -0.663052
      31A     -0.633942    32A     -0.622805    33A     -0.602025
      34A     -0.596481    35A     -0.593057    36A     -0.581403
      37A     -0.568885    38A     -0.564980    39A     -0.544485
      40A     -0.520238    41A     -0.516658    42A     -0.506773
      43A     -0.489673    44A     -0.461140    45A     -0.389846
      46A     -0.387078    47A     -0.336163    48A     -0.332484
      49A     -0.273954

  @DF-RHF Final Energy:  -570.48504927086992

   => Energetics <=

    Nuclear Repulsion Energy =            792.3703245354117826
    One-Electron Energy =               -2344.7131796153421419
    Two-Electron Energy =                 981.8578058090604372
    Total Energy =                       -570.4850492708699221
  Basis Set: (AUG-CC-PVTZ AUX)
    Blend: AUG-CC-PVTZ-RI
    Molecular point group: c1

    Geometry (in Angstrom), charge = 0, multiplicity = 1:

       Center              X                  Y                   Z               Mass
    ------------   -----------------  -----------------  -----------------  -----------------
         N           -0.470436623027     1.065789305250    -0.311908777608    14.003074004430
         N            1.166596976973    -0.695738594750    -0.003276177608    14.003074004430
         C           -1.689058623027     0.391690305250    -0.119809777608    12.000000000000
         C            0.825888376973     0.591556305250    -0.150602777608    12.000000000000
         C            3.423594376973    -0.324573694750     0.116892222392    12.000000000000
         C            1.889848376973     1.518411305250    -0.176056777608    12.000000000000
         C            3.185135376973     1.050424305250    -0.039033777608    12.000000000000
         C           -2.797786623027     1.165747305250     0.262254222392    12.000000000000
         C           -1.865671623027    -0.977848694750    -0.375628777608    12.000000000000
         C            2.301343376973    -1.149687694750     0.121483222392    12.000000000000
         C            4.814071376973    -0.876772694750     0.266610222392    12.000000000000
         C           -4.054516623027     0.584412305250     0.409387222392    12.000000000000
         C           -3.127353623027    -1.549416694750    -0.205576777608    12.000000000000
         C           -4.228319623027    -0.781264694750     0.176570222392    12.000000000000
         H           -0.547343623027     2.074117305250    -0.235947777608     1.007825032230
         H            1.694007376973     2.582010305250    -0.298084777608     1.007825032230
         H            4.017875376973     1.752416305250    -0.051958777608     1.007825032230
         H           -2.666824623027     2.228972305250     0.462324222392     1.007825032230
         H           -1.018595623027    -1.580398694750    -0.673760777608     1.007825032230
         H            2.417224376973    -2.227801694750     0.237841222392     1.007825032230
         H            5.430503376973    -0.643289694750    -0.607471777608     1.007825032230
         H            5.314595376973    -0.458392694750     1.145758222392     1.007825032230
         H            4.789603376973    -1.964135694750     0.379732222392     1.007825032230
         H           -4.897494623027     1.202960305250     0.708737222392     1.007825032230
         H           -3.249739623027    -2.613093694750    -0.397617777608     1.007825032230
         H           -5.205850623027    -1.240402694750     0.298567222392     1.007825032230

  Basis Set: AUG-CC-PVTZ
    Blend: AUG-CC-PVTZ
  Basis Set: (AUG-CC-PVTZ AUX)
    Blend: AUG-CC-PVTZ-JKFIT
	 Reference Energy          =    -570.4850492708699221 [Eh]
	 Singles Energy            =      -0.0000000000000000 [Eh]
	 Same-Spin Energy          =      -0.6361590233383388 [Eh]
	 Opposite-Spin Energy      =      -1.9681481366278386 [Eh]
	 Correlation Energy        =      -2.6043071599661776 [Eh]
	 Total Energy              =    -573.0893564308361192 [Eh]

	 ================> DF-SCS-MP2 Energies <==================
	-----------------------------------------------------------
	 SCS Same-Spin Scale       =       0.3333333333333333 [-]
	 SCS Opposite-Spin Scale   =       1.2000000000000000 [-]
	 SCS Same-Spin Energy      =      -0.2120530077794463 [Eh]
	 SCS Opposite-Spin Energy  =      -2.3617777639534063 [Eh]
	 SCS Correlation Energy    =      -2.5738307717328528 [Eh]
	 SCS Total Energy          =    -573.0588800426028229 [Eh]
	-----------------------------------------------------------

  Dipole Moment: [D]
     X:     1.3800      Y:     1.7564      Z:     0.1504     Total:     2.2387

*** Psi4 exiting successfully. Buy a developer a beer!
