                               Psi4 1.4a3.dev225

  ==> Input File <==

--------------------------------------------------------------------------
#psi4
#
memory 32 gb

molecule  {
0 1
  N       -0.4914050     1.0723760    -0.3164170
  N        1.0085960    -0.7184190    -0.0133500
  C       -1.7100270     0.3982770    -0.1243180
  C        0.8049200     0.5981430    -0.1551110
  C        3.4026260    -0.3179870     0.1123840
  C        1.8688800     1.5249980    -0.1805650
  C        3.1641670     1.0570110    -0.0435420
  C       -2.8187550     1.1723340     0.2577460
  C       -1.8866400    -0.9712620    -0.3801370
  C        2.2803750    -1.1431010     0.1169750
  C        4.7931030    -0.8701860     0.2621020
  C       -4.0754850     0.5909990     0.4048790
  C       -3.1483220    -1.5428300    -0.2100850
  C       -4.2492880    -0.7746780     0.1720620
  H       -0.5683120     2.0807040    -0.2404560
  H        1.6730390     2.5885970    -0.3025930
  H        3.9969070     1.7590030    -0.0564670
  H       -2.6877930     2.2355590     0.4578160
  H       -1.0395640    -1.5738120    -0.6782690
  H        2.3962560    -2.2212150     0.2333330
  H        5.4201220    -0.7118117    -0.6212365
  H        5.2936270    -0.4518060     1.1412500
  H        4.7686350    -1.9575490     0.3752240
  H       -4.9184630     1.2095470     0.7042290
  H       -3.2707080    -2.6065070    -0.4021260
  H       -5.2268190    -1.2338160     0.2940590
units angstrom
no_reorient  #important for SAPT in psi4, default
symmetry c1  #important for SAPT in psi4, default
}

set PROPERTIES_ORIGIN ["COM"]
properties('MP2/aug-cc-pvtz', properties = ['dipole'])
--------------------------------------------------------------------------

    Molecular point group: c1
  Charge       = 0
  Multiplicity = 1
  Basis Set: AUG-CC-PVTZ
    Blend: AUG-CC-PVTZ
  Basis Set: (AUG-CC-PVTZ AUX)
    Blend: AUG-CC-PVTZ-JKFIT

    Orbital Energies [Eh]
    ---------------------

    Doubly Occupied:

       1A    -15.589268     2A    -15.553829     3A    -11.323218
       4A    -11.281016     5A    -11.273115     6A    -11.258509
       7A    -11.238762     8A    -11.235539     9A    -11.233793
      10A    -11.230371    11A    -11.228674    12A    -11.228596
      13A    -11.221518    14A    -11.218497    15A     -1.293266
      16A     -1.220254    17A     -1.132873    18A     -1.096771
      19A     -1.045939    20A     -1.008111    21A     -0.993087
      22A     -0.934953    23A     -0.868533    24A     -0.841537
      25A     -0.821348    26A     -0.797996    27A     -0.723745
      28A     -0.715522    29A     -0.670686    30A     -0.653181
      31A     -0.637820    32A     -0.621365    33A     -0.595776
      34A     -0.593535    35A     -0.589708    36A     -0.579707
      37A     -0.570149    38A     -0.563238    39A     -0.541650
      40A     -0.518957    41A     -0.511832    42A     -0.503896
      43A     -0.487416    44A     -0.454358    45A     -0.414481
      46A     -0.381548    47A     -0.336855    48A     -0.330575
      49A     -0.277166

  @DF-RHF Final Energy:  -570.49846271518686

   => Energetics <=

    Nuclear Repulsion Energy =            790.7039199446057864
    One-Electron Energy =               -2341.5196866327469252
    Two-Electron Energy =                 980.3173039729542779
    Total Energy =                       -570.4984627151868608
  Basis Set: (AUG-CC-PVTZ AUX)
    Blend: AUG-CC-PVTZ-RI
    Molecular point group: c1

    Geometry (in Angstrom), charge = 0, multiplicity = 1:

       Center              X                  Y                   Z               Mass
    ------------   -----------------  -----------------  -----------------  -----------------
         N           -0.460071564398     1.068426598393    -0.311434772077    14.003074004430
         N            1.039929435602    -0.722368401607    -0.008367772077    14.003074004430
         C           -1.678693564398     0.394327598393    -0.119335772077    12.000000000000
         C            0.836253435602     0.594193598393    -0.150128772077    12.000000000000
         C            3.433959435602    -0.321936401607     0.117366227923    12.000000000000
         C            1.900213435602     1.521048598393    -0.175582772077    12.000000000000
         C            3.195500435602     1.053061598393    -0.038559772077    12.000000000000
         C           -2.787421564398     1.168384598393     0.262728227923    12.000000000000
         C           -1.855306564398    -0.975211401607    -0.375154772077    12.000000000000
         C            2.311708435602    -1.147050401607     0.121957227923    12.000000000000
         C            4.824436435602    -0.874135401607     0.267084227923    12.000000000000
         C           -4.044151564398     0.587049598393     0.409861227923    12.000000000000
         C           -3.116988564398    -1.546779401607    -0.205102772077    12.000000000000
         C           -4.217954564398    -0.778627401607     0.177044227923    12.000000000000
         H           -0.536978564398     2.076754598393    -0.235473772077     1.007825032230
         H            1.704372435602     2.584647598393    -0.297610772077     1.007825032230
         H            4.028240435602     1.755053598393    -0.051484772077     1.007825032230
         H           -2.656459564398     2.231609598393     0.462798227923     1.007825032230
         H           -1.008230564398    -1.577761401607    -0.673286772077     1.007825032230
         H            2.427589435602    -2.225164401607     0.238315227923     1.007825032230
         H            5.451455435602    -0.715761101607    -0.616254272077     1.007825032230
         H            5.324960435602    -0.455755401607     1.146232227923     1.007825032230
         H            4.799968435602    -1.961498401607     0.380206227923     1.007825032230
         H           -4.887129564398     1.205597598393     0.709211227923     1.007825032230
         H           -3.239374564398    -2.610456401607    -0.397143772077     1.007825032230
         H           -5.195485564398    -1.237765401607     0.299041227923     1.007825032230

  Basis Set: AUG-CC-PVTZ
    Blend: AUG-CC-PVTZ
  Basis Set: (AUG-CC-PVTZ AUX)
    Blend: AUG-CC-PVTZ-JKFIT
	 Reference Energy          =    -570.4984627151868608 [Eh]
	 Singles Energy            =      -0.0000000000000000 [Eh]
	 Same-Spin Energy          =      -0.6363971772516445 [Eh]
	 Opposite-Spin Energy      =      -1.9708430911679033 [Eh]
	 Correlation Energy        =      -2.6072402684195479 [Eh]
	 Total Energy              =    -573.1057029836064203 [Eh]

	 ================> DF-SCS-MP2 Energies <==================
	-----------------------------------------------------------
	 SCS Same-Spin Scale       =       0.3333333333333333 [-]
	 SCS Opposite-Spin Scale   =       1.2000000000000000 [-]
	 SCS Same-Spin Energy      =      -0.2121323924172148 [Eh]
	 SCS Opposite-Spin Energy  =      -2.3650117094014838 [Eh]
	 SCS Correlation Energy    =      -2.5771441018186985 [Eh]
	 SCS Total Energy          =    -573.0756068170055642 [Eh]
	-----------------------------------------------------------

  Dipole Moment: [D]
     X:     1.8524      Y:     1.8346      Z:     0.1507     Total:     2.6115

*** Psi4 exiting successfully. Buy a developer a beer!
