                               Psi4 1.4a3.dev225

  ==> Input File <==

--------------------------------------------------------------------------
#psi4
#
memory 32 gb

molecule  {
0 1
  N       -0.4914050     1.0723760    -0.3164170
  N        1.0085960    -0.7184190    -0.0133500
  C       -1.7273637     0.3886869    -0.1215851
  C        0.8049200     0.5981430    -0.1551110
  C        3.4026260    -0.3179870     0.1123840
  C        1.8688800     1.5249980    -0.1805650
  C        3.1641670     1.0570110    -0.0435420
  C       -2.8187550     1.1723340     0.2577460
  C       -1.8866400    -0.9712620    -0.3801370
  C        2.2803750    -1.1431010     0.1169750
  C        4.7931030    -0.8701860     0.2621020
  C       -4.0754850     0.5909990     0.4048790
  C       -3.1483220    -1.5428300    -0.2100850
  C       -4.2492880    -0.7746780     0.1720620
  H       -0.5683120     2.0807040    -0.2404560
  H        1.6730390     2.5885970    -0.3025930
  H        3.9969070     1.7590030    -0.0564670
  H       -2.6877930     2.2355590     0.4578160
  H       -1.0395640    -1.5738120    -0.6782690
  H        2.3962560    -2.2212150     0.2333330
  H        5.4095350    -0.6367030    -0.6119800
  H        5.2936270    -0.4518060     1.1412500
  H        4.7686350    -1.9575490     0.3752240
  H       -4.9184630     1.2095470     0.7042290
  H       -3.2707080    -2.6065070    -0.4021260
  H       -5.2268190    -1.2338160     0.2940590
units angstrom
no_reorient  #important for SAPT in psi4, default
symmetry c1  #important for SAPT in psi4, default
}

set PROPERTIES_ORIGIN ["COM"]
properties('MP2/aug-cc-pvtz', properties = ['dipole'])
--------------------------------------------------------------------------

    Molecular point group: c1
  Charge       = 0
  Multiplicity = 1
  Basis Set: AUG-CC-PVTZ
    Blend: AUG-CC-PVTZ
  Basis Set: (AUG-CC-PVTZ AUX)
    Blend: AUG-CC-PVTZ-JKFIT

    Orbital Energies [Eh]
    ---------------------

    Doubly Occupied:

       1A    -15.587234     2A    -15.552482     3A    -11.321841
       4A    -11.280229     5A    -11.271926     6A    -11.257571
       7A    -11.237645     8A    -11.234514     9A    -11.234176
      10A    -11.231123    11A    -11.228953    12A    -11.228231
      13A    -11.222679    14A    -11.218451    15A     -1.289652
      16A     -1.216885    17A     -1.135184    18A     -1.095949
      19A     -1.044527    20A     -1.010175    21A     -0.994291
      22A     -0.933872    23A     -0.866969    24A     -0.840440
      25A     -0.821879    26A     -0.798073    27A     -0.722224
      28A     -0.714070    29A     -0.670452    30A     -0.651693
      31A     -0.635916    32A     -0.621730    33A     -0.595974
      34A     -0.592648    35A     -0.588568    36A     -0.580727
      37A     -0.568055    38A     -0.561740    39A     -0.546040
      40A     -0.518539    41A     -0.511259    42A     -0.503702
      43A     -0.490456    44A     -0.453391    45A     -0.413440
      46A     -0.380549    47A     -0.336915    48A     -0.331562
      49A     -0.278209

  @DF-RHF Final Energy:  -570.49875740620053

   => Energetics <=

    Nuclear Repulsion Energy =            790.7342687127018053
    One-Electron Energy =               -2341.6204285193794021
    Two-Electron Energy =                 980.3874024004770718
    Total Energy =                       -570.4987574062005251
  Basis Set: (AUG-CC-PVTZ AUX)
    Blend: AUG-CC-PVTZ-RI
    Molecular point group: c1

    Geometry (in Angstrom), charge = 0, multiplicity = 1:

       Center              X                  Y                   Z               Mass
    ------------   -----------------  -----------------  -----------------  -----------------
         N           -0.458883567733     1.068640529744    -0.311663580993    14.003074004430
         N            1.041117432267    -0.722154470256    -0.008596580993    14.003074004430
         C           -1.694842267733     0.384951429744    -0.116831680993    12.000000000000
         C            0.837441432267     0.594407529744    -0.150357580993    12.000000000000
         C            3.435147432267    -0.321722470256     0.117137419007    12.000000000000
         C            1.901401432267     1.521262529744    -0.175811580993    12.000000000000
         C            3.196688432267     1.053275529744    -0.038788580993    12.000000000000
         C           -2.786233567733     1.168598529744     0.262499419007    12.000000000000
         C           -1.854118567733    -0.974997470256    -0.375383580993    12.000000000000
         C            2.312896432267    -1.146836470256     0.121728419007    12.000000000000
         C            4.825624432267    -0.873921470256     0.266855419007    12.000000000000
         C           -4.042963567733     0.587263529744     0.409632419007    12.000000000000
         C           -3.115800567733    -1.546565470256    -0.205331580993    12.000000000000
         C           -4.216766567733    -0.778413470256     0.176815419007    12.000000000000
         H           -0.535790567733     2.076968529744    -0.235702580993     1.007825032230
         H            1.705560432267     2.584861529744    -0.297839580993     1.007825032230
         H            4.029428432267     1.755267529744    -0.051713580993     1.007825032230
         H           -2.655271567733     2.231823529744     0.462569419007     1.007825032230
         H           -1.007042567733    -1.577547470256    -0.673515580993     1.007825032230
         H            2.428777432267    -2.224950470256     0.238086419007     1.007825032230
         H            5.442056432267    -0.640438470256    -0.607226580993     1.007825032230
         H            5.326148432267    -0.455541470256     1.146003419007     1.007825032230
         H            4.801156432267    -1.961284470256     0.379977419007     1.007825032230
         H           -4.885941567733     1.205811529744     0.708982419007     1.007825032230
         H           -3.238186567733    -2.610242470256    -0.397372580993     1.007825032230
         H           -5.194297567733    -1.237551470256     0.298812419007     1.007825032230

  Basis Set: AUG-CC-PVTZ
    Blend: AUG-CC-PVTZ
  Basis Set: (AUG-CC-PVTZ AUX)
    Blend: AUG-CC-PVTZ-JKFIT
	 Reference Energy          =    -570.4987574062005251 [Eh]
	 Singles Energy            =      -0.0000000000000000 [Eh]
	 Same-Spin Energy          =      -0.6362335398650893 [Eh]
	 Opposite-Spin Energy      =      -1.9707104919656724 [Eh]
	 Correlation Energy        =      -2.6069440318307615 [Eh]
	 Total Energy              =    -573.1057014380312467 [Eh]

	 ================> DF-SCS-MP2 Energies <==================
	-----------------------------------------------------------
	 SCS Same-Spin Scale       =       0.3333333333333333 [-]
	 SCS Opposite-Spin Scale   =       1.2000000000000000 [-]
	 SCS Same-Spin Energy      =      -0.2120778466216964 [Eh]
	 SCS Opposite-Spin Energy  =      -2.3648525903588067 [Eh]
	 SCS Correlation Energy    =      -2.5769304369805033 [Eh]
	 SCS Total Energy          =    -573.0756878431810719 [Eh]
	-----------------------------------------------------------

  Dipole Moment: [D]
     X:     1.6964      Y:     1.8198      Z:     0.1752     Total:     2.4941

*** Psi4 exiting successfully. Buy a developer a beer!
