                               Psi4 1.4a3.dev225

  ==> Input File <==

--------------------------------------------------------------------------
#psi4
#
memory 32 gb

molecule  {
0 1
  N       -0.4914050     1.0723760    -0.3164170
  N        1.0085960    -0.7184190    -0.0133500
  C       -1.7100270     0.3982770    -0.1243180
  C        0.8049200     0.5981430    -0.1551110
  C        3.4026260    -0.3179870     0.1123840
  C        1.8688800     1.5249980    -0.1805650
  C        3.1641670     1.0570110    -0.0435420
  C       -2.8187550     1.1723340     0.2577460
  C       -1.8866400    -0.9712620    -0.3801370
  C        2.1192408    -1.2615719     0.1176342
  C        4.7931030    -0.8701860     0.2621020
  C       -4.0754850     0.5909990     0.4048790
  C       -3.1483220    -1.5428300    -0.2100850
  C       -4.2492880    -0.7746780     0.1720620
  H       -0.5683120     2.0807040    -0.2404560
  H        1.6730390     2.5885970    -0.3025930
  H        3.9969070     1.7590030    -0.0564670
  H       -2.6877930     2.2355590     0.4578160
  H       -1.0395640    -1.5738120    -0.6782690
  H        2.3962560    -2.2212150     0.2333330
  H        5.4095350    -0.6367030    -0.6119800
  H        5.2936270    -0.4518060     1.1412500
  H        4.7686350    -1.9575490     0.3752240
  H       -4.9184630     1.2095470     0.7042290
  H       -3.2707080    -2.6065070    -0.4021260
  H       -5.2268190    -1.2338160     0.2940590
units angstrom
no_reorient  #important for SAPT in psi4, default
symmetry c1  #important for SAPT in psi4, default
}

set PROPERTIES_ORIGIN ["COM"]
properties('MP2/aug-cc-pvtz', properties = ['dipole'])
--------------------------------------------------------------------------

    Molecular point group: c1
  Charge       = 0
  Multiplicity = 1
  Basis Set: AUG-CC-PVTZ
    Blend: AUG-CC-PVTZ
  Basis Set: (AUG-CC-PVTZ AUX)
    Blend: AUG-CC-PVTZ-JKFIT

    Orbital Energies [Eh]
    ---------------------

    Doubly Occupied:

       1A    -15.587524     2A    -15.556152     3A    -11.323465
       4A    -11.285165     5A    -11.281174     6A    -11.248058
       7A    -11.245605     8A    -11.233931     9A    -11.233440
      10A    -11.230885    11A    -11.228086    12A    -11.227152
      13A    -11.221084    14A    -11.218694    15A     -1.303574
      16A     -1.234916    17A     -1.133897    18A     -1.089901
      19A     -1.039600    20A     -1.008269    21A     -0.990485
      22A     -0.936825    23A     -0.869326    24A     -0.834501
      25A     -0.822174    26A     -0.794715    27A     -0.736226
      28A     -0.717796    29A     -0.671710    30A     -0.662352
      31A     -0.638281    32A     -0.621283    33A     -0.598404
      34A     -0.594386    35A     -0.588294    36A     -0.580106
      37A     -0.569858    38A     -0.565505    39A     -0.546687
      40A     -0.520305    41A     -0.514469    42A     -0.504377
      43A     -0.487106    44A     -0.455029    45A     -0.395466
      46A     -0.388618    47A     -0.332052    48A     -0.325110
      49A     -0.262812

  @DF-RHF Final Energy:  -570.45690950155802

   => Energetics <=

    Nuclear Repulsion Energy =            789.9465864305274181
    One-Electron Energy =               -2339.8973222246154364
    Two-Electron Energy =                 979.4938262925298886
    Total Energy =                       -570.4569095015580160
  Basis Set: (AUG-CC-PVTZ AUX)
    Blend: AUG-CC-PVTZ-RI
    Molecular point group: c1

    Geometry (in Angstrom), charge = 0, multiplicity = 1:

       Center              X                  Y                   Z               Mass
    ------------   -----------------  -----------------  -----------------  -----------------
         N           -0.449510566394     1.075737592517    -0.311528413185    14.003074004430
         N            1.050490433606    -0.715057407483    -0.008461413185    14.003074004430
         C           -1.668132566394     0.401638592517    -0.119429413185    12.000000000000
         C            0.846814433606     0.601504592517    -0.150222413185    12.000000000000
         C            3.444520433606    -0.314625407483     0.117272586815    12.000000000000
         C            1.910774433606     1.528359592517    -0.175676413185    12.000000000000
         C            3.206061433606     1.060372592517    -0.038653413185    12.000000000000
         C           -2.776860566394     1.175695592517     0.262634586815    12.000000000000
         C           -1.844745566394    -0.967900407483    -0.375248413185    12.000000000000
         C            2.161135233606    -1.258210307483     0.122522786815    12.000000000000
         C            4.834997433606    -0.866824407483     0.266990586815    12.000000000000
         C           -4.033590566394     0.594360592517     0.409767586815    12.000000000000
         C           -3.106427566394    -1.539468407483    -0.205196413185    12.000000000000
         C           -4.207393566394    -0.771316407483     0.176950586815    12.000000000000
         H           -0.526417566394     2.084065592517    -0.235567413185     1.007825032230
         H            1.714933433606     2.591958592517    -0.297704413185     1.007825032230
         H            4.038801433606     1.762364592517    -0.051578413185     1.007825032230
         H           -2.645898566394     2.238920592517     0.462704586815     1.007825032230
         H           -0.997669566394    -1.570450407483    -0.673380413185     1.007825032230
         H            2.438150433606    -2.217853407483     0.238221586815     1.007825032230
         H            5.451429433606    -0.633341407483    -0.607091413185     1.007825032230
         H            5.335521433606    -0.448444407483     1.146138586815     1.007825032230
         H            4.810529433606    -1.954187407483     0.380112586815     1.007825032230
         H           -4.876568566394     1.212908592517     0.709117586815     1.007825032230
         H           -3.228813566394    -2.603145407483    -0.397237413185     1.007825032230
         H           -5.184924566394    -1.230454407483     0.298947586815     1.007825032230

  Basis Set: AUG-CC-PVTZ
    Blend: AUG-CC-PVTZ
  Basis Set: (AUG-CC-PVTZ AUX)
    Blend: AUG-CC-PVTZ-JKFIT
	 Reference Energy          =    -570.4569095015580160 [Eh]
	 Singles Energy            =      -0.0000000000000000 [Eh]
	 Same-Spin Energy          =      -0.6370236074424472 [Eh]
	 Opposite-Spin Energy      =      -1.9724195874980228 [Eh]
	 Correlation Energy        =      -2.6094431949404702 [Eh]
	 Total Energy              =    -573.0663526964984840 [Eh]

	 ================> DF-SCS-MP2 Energies <==================
	-----------------------------------------------------------
	 SCS Same-Spin Scale       =       0.3333333333333333 [-]
	 SCS Opposite-Spin Scale   =       1.2000000000000000 [-]
	 SCS Same-Spin Energy      =      -0.2123412024808157 [Eh]
	 SCS Opposite-Spin Energy  =      -2.3669035049976275 [Eh]
	 SCS Correlation Energy    =      -2.5792447074784430 [Eh]
	 SCS Total Energy          =    -573.0361542090364537 [Eh]
	-----------------------------------------------------------

  Dipole Moment: [D]
     X:     1.7662      Y:     1.5277      Z:     0.1844     Total:     2.3425

*** Psi4 exiting successfully. Buy a developer a beer!
