                               Psi4 1.4a3.dev225

  ==> Input File <==

--------------------------------------------------------------------------
#psi4
#
memory 32 gb

molecule  {
0 1
  N       -0.4914050     1.0723760    -0.3164170
  N        1.0085960    -0.7184190    -0.0133500
  C       -1.7100270     0.3982770    -0.1243180
  C        0.8049200     0.5981430    -0.1551110
  C        3.4026260    -0.3179870     0.1123840
  C        1.8688800     1.5249980    -0.1805650
  C        3.1641670     1.0570110    -0.0435420
  C       -2.8187550     1.1723340     0.2577460
  C       -1.8866400    -0.9712620    -0.3801370
  C        2.2642616    -1.1549481     0.1170409
  C        4.7931030    -0.8701860     0.2621020
  C       -4.0754850     0.5909990     0.4048790
  C       -3.1483220    -1.5428300    -0.2100850
  C       -4.2492880    -0.7746780     0.1720620
  H       -0.5683120     2.0807040    -0.2404560
  H        1.6730390     2.5885970    -0.3025930
  H        3.9969070     1.7590030    -0.0564670
  H       -2.6877930     2.2355590     0.4578160
  H       -1.0395640    -1.5738120    -0.6782690
  H        2.3962560    -2.2212150     0.2333330
  H        5.4095350    -0.6367030    -0.6119800
  H        5.2936270    -0.4518060     1.1412500
  H        4.7686350    -1.9575490     0.3752240
  H       -4.9184630     1.2095470     0.7042290
  H       -3.2707080    -2.6065070    -0.4021260
  H       -5.2268190    -1.2338160     0.2940590
units angstrom
no_reorient  #important for SAPT in psi4, default
symmetry c1  #important for SAPT in psi4, default
}

set PROPERTIES_ORIGIN ["COM"]
properties('MP2/aug-cc-pvtz', properties = ['dipole'])
--------------------------------------------------------------------------

    Molecular point group: c1
  Charge       = 0
  Multiplicity = 1
  Basis Set: AUG-CC-PVTZ
    Blend: AUG-CC-PVTZ
  Basis Set: (AUG-CC-PVTZ AUX)
    Blend: AUG-CC-PVTZ-JKFIT

    Orbital Energies [Eh]
    ---------------------

    Doubly Occupied:

       1A    -15.588959     2A    -15.553945     3A    -11.323057
       4A    -11.280943     5A    -11.274274     6A    -11.257482
       7A    -11.238173     8A    -11.236945     9A    -11.233730
      10A    -11.230338    11A    -11.228817    12A    -11.228530
      13A    -11.221392    14A    -11.218410    15A     -1.293885
      16A     -1.221503    17A     -1.132817    18A     -1.096025
      19A     -1.045244    20A     -1.008047    21A     -0.992806
      22A     -0.934675    23A     -0.868088    24A     -0.840669
      25A     -0.821425    26A     -0.797825    27A     -0.724441
      28A     -0.715711    29A     -0.670458    30A     -0.653300
      31A     -0.637305    32A     -0.621863    33A     -0.595713
      34A     -0.593897    35A     -0.588304    36A     -0.579624
      37A     -0.569485    38A     -0.563213    39A     -0.547474
      40A     -0.519927    41A     -0.511399    42A     -0.504286
      43A     -0.487367    44A     -0.453892    45A     -0.412596
      46A     -0.382923    47A     -0.335268    48A     -0.330290
      49A     -0.275479

  @DF-RHF Final Energy:  -570.49837741758506

   => Energetics <=

    Nuclear Repulsion Energy =            790.6638733456309183
    One-Electron Energy =               -2341.4400618281374591
    Two-Electron Energy =                 980.2778110649214796
    Total Energy =                       -570.4983774175850613
  Basis Set: (AUG-CC-PVTZ AUX)
    Blend: AUG-CC-PVTZ-RI
    Molecular point group: c1

    Geometry (in Angstrom), charge = 0, multiplicity = 1:

       Center              X                  Y                   Z               Mass
    ------------   -----------------  -----------------  -----------------  -----------------
         N           -0.458963304811     1.068787645403    -0.311489740734    14.003074004430
         N            1.041037695189    -0.722007354597    -0.008422740734    14.003074004430
         C           -1.677585304811     0.394688645403    -0.119390740734    12.000000000000
         C            0.837361695189     0.594554645403    -0.150183740734    12.000000000000
         C            3.435067695189    -0.321575354597     0.117311259266    12.000000000000
         C            1.901321695189     1.521409645403    -0.175637740734    12.000000000000
         C            3.196608695189     1.053422645403    -0.038614740734    12.000000000000
         C           -2.786313304811     1.168745645403     0.262673259266    12.000000000000
         C           -1.854198304811    -0.974850354597    -0.375209740734    12.000000000000
         C            2.296703295189    -1.158536454597     0.121968159266    12.000000000000
         C            4.825544695189    -0.873774354597     0.267029259266    12.000000000000
         C           -4.043043304811     0.587410645403     0.409806259266    12.000000000000
         C           -3.115880304811    -1.546418354597    -0.205157740734    12.000000000000
         C           -4.216846304811    -0.778266354597     0.176989259266    12.000000000000
         H           -0.535870304811     2.077115645403    -0.235528740734     1.007825032230
         H            1.705480695189     2.585008645403    -0.297665740734     1.007825032230
         H            4.029348695189     1.755414645403    -0.051539740734     1.007825032230
         H           -2.655351304811     2.231970645403     0.462743259266     1.007825032230
         H           -1.007122304811    -1.577400354597    -0.673341740734     1.007825032230
         H            2.428697695189    -2.224803354597     0.238260259266     1.007825032230
         H            5.441976695189    -0.640291354597    -0.607052740734     1.007825032230
         H            5.326068695189    -0.455394354597     1.146177259266     1.007825032230
         H            4.801076695189    -1.961137354597     0.380151259266     1.007825032230
         H           -4.886021304811     1.205958645403     0.709156259266     1.007825032230
         H           -3.238266304811    -2.610095354597    -0.397198740734     1.007825032230
         H           -5.194377304811    -1.237404354597     0.298986259266     1.007825032230

  Basis Set: AUG-CC-PVTZ
    Blend: AUG-CC-PVTZ
  Basis Set: (AUG-CC-PVTZ AUX)
    Blend: AUG-CC-PVTZ-JKFIT
	 Reference Energy          =    -570.4983774175850613 [Eh]
	 Singles Energy            =      -0.0000000000000000 [Eh]
	 Same-Spin Energy          =      -0.6365090264552525 [Eh]
	 Opposite-Spin Energy      =      -1.9708475579679459 [Eh]
	 Correlation Energy        =      -2.6073565844231985 [Eh]
	 Total Energy              =    -573.1057340020082620 [Eh]

	 ================> DF-SCS-MP2 Energies <==================
	-----------------------------------------------------------
	 SCS Same-Spin Scale       =       0.3333333333333333 [-]
	 SCS Opposite-Spin Scale   =       1.2000000000000000 [-]
	 SCS Same-Spin Energy      =      -0.2121696754850842 [Eh]
	 SCS Opposite-Spin Energy  =      -2.3650170695615351 [Eh]
	 SCS Correlation Energy    =      -2.5771867450466193 [Eh]
	 SCS Total Energy          =    -573.0755641626317356 [Eh]
	-----------------------------------------------------------

  Dipole Moment: [D]
     X:     1.8738      Y:     1.8230      Z:     0.1657     Total:     2.6195

*** Psi4 exiting successfully. Buy a developer a beer!
