                               Psi4 1.4a3.dev225

  ==> Input File <==

--------------------------------------------------------------------------
#psi4
#
memory 32 gb

molecule  {
0 1
  N       -0.4914050     1.0723760    -0.3164170
  N        1.0085960    -0.7184190    -0.0133500
  C       -1.7100270     0.3982770    -0.1243180
  C        0.8049200     0.5981430    -0.1551110
  C        3.4026260    -0.3179870     0.1123840
  C        1.8688800     1.5249980    -0.1805650
  C        3.1828845     1.0502484    -0.0415620
  C       -2.8187550     1.1723340     0.2577460
  C       -1.8866400    -0.9712620    -0.3801370
  C        2.2803750    -1.1431010     0.1169750
  C        4.7931030    -0.8701860     0.2621020
  C       -4.0754850     0.5909990     0.4048790
  C       -3.1483220    -1.5428300    -0.2100850
  C       -4.2492880    -0.7746780     0.1720620
  H       -0.5683120     2.0807040    -0.2404560
  H        1.6730390     2.5885970    -0.3025930
  H        3.9969070     1.7590030    -0.0564670
  H       -2.6877930     2.2355590     0.4578160
  H       -1.0395640    -1.5738120    -0.6782690
  H        2.3962560    -2.2212150     0.2333330
  H        5.4095350    -0.6367030    -0.6119800
  H        5.2936270    -0.4518060     1.1412500
  H        4.7686350    -1.9575490     0.3752240
  H       -4.9184630     1.2095470     0.7042290
  H       -3.2707080    -2.6065070    -0.4021260
  H       -5.2268190    -1.2338160     0.2940590
units angstrom
no_reorient  #important for SAPT in psi4, default
symmetry c1  #important for SAPT in psi4, default
}

set PROPERTIES_ORIGIN ["COM"]
properties('MP2/aug-cc-pvtz', properties = ['dipole'])
--------------------------------------------------------------------------

    Molecular point group: c1
  Charge       = 0
  Multiplicity = 1
  Basis Set: AUG-CC-PVTZ
    Blend: AUG-CC-PVTZ
  Basis Set: (AUG-CC-PVTZ AUX)
    Blend: AUG-CC-PVTZ-JKFIT

    Orbital Energies [Eh]
    ---------------------

    Doubly Occupied:

       1A    -15.588484     2A    -15.554657     3A    -11.322456
       4A    -11.280755     5A    -11.274079     6A    -11.258955
       7A    -11.240132     8A    -11.235178     9A    -11.233563
      10A    -11.230168    11A    -11.228801    12A    -11.228324
      13A    -11.221208    14A    -11.218208    15A     -1.292850
      16A     -1.220125    17A     -1.132634    18A     -1.097302
      19A     -1.044279    20A     -1.007856    21A     -0.992007
      22A     -0.935132    23A     -0.870256    24A     -0.840740
      25A     -0.820996    26A     -0.798161    27A     -0.724104
      28A     -0.715198    29A     -0.670063    30A     -0.653337
      31A     -0.636128    32A     -0.621860    33A     -0.596216
      34A     -0.593709    35A     -0.588584    36A     -0.579429
      37A     -0.569500    38A     -0.563803    39A     -0.547094
      40A     -0.518205    41A     -0.510991    42A     -0.503829
      43A     -0.487271    44A     -0.454081    45A     -0.415283
      46A     -0.379393    47A     -0.336905    48A     -0.330432
      49A     -0.276730

  @DF-RHF Final Energy:  -570.49804879199928

   => Energetics <=

    Nuclear Repulsion Energy =            790.5713405573206956
    One-Electron Energy =               -2341.2598852435330627
    Two-Electron Energy =                 980.1904958942131998
    Total Energy =                       -570.4980487919992811
  Basis Set: (AUG-CC-PVTZ AUX)
    Blend: AUG-CC-PVTZ-RI
    Molecular point group: c1

    Geometry (in Angstrom), charge = 0, multiplicity = 1:

       Center              X                  Y                   Z               Mass
    ------------   -----------------  -----------------  -----------------  -----------------
         N           -0.461233650765     1.068456227782    -0.311614505503    14.003074004430
         N            1.038767349235    -0.722338772218    -0.008547505503    14.003074004430
         C           -1.679855650765     0.394357227782    -0.119515505503    12.000000000000
         C            0.835091349235     0.594223227782    -0.150308505503    12.000000000000
         C            3.432797349235    -0.321906772218     0.117186494497    12.000000000000
         C            1.899051349235     1.521078227782    -0.175762505503    12.000000000000
         C            3.213055849235     1.046328627782    -0.036759505503    12.000000000000
         C           -2.788583650765     1.168414227782     0.262548494497    12.000000000000
         C           -1.856468650765    -0.975181772218    -0.375334505503    12.000000000000
         C            2.310546349235    -1.147020772218     0.121777494497    12.000000000000
         C            4.823274349235    -0.874105772218     0.266904494497    12.000000000000
         C           -4.045313650765     0.587079227782     0.409681494497    12.000000000000
         C           -3.118150650765    -1.546749772218    -0.205282505503    12.000000000000
         C           -4.219116650765    -0.778597772218     0.176864494497    12.000000000000
         H           -0.538140650765     2.076784227782    -0.235653505503     1.007825032230
         H            1.703210349235     2.584677227782    -0.297790505503     1.007825032230
         H            4.027078349235     1.755083227782    -0.051664505503     1.007825032230
         H           -2.657621650765     2.231639227782     0.462618494497     1.007825032230
         H           -1.009392650765    -1.577731772218    -0.673466505503     1.007825032230
         H            2.426427349235    -2.225134772218     0.238135494497     1.007825032230
         H            5.439706349235    -0.640622772218    -0.607177505503     1.007825032230
         H            5.323798349235    -0.455725772218     1.146052494497     1.007825032230
         H            4.798806349235    -1.961468772218     0.380026494497     1.007825032230
         H           -4.888291650765     1.205627227782     0.709031494497     1.007825032230
         H           -3.240536650765    -2.610426772218    -0.397323505503     1.007825032230
         H           -5.196647650765    -1.237735772218     0.298861494497     1.007825032230

  Basis Set: AUG-CC-PVTZ
    Blend: AUG-CC-PVTZ
  Basis Set: (AUG-CC-PVTZ AUX)
    Blend: AUG-CC-PVTZ-JKFIT
	 Reference Energy          =    -570.4980487919992811 [Eh]
	 Singles Energy            =      -0.0000000000000000 [Eh]
	 Same-Spin Energy          =      -0.6365528279426002 [Eh]
	 Opposite-Spin Energy      =      -1.9710881833882996 [Eh]
	 Correlation Energy        =      -2.6076410113308999 [Eh]
	 Total Energy              =    -573.1056898033301650 [Eh]

	 ================> DF-SCS-MP2 Energies <==================
	-----------------------------------------------------------
	 SCS Same-Spin Scale       =       0.3333333333333333 [-]
	 SCS Opposite-Spin Scale   =       1.2000000000000000 [-]
	 SCS Same-Spin Energy      =      -0.2121842759808667 [Eh]
	 SCS Opposite-Spin Energy  =      -2.3653058200659594 [Eh]
	 SCS Correlation Energy    =      -2.5774900960468261 [Eh]
	 SCS Total Energy          =    -573.0755388880461396 [Eh]
	-----------------------------------------------------------

  Dipole Moment: [D]
     X:     1.8934      Y:     1.8460      Z:     0.1645     Total:     2.6495

*** Psi4 exiting successfully. Buy a developer a beer!
