                               Psi4 1.4a3.dev225

  ==> Input File <==

--------------------------------------------------------------------------
#psi4
#
memory 32 gb

molecule  {
0 1
  N       -0.4914050     1.0723760    -0.3164170
  N        1.0085960    -0.7184190    -0.0133500
  C       -1.7100270     0.3982770    -0.1243180
  C        0.8049200     0.5981430    -0.1551110
  C        3.4026260    -0.3179870     0.1123840
  C        1.8688800     1.5249980    -0.1805650
  C        3.1641670     1.0570110    -0.0435420
  C       -2.8187550     1.1723340     0.2577460
  C       -1.8866400    -0.9712620    -0.3801370
  C        2.2614937    -1.1367960     0.1150401
  C        4.7931030    -0.8701860     0.2621020
  C       -4.0754850     0.5909990     0.4048790
  C       -3.1483220    -1.5428300    -0.2100850
  C       -4.2492880    -0.7746780     0.1720620
  H       -0.5683120     2.0807040    -0.2404560
  H        1.6730390     2.5885970    -0.3025930
  H        3.9969070     1.7590030    -0.0564670
  H       -2.6877930     2.2355590     0.4578160
  H       -1.0395640    -1.5738120    -0.6782690
  H        2.3962560    -2.2212150     0.2333330
  H        5.4095350    -0.6367030    -0.6119800
  H        5.2936270    -0.4518060     1.1412500
  H        4.7686350    -1.9575490     0.3752240
  H       -4.9184630     1.2095470     0.7042290
  H       -3.2707080    -2.6065070    -0.4021260
  H       -5.2268190    -1.2338160     0.2940590
units angstrom
no_reorient  #important for SAPT in psi4, default
symmetry c1  #important for SAPT in psi4, default
}

set PROPERTIES_ORIGIN ["COM"]
properties('MP2/aug-cc-pvtz', properties = ['dipole'])
--------------------------------------------------------------------------

    Molecular point group: c1
  Charge       = 0
  Multiplicity = 1
  Basis Set: AUG-CC-PVTZ
    Blend: AUG-CC-PVTZ
  Basis Set: (AUG-CC-PVTZ AUX)
    Blend: AUG-CC-PVTZ-JKFIT

    Orbital Energies [Eh]
    ---------------------

    Doubly Occupied:

       1A    -15.589255     2A    -15.553702     3A    -11.323333
       4A    -11.281158     5A    -11.273661     6A    -11.257596
       7A    -11.237825     8A    -11.235683     9A    -11.233911
      10A    -11.230531    11A    -11.229067    12A    -11.228727
      13A    -11.221579    14A    -11.218657    15A     -1.295397
      16A     -1.223738    17A     -1.133117    18A     -1.097204
      19A     -1.045302    20A     -1.008255    21A     -0.992958
      22A     -0.934920    23A     -0.867128    24A     -0.841950
      25A     -0.821384    26A     -0.798811    27A     -0.723461
      28A     -0.715939    29A     -0.670755    30A     -0.653962
      31A     -0.636903    32A     -0.620334    33A     -0.595786
      34A     -0.593215    35A     -0.588441    36A     -0.579813
      37A     -0.569576    38A     -0.562761    39A     -0.547678
      40A     -0.519774    41A     -0.511801    42A     -0.504301
      43A     -0.487403    44A     -0.454617    45A     -0.413738
      46A     -0.383731    47A     -0.335718    48A     -0.330545
      49A     -0.275843

  @DF-RHF Final Energy:  -570.49884258188695

   => Energetics <=

    Nuclear Repulsion Energy =            791.0180670138834103
    One-Electron Energy =               -2342.1319347956978163
    Two-Electron Energy =                 980.6150251999274587
    Total Energy =                       -570.4988425818869473
  Basis Set: (AUG-CC-PVTZ AUX)
    Blend: AUG-CC-PVTZ-RI
    Molecular point group: c1

    Geometry (in Angstrom), charge = 0, multiplicity = 1:

       Center              X                  Y                   Z               Mass
    ------------   -----------------  -----------------  -----------------  -----------------
         N           -0.458782887694     1.067604456143    -0.311359324690    14.003074004430
         N            1.041218112306    -0.723190543857    -0.008292324690    14.003074004430
         C           -1.677404887694     0.393505456143    -0.119260324690    12.000000000000
         C            0.837542112306     0.593371456143    -0.150053324690    12.000000000000
         C            3.435248112306    -0.322758543857     0.117441675310    12.000000000000
         C            1.901502112306     1.520226456143    -0.175507324690    12.000000000000
         C            3.196789112306     1.052239456143    -0.038484324690    12.000000000000
         C           -2.786132887694     1.167562456143     0.262803675310    12.000000000000
         C           -1.854017887694    -0.976033543857    -0.375079324690    12.000000000000
         C            2.294115812306    -1.141567543857     0.120097775310    12.000000000000
         C            4.825725112306    -0.874957543857     0.267159675310    12.000000000000
         C           -4.042862887694     0.586227456143     0.409936675310    12.000000000000
         C           -3.115699887694    -1.547601543857    -0.205027324690    12.000000000000
         C           -4.216665887694    -0.779449543857     0.177119675310    12.000000000000
         H           -0.535689887694     2.075932456143    -0.235398324690     1.007825032230
         H            1.705661112306     2.583825456143    -0.297535324690     1.007825032230
         H            4.029529112306     1.754231456143    -0.051409324690     1.007825032230
         H           -2.655170887694     2.230787456143     0.462873675310     1.007825032230
         H           -1.006941887694    -1.578583543857    -0.673211324690     1.007825032230
         H            2.428878112306    -2.225986543857     0.238390675310     1.007825032230
         H            5.442157112306    -0.641474543857    -0.606922324690     1.007825032230
         H            5.326249112306    -0.456577543857     1.146307675310     1.007825032230
         H            4.801257112306    -1.962320543857     0.380281675310     1.007825032230
         H           -4.885840887694     1.204775456143     0.709286675310     1.007825032230
         H           -3.238085887694    -2.611278543857    -0.397068324690     1.007825032230
         H           -5.194196887694    -1.238587543857     0.299116675310     1.007825032230

  Basis Set: AUG-CC-PVTZ
    Blend: AUG-CC-PVTZ
  Basis Set: (AUG-CC-PVTZ AUX)
    Blend: AUG-CC-PVTZ-JKFIT
	 Reference Energy          =    -570.4988425818869473 [Eh]
	 Singles Energy            =      -0.0000000000000000 [Eh]
	 Same-Spin Energy          =      -0.6364214522945726 [Eh]
	 Opposite-Spin Energy      =      -1.9705916294471584 [Eh]
	 Correlation Energy        =      -2.6070130817417310 [Eh]
	 Total Energy              =    -573.1058556636286312 [Eh]

	 ================> DF-SCS-MP2 Energies <==================
	-----------------------------------------------------------
	 SCS Same-Spin Scale       =       0.3333333333333333 [-]
	 SCS Opposite-Spin Scale   =       1.2000000000000000 [-]
	 SCS Same-Spin Energy      =      -0.2121404840981909 [Eh]
	 SCS Opposite-Spin Energy  =      -2.3647099553365898 [Eh]
	 SCS Correlation Energy    =      -2.5768504394347804 [Eh]
	 SCS Total Energy          =    -573.0756930213217402 [Eh]
	-----------------------------------------------------------

  Dipole Moment: [D]
     X:     1.8480      Y:     1.8492      Z:     0.1623     Total:     2.6194

*** Psi4 exiting successfully. Buy a developer a beer!
