                               Psi4 1.4a3.dev225

  ==> Input File <==

--------------------------------------------------------------------------
#psi4
#
memory 32 gb

molecule  {
0 1
  N       -0.4914050     1.0723760    -0.3164170
  N        1.0085960    -0.7184190    -0.0133500
  C       -1.7100270     0.3982770    -0.1243180
  C        0.8049200     0.5981430    -0.1551110
  C        3.4026260    -0.3179870     0.1123840
  C        1.8688800     1.5249980    -0.1805650
  C        3.1641670     1.0570110    -0.0435420
  C       -2.8187550     1.1723340     0.2577460
  C       -1.8866400    -0.9712620    -0.3801370
  C        2.2803750    -1.1431010     0.1169750
  C        4.7931030    -0.8701860     0.2621020
  C       -4.0754850     0.5909990     0.4048790
  C       -3.1483220    -1.5428300    -0.2100850
  C       -4.2492880    -0.7746780     0.1720620
  H       -0.5683120     2.0807040    -0.2404560
  H        1.6730390     2.5885970    -0.3025930
  H        3.9969070     1.7590030    -0.0564670
  H       -2.6877930     2.2355590     0.4578160
  H       -1.0395640    -1.5738120    -0.6782690
  H        2.3962560    -2.2212150     0.2333330
  H        5.4095350    -0.6367030    -0.6119800
  H        5.2959212    -0.4694767     1.1481456
  H        4.7686350    -1.9575490     0.3752240
  H       -4.9184630     1.2095470     0.7042290
  H       -3.2707080    -2.6065070    -0.4021260
  H       -5.2268190    -1.2338160     0.2940590
units angstrom
no_reorient  #important for SAPT in psi4, default
symmetry c1  #important for SAPT in psi4, default
}

set PROPERTIES_ORIGIN ["COM"]
properties('MP2/aug-cc-pvtz', properties = ['dipole'])
--------------------------------------------------------------------------

    Molecular point group: c1
  Charge       = 0
  Multiplicity = 1
  Basis Set: AUG-CC-PVTZ
    Blend: AUG-CC-PVTZ
  Basis Set: (AUG-CC-PVTZ AUX)
    Blend: AUG-CC-PVTZ-JKFIT

    Orbital Energies [Eh]
    ---------------------

    Doubly Occupied:

       1A    -15.589159     2A    -15.553747     3A    -11.323049
       4A    -11.280959     5A    -11.272859     6A    -11.258458
       7A    -11.238829     8A    -11.235353     9A    -11.233745
      10A    -11.230321    11A    -11.228837    12A    -11.228615
      13A    -11.221462    14A    -11.218433    15A     -1.293158
      16A     -1.220151    17A     -1.132815    18A     -1.096895
      19A     -1.045948    20A     -1.008059    21A     -0.993071
      22A     -0.934893    23A     -0.868517    24A     -0.841301
      25A     -0.821231    26A     -0.797948    27A     -0.723675
      28A     -0.715540    29A     -0.670592    30A     -0.653260
      31A     -0.637288    32A     -0.621275    33A     -0.595628
      34A     -0.593804    35A     -0.588516    36A     -0.579617
      37A     -0.569791    38A     -0.562616    39A     -0.545553
      40A     -0.519318    41A     -0.510994    42A     -0.504247
      43A     -0.487377    44A     -0.454172    45A     -0.414398
      46A     -0.381444    47A     -0.336651    48A     -0.330509
      49A     -0.276983

  @DF-RHF Final Energy:  -570.49892708878679

   => Energetics <=

    Nuclear Repulsion Energy =            790.7495662778937913
    One-Electron Energy =               -2341.6148607092291059
    Two-Electron Energy =                 980.3663673425485285
    Total Energy =                       -570.4989270887867860
  Basis Set: (AUG-CC-PVTZ AUX)
    Blend: AUG-CC-PVTZ-RI
    Molecular point group: c1

    Geometry (in Angstrom), charge = 0, multiplicity = 1:

       Center              X                  Y                   Z               Mass
    ------------   -----------------  -----------------  -----------------  -----------------
         N           -0.460026166847     1.068112163635    -0.311523194057    14.003074004430
         N            1.039974833153    -0.722682836365    -0.008456194057    14.003074004430
         C           -1.678648166847     0.394013163635    -0.119424194057    12.000000000000
         C            0.836298833153     0.593879163635    -0.150217194057    12.000000000000
         C            3.434004833153    -0.322250836365     0.117277805943    12.000000000000
         C            1.900258833153     1.520734163635    -0.175671194057    12.000000000000
         C            3.195545833153     1.052747163635    -0.038648194057    12.000000000000
         C           -2.787376166847     1.168070163635     0.262639805943    12.000000000000
         C           -1.855261166847    -0.975525836365    -0.375243194057    12.000000000000
         C            2.311753833153    -1.147364836365     0.121868805943    12.000000000000
         C            4.824481833153    -0.874449836365     0.266995805943    12.000000000000
         C           -4.044106166847     0.586735163635     0.409772805943    12.000000000000
         C           -3.116943166847    -1.547093836365    -0.205191194057    12.000000000000
         C           -4.217909166847    -0.778941836365     0.176955805943    12.000000000000
         H           -0.536933166847     2.076440163635    -0.235562194057     1.007825032230
         H            1.704417833153     2.584333163635    -0.297699194057     1.007825032230
         H            4.028285833153     1.754739163635    -0.051573194057     1.007825032230
         H           -2.656414166847     2.231295163635     0.462709805943     1.007825032230
         H           -1.008185166847    -1.578075836365    -0.673375194057     1.007825032230
         H            2.427634833153    -2.225478836365     0.238226805943     1.007825032230
         H            5.440913833153    -0.640966836365    -0.607086194057     1.007825032230
         H            5.327300033153    -0.473740536365     1.153039405943     1.007825032230
         H            4.800013833153    -1.961812836365     0.380117805943     1.007825032230
         H           -4.887084166847     1.205283163635     0.709122805943     1.007825032230
         H           -3.239329166847    -2.610770836365    -0.397232194057     1.007825032230
         H           -5.195440166847    -1.238079836365     0.298952805943     1.007825032230

  Basis Set: AUG-CC-PVTZ
    Blend: AUG-CC-PVTZ
  Basis Set: (AUG-CC-PVTZ AUX)
    Blend: AUG-CC-PVTZ-JKFIT
	 Reference Energy          =    -570.4989270887867860 [Eh]
	 Singles Energy            =      -0.0000000000000000 [Eh]
	 Same-Spin Energy          =      -0.6364034836822995 [Eh]
	 Opposite-Spin Energy      =      -1.9708707212792038 [Eh]
	 Correlation Energy        =      -2.6072742049615032 [Eh]
	 Total Energy              =    -573.1062012937483132 [Eh]

	 ================> DF-SCS-MP2 Energies <==================
	-----------------------------------------------------------
	 SCS Same-Spin Scale       =       0.3333333333333333 [-]
	 SCS Opposite-Spin Scale   =       1.2000000000000000 [-]
	 SCS Same-Spin Energy      =      -0.2121344945607665 [Eh]
	 SCS Opposite-Spin Energy  =      -2.3650448655350447 [Eh]
	 SCS Correlation Energy    =      -2.5771793600958111 [Eh]
	 SCS Total Energy          =    -573.0761064488825696 [Eh]
	-----------------------------------------------------------

  Dipole Moment: [D]
     X:     1.8656      Y:     1.8499      Z:     0.1668     Total:     2.6326

*** Psi4 exiting successfully. Buy a developer a beer!
