                               Psi4 1.4a3.dev225

  ==> Input File <==

--------------------------------------------------------------------------
#psi4
#
memory 32 gb

molecule  {
0 1
  N       -0.4914050     1.0723760    -0.3164170
  N        1.0085960    -0.7184190    -0.0133500
  C       -1.7100270     0.3982770    -0.1243180
  C        0.8049200     0.5981430    -0.1551110
  C        3.4026260    -0.3179870     0.1123840
  C        1.8688800     1.5249980    -0.1805650
  C        3.1641670     1.0570110    -0.0435420
  C       -2.8187550     1.1723340     0.2577460
  C       -1.8866400    -0.9712620    -0.3801370
  C        2.2803750    -1.1431010     0.1169750
  C        4.7931030    -0.8701860     0.2621020
  C       -4.0754850     0.5909990     0.4048790
  C       -3.1483220    -1.5428300    -0.2100850
  C       -4.2492880    -0.7746780     0.1720620
  H       -0.5683120     2.0807040    -0.2404560
  H        1.6730390     2.5885970    -0.3025930
  H        3.9969070     1.7590030    -0.0564670
  H       -2.6877930     2.2355590     0.4578160
  H       -1.0395640    -1.5738120    -0.6782690
  H        2.3962560    -2.2212150     0.2333330
  H        5.4095350    -0.6367030    -0.6119800
  H        5.3018822    -0.5231993     1.1672049
  H        4.7686350    -1.9575490     0.3752240
  H       -4.9184630     1.2095470     0.7042290
  H       -3.2707080    -2.6065070    -0.4021260
  H       -5.2268190    -1.2338160     0.2940590
units angstrom
no_reorient  #important for SAPT in psi4, default
symmetry c1  #important for SAPT in psi4, default
}

set PROPERTIES_ORIGIN ["COM"]
properties('MP2/aug-cc-pvtz', properties = ['dipole'])
--------------------------------------------------------------------------

    Molecular point group: c1
  Charge       = 0
  Multiplicity = 1
  Basis Set: AUG-CC-PVTZ
    Blend: AUG-CC-PVTZ
  Basis Set: (AUG-CC-PVTZ AUX)
    Blend: AUG-CC-PVTZ-JKFIT

    Orbital Energies [Eh]
    ---------------------

    Doubly Occupied:

       1A    -15.589265     2A    -15.553825     3A    -11.323219
       4A    -11.281016     5A    -11.273112     6A    -11.258508
       7A    -11.238763     8A    -11.235540     9A    -11.233792
      10A    -11.230369    11A    -11.228671    12A    -11.228597
      13A    -11.221514    14A    -11.218492    15A     -1.293265
      16A     -1.220252    17A     -1.132871    18A     -1.096770
      19A     -1.045938    20A     -1.008108    21A     -0.993086
      22A     -0.934953    23A     -0.868530    24A     -0.841537
      25A     -0.821345    26A     -0.797993    27A     -0.723744
      28A     -0.715518    29A     -0.670684    30A     -0.653181
      31A     -0.637795    32A     -0.621321    33A     -0.595891
      34A     -0.594277    35A     -0.588662    36A     -0.579787
      37A     -0.571018    38A     -0.562386    39A     -0.541771
      40A     -0.519731    41A     -0.510496    42A     -0.504479
      43A     -0.487420    44A     -0.454349    45A     -0.414484
      46A     -0.381547    47A     -0.336859    48A     -0.330584
      49A     -0.277157

  @DF-RHF Final Energy:  -570.49846454785097

   => Energetics <=

    Nuclear Repulsion Energy =            790.7039719141090472
    One-Electron Energy =               -2341.5199318244904134
    Two-Electron Energy =                 980.3174953625305079
    Total Energy =                       -570.4984645478509719
  Basis Set: (AUG-CC-PVTZ AUX)
    Blend: AUG-CC-PVTZ-RI
    Molecular point group: c1

    Geometry (in Angstrom), charge = 0, multiplicity = 1:

       Center              X                  Y                   Z               Mass
    ------------   -----------------  -----------------  -----------------  -----------------
         N           -0.460058799348     1.068406259055    -0.311627531018    14.003074004430
         N            1.039942200652    -0.722388740945    -0.008560531018    14.003074004430
         C           -1.678680799348     0.394307259055    -0.119528531018    12.000000000000
         C            0.836266200652     0.594173259055    -0.150321531018    12.000000000000
         C            3.433972200652    -0.321956740945     0.117173468982    12.000000000000
         C            1.900226200652     1.521028259055    -0.175775531018    12.000000000000
         C            3.195513200652     1.053041259055    -0.038752531018    12.000000000000
         C           -2.787408799348     1.168364259055     0.262535468982    12.000000000000
         C           -1.855293799348    -0.975231740945    -0.375347531018    12.000000000000
         C            2.311721200652    -1.147070740945     0.121764468982    12.000000000000
         C            4.824449200652    -0.874155740945     0.266891468982    12.000000000000
         C           -4.044138799348     0.587029259055     0.409668468982    12.000000000000
         C           -3.116975799348    -1.546799740945    -0.205295531018    12.000000000000
         C           -4.217941799348    -0.778647740945     0.176851468982    12.000000000000
         H           -0.536965799348     2.076734259055    -0.235666531018     1.007825032230
         H            1.704385200652     2.584627259055    -0.297803531018     1.007825032230
         H            4.028253200652     1.755033259055    -0.051677531018     1.007825032230
         H           -2.656446799348     2.231589259055     0.462605468982     1.007825032230
         H           -1.008217799348    -1.577781740945    -0.673479531018     1.007825032230
         H            2.427602200652    -2.225184740945     0.238122468982     1.007825032230
         H            5.440881200652    -0.640672740945    -0.607190531018     1.007825032230
         H            5.333228400652    -0.527169040945     1.171994368982     1.007825032230
         H            4.799981200652    -1.961518740945     0.380013468982     1.007825032230
         H           -4.887116799348     1.205577259055     0.709018468982     1.007825032230
         H           -3.239361799348    -2.610476740945    -0.397336531018     1.007825032230
         H           -5.195472799348    -1.237785740945     0.298848468982     1.007825032230

  Basis Set: AUG-CC-PVTZ
    Blend: AUG-CC-PVTZ
  Basis Set: (AUG-CC-PVTZ AUX)
    Blend: AUG-CC-PVTZ-JKFIT
	 Reference Energy          =    -570.4984645478509719 [Eh]
	 Singles Energy            =      -0.0000000000000000 [Eh]
	 Same-Spin Energy          =      -0.6363959327716353 [Eh]
	 Opposite-Spin Energy      =      -1.9708414537392915 [Eh]
	 Correlation Energy        =      -2.6072373865109268 [Eh]
	 Total Energy              =    -573.1057019343619459 [Eh]

	 ================> DF-SCS-MP2 Energies <==================
	-----------------------------------------------------------
	 SCS Same-Spin Scale       =       0.3333333333333333 [-]
	 SCS Opposite-Spin Scale   =       1.2000000000000000 [-]
	 SCS Same-Spin Energy      =      -0.2121319775905451 [Eh]
	 SCS Opposite-Spin Energy  =      -2.3650097444871498 [Eh]
	 SCS Correlation Energy    =      -2.5771417220776951 [Eh]
	 SCS Total Energy          =    -573.0756062699286986 [Eh]
	-----------------------------------------------------------

  Dipole Moment: [D]
     X:     1.8515      Y:     1.8374      Z:     0.1775     Total:     2.6145

*** Psi4 exiting successfully. Buy a developer a beer!
