                               Psi4 1.4a3.dev225

  ==> Input File <==

--------------------------------------------------------------------------
#psi4
#
memory 32 gb

molecule  {
0 1
  N       -0.4914050     1.0723760    -0.3164170
  N        1.0085960    -0.7184190    -0.0133500
  C       -1.7100270     0.3982770    -0.1243180
  C        0.8049200     0.5981430    -0.1551110
  C        3.4026260    -0.3179870     0.1123840
  C        1.8688800     1.5249980    -0.1805650
  C        3.1641670     1.0570110    -0.0435420
  C       -2.8187550     1.1723340     0.2577460
  C       -1.8866400    -0.9712620    -0.3801370
  C        2.2992563    -1.1494060     0.1189099
  C        4.7931030    -0.8701860     0.2621020
  C       -4.0754850     0.5909990     0.4048790
  C       -3.1483220    -1.5428300    -0.2100850
  C       -4.2492880    -0.7746780     0.1720620
  H       -0.5683120     2.0807040    -0.2404560
  H        1.6730390     2.5885970    -0.3025930
  H        3.9969070     1.7590030    -0.0564670
  H       -2.6877930     2.2355590     0.4578160
  H       -1.0395640    -1.5738120    -0.6782690
  H        2.3962560    -2.2212150     0.2333330
  H        5.4095350    -0.6367030    -0.6119800
  H        5.2936270    -0.4518060     1.1412500
  H        4.7686350    -1.9575490     0.3752240
  H       -4.9184630     1.2095470     0.7042290
  H       -3.2707080    -2.6065070    -0.4021260
  H       -5.2268190    -1.2338160     0.2940590
units angstrom
no_reorient  #important for SAPT in psi4, default
symmetry c1  #important for SAPT in psi4, default
}

set PROPERTIES_ORIGIN ["COM"]
properties('MP2/aug-cc-pvtz', properties = ['dipole'])
--------------------------------------------------------------------------

    Molecular point group: c1
  Charge       = 0
  Multiplicity = 1
  Basis Set: AUG-CC-PVTZ
    Blend: AUG-CC-PVTZ
  Basis Set: (AUG-CC-PVTZ AUX)
    Blend: AUG-CC-PVTZ-JKFIT

    Orbital Energies [Eh]
    ---------------------

    Doubly Occupied:

       1A    -15.589003     2A    -15.553669     3A    -11.322652
       4A    -11.280732     5A    -11.271830     6A    -11.259253
       7A    -11.239896     8A    -11.234907     9A    -11.233558
      10A    -11.230090    11A    -11.228775    12A    -11.228473
      13A    -11.221318    14A    -11.218183    15A     -1.291171
      16A     -1.216636    17A     -1.132514    18A     -1.096655
      19A     -1.046609    20A     -1.007840    21A     -0.993180
      22A     -0.934868    23A     -0.869935    24A     -0.840491
      25A     -0.821035    26A     -0.797049    27A     -0.723885
      28A     -0.715132    29A     -0.670415    30A     -0.652789
      31A     -0.637358    32A     -0.622205    33A     -0.595489
      34A     -0.594071    35A     -0.588370    36A     -0.579330
      37A     -0.569163    38A     -0.562725    39A     -0.545867
      40A     -0.518476    41A     -0.510576    42A     -0.503943
      43A     -0.487315    44A     -0.453676    45A     -0.414623
      46A     -0.379124    47A     -0.337563    48A     -0.330385
      49A     -0.277966

  @DF-RHF Final Energy:  -570.49808089273949

   => Energetics <=

    Nuclear Repulsion Energy =            790.5220901494158170
    One-Electron Energy =               -2341.1788080605338109
    Two-Electron Energy =                 980.1586370183784993
    Total Energy =                       -570.4980808927394946
  Basis Set: (AUG-CC-PVTZ AUX)
    Blend: AUG-CC-PVTZ-RI
    Molecular point group: c1

    Geometry (in Angstrom), charge = 0, multiplicity = 1:

       Center              X                  Y                   Z               Mass
    ------------   -----------------  -----------------  -----------------  -----------------
         N           -0.461244327568     1.068426400522    -0.311611565797    14.003074004430
         N            1.038756672432    -0.722368599478    -0.008544565797    14.003074004430
         C           -1.679866327568     0.394327400522    -0.119512565797    12.000000000000
         C            0.835080672432     0.594193400522    -0.150305565797    12.000000000000
         C            3.432786672432    -0.321936599478     0.117189434203    12.000000000000
         C            1.899040672432     1.521048400522    -0.175759565797    12.000000000000
         C            3.194327672432     1.053061400522    -0.038736565797    12.000000000000
         C           -2.788594327568     1.168384400522     0.262551434203    12.000000000000
         C           -1.856479327568    -0.975211599478    -0.375331565797    12.000000000000
         C            2.329416972432    -1.153355599478     0.123715334203    12.000000000000
         C            4.823263672432    -0.874135599478     0.266907434203    12.000000000000
         C           -4.045324327568     0.587049400522     0.409684434203    12.000000000000
         C           -3.118161327568    -1.546779599478    -0.205279565797    12.000000000000
         C           -4.219127327568    -0.778627599478     0.176867434203    12.000000000000
         H           -0.538151327568     2.076754400522    -0.235650565797     1.007825032230
         H            1.703199672432     2.584647400522    -0.297787565797     1.007825032230
         H            4.027067672432     1.755053400522    -0.051661565797     1.007825032230
         H           -2.657632327568     2.231609400522     0.462621434203     1.007825032230
         H           -1.009403327568    -1.577761599478    -0.673463565797     1.007825032230
         H            2.426416672432    -2.225164599478     0.238138434203     1.007825032230
         H            5.439695672432    -0.640652599478    -0.607174565797     1.007825032230
         H            5.323787672432    -0.455755599478     1.146055434203     1.007825032230
         H            4.798795672432    -1.961498599478     0.380029434203     1.007825032230
         H           -4.888302327568     1.205597400522     0.709034434203     1.007825032230
         H           -3.240547327568    -2.610456599478    -0.397320565797     1.007825032230
         H           -5.196658327568    -1.237765599478     0.298864434203     1.007825032230

  Basis Set: AUG-CC-PVTZ
    Blend: AUG-CC-PVTZ
  Basis Set: (AUG-CC-PVTZ AUX)
    Blend: AUG-CC-PVTZ-JKFIT
	 Reference Energy          =    -570.4980808927394946 [Eh]
	 Singles Energy            =      -0.0000000000000000 [Eh]
	 Same-Spin Energy          =      -0.6363903243281636 [Eh]
	 Opposite-Spin Energy      =      -1.9712248818391536 [Eh]
	 Correlation Energy        =      -2.6076152061673170 [Eh]
	 Total Energy              =    -573.1056960989068330 [Eh]

	 ================> DF-SCS-MP2 Energies <==================
	-----------------------------------------------------------
	 SCS Same-Spin Scale       =       0.3333333333333333 [-]
	 SCS Opposite-Spin Scale   =       1.2000000000000000 [-]
	 SCS Same-Spin Energy      =      -0.2121301081093878 [Eh]
	 SCS Opposite-Spin Energy  =      -2.3654698582069842 [Eh]
	 SCS Correlation Energy    =      -2.5775999663163720 [Eh]
	 SCS Total Energy          =    -573.0756808590558649 [Eh]
	-----------------------------------------------------------

  Dipole Moment: [D]
     X:     1.8904      Y:     1.8582      Z:     0.1636     Total:     2.6558

*** Psi4 exiting successfully. Buy a developer a beer!
