                               Psi4 1.4a3.dev225

  ==> Input File <==

--------------------------------------------------------------------------
#psi4
#
memory 32 gb

molecule  {
0 1
  N       -0.4914050     1.0723760    -0.3164170
  N        1.0085960    -0.7184190    -0.0133500
  C       -1.7100270     0.3982770    -0.1243180
  C        0.8049200     0.5981430    -0.1551110
  C        3.3994015    -0.3325788     0.0908124
  C        1.8688800     1.5249980    -0.1805650
  C        3.1641670     1.0570110    -0.0435420
  C       -2.8187550     1.1723340     0.2577460
  C       -1.8866400    -0.9712620    -0.3801370
  C        2.2803750    -1.1431010     0.1169750
  C        4.7931030    -0.8701860     0.2621020
  C       -4.0754850     0.5909990     0.4048790
  C       -3.1483220    -1.5428300    -0.2100850
  C       -4.2492880    -0.7746780     0.1720620
  H       -0.5683120     2.0807040    -0.2404560
  H        1.6730390     2.5885970    -0.3025930
  H        3.9969070     1.7590030    -0.0564670
  H       -2.6877930     2.2355590     0.4578160
  H       -1.0395640    -1.5738120    -0.6782690
  H        2.3962560    -2.2212150     0.2333330
  H        5.4095350    -0.6367030    -0.6119800
  H        5.2936270    -0.4518060     1.1412500
  H        4.7686350    -1.9575490     0.3752240
  H       -4.9184630     1.2095470     0.7042290
  H       -3.2707080    -2.6065070    -0.4021260
  H       -5.2268190    -1.2338160     0.2940590
units angstrom
no_reorient  #important for SAPT in psi4, default
symmetry c1  #important for SAPT in psi4, default
}

set PROPERTIES_ORIGIN ["COM"]
properties('MP2/aug-cc-pvtz', properties = ['dipole'])
--------------------------------------------------------------------------

    Molecular point group: c1
  Charge       = 0
  Multiplicity = 1
  Basis Set: AUG-CC-PVTZ
    Blend: AUG-CC-PVTZ
  Basis Set: (AUG-CC-PVTZ AUX)
    Blend: AUG-CC-PVTZ-JKFIT

    Orbital Energies [Eh]
    ---------------------

    Doubly Occupied:

       1A    -15.589474     2A    -15.552860     3A    -11.323340
       4A    -11.281022     5A    -11.270660     6A    -11.260004
       7A    -11.239464     8A    -11.234996     9A    -11.233797
      10A    -11.230347    11A    -11.228805    12A    -11.228732
      13A    -11.221559    14A    -11.218504    15A     -1.293164
      16A     -1.220128    17A     -1.132922    18A     -1.095677
      19A     -1.046717    20A     -1.008116    21A     -0.993224
      22A     -0.935186    23A     -0.868372    24A     -0.841318
      25A     -0.820868    26A     -0.798365    27A     -0.723692
      28A     -0.715574    29A     -0.670477    30A     -0.653447
      31A     -0.636956    32A     -0.621339    33A     -0.595621
      34A     -0.593889    35A     -0.588365    36A     -0.579589
      37A     -0.569951    38A     -0.562898    39A     -0.547491
      40A     -0.517649    41A     -0.510005    42A     -0.503959
      43A     -0.487386    44A     -0.454182    45A     -0.414620
      46A     -0.380535    47A     -0.337132    48A     -0.330577
      49A     -0.277538

  @DF-RHF Final Energy:  -570.49876535399392

   => Energetics <=

    Nuclear Repulsion Energy =            790.7772150937732931
    One-Electron Energy =               -2341.6709722933351259
    Two-Electron Energy =                 980.3949918455679153
    Total Energy =                       -570.4987653539939174
  Basis Set: (AUG-CC-PVTZ AUX)
    Blend: AUG-CC-PVTZ-RI
    Molecular point group: c1

    Geometry (in Angstrom), charge = 0, multiplicity = 1:

       Center              X                  Y                   Z               Mass
    ------------   -----------------  -----------------  -----------------  -----------------
         N           -0.459803428436     1.068966550299    -0.310079366309    14.003074004430
         N            1.040197571564    -0.721828449701    -0.007012366309    14.003074004430
         C           -1.678425428436     0.394867550299    -0.117980366309    12.000000000000
         C            0.836521571564     0.594733550299    -0.148773366309    12.000000000000
         C            3.431003071564    -0.335988249701     0.097150033691    12.000000000000
         C            1.900481571564     1.521588550299    -0.174227366309    12.000000000000
         C            3.195768571564     1.053601550299    -0.037204366309    12.000000000000
         C           -2.787153428436     1.168924550299     0.264083633691    12.000000000000
         C           -1.855038428436    -0.974671449701    -0.373799366309    12.000000000000
         C            2.311976571564    -1.146510449701     0.123312633691    12.000000000000
         C            4.824704571564    -0.873595449701     0.268439633691    12.000000000000
         C           -4.043883428436     0.587589550299     0.411216633691    12.000000000000
         C           -3.116720428436    -1.546239449701    -0.203747366309    12.000000000000
         C           -4.217686428436    -0.778087449701     0.178399633691    12.000000000000
         H           -0.536710428436     2.077294550299    -0.234118366309     1.007825032230
         H            1.704640571564     2.585187550299    -0.296255366309     1.007825032230
         H            4.028508571564     1.755593550299    -0.050129366309     1.007825032230
         H           -2.656191428436     2.232149550299     0.464153633691     1.007825032230
         H           -1.007962428436    -1.577221449701    -0.671931366309     1.007825032230
         H            2.427857571564    -2.224624449701     0.239670633691     1.007825032230
         H            5.441136571564    -0.640112449701    -0.605642366309     1.007825032230
         H            5.325228571564    -0.455215449701     1.147587633691     1.007825032230
         H            4.800236571564    -1.960958449701     0.381561633691     1.007825032230
         H           -4.886861428436     1.206137550299     0.710566633691     1.007825032230
         H           -3.239106428436    -2.609916449701    -0.395788366309     1.007825032230
         H           -5.195217428436    -1.237225449701     0.300396633691     1.007825032230

  Basis Set: AUG-CC-PVTZ
    Blend: AUG-CC-PVTZ
  Basis Set: (AUG-CC-PVTZ AUX)
    Blend: AUG-CC-PVTZ-JKFIT
	 Reference Energy          =    -570.4987653539939174 [Eh]
	 Singles Energy            =      -0.0000000000000000 [Eh]
	 Same-Spin Energy          =      -0.6362879619807504 [Eh]
	 Opposite-Spin Energy      =      -1.9708144607794265 [Eh]
	 Correlation Energy        =      -2.6071024227601769 [Eh]
	 Total Energy              =    -573.1058677767540530 [Eh]

	 ================> DF-SCS-MP2 Energies <==================
	-----------------------------------------------------------
	 SCS Same-Spin Scale       =       0.3333333333333333 [-]
	 SCS Opposite-Spin Scale   =       1.2000000000000000 [-]
	 SCS Same-Spin Energy      =      -0.2120959873269168 [Eh]
	 SCS Opposite-Spin Energy  =      -2.3649773529353117 [Eh]
	 SCS Correlation Energy    =      -2.5770733402622286 [Eh]
	 SCS Total Energy          =    -573.0758386942561629 [Eh]
	-----------------------------------------------------------

  Dipole Moment: [D]
     X:     1.8529      Y:     1.8746      Z:     0.1677     Total:     2.6411

*** Psi4 exiting successfully. Buy a developer a beer!
