                               Psi4 1.4a3.dev225

  ==> Input File <==

--------------------------------------------------------------------------
#psi4
#
memory 32 gb

molecule  {
0 1
  N       -0.4914050     1.0723760    -0.3164170
  N        1.0085960    -0.7184190    -0.0133500
  C       -1.7100270     0.3982770    -0.1243180
  C        0.8049200     0.5981430    -0.1551110
  C        3.4026260    -0.3179870     0.1123840
  C        1.8688800     1.5249980    -0.1805650
  C        3.1641670     1.0570110    -0.0435420
  C       -2.8187550     1.1723340     0.2577460
  C       -1.8866400    -0.9712620    -0.3801370
  C        2.2803750    -1.1431010     0.1169750
  C        4.7931030    -0.8701860     0.2621020
  C       -4.0754850     0.5909990     0.4048790
  C       -3.1483220    -1.5428300    -0.2100850
  C       -4.2492880    -0.7746780     0.1720620
  H       -0.5683120     2.0807040    -0.2404560
  H        1.6730390     2.5885970    -0.3025930
  H        4.0121975     1.7718927    -0.0567043
  H       -2.6877930     2.2355590     0.4578160
  H       -1.0395640    -1.5738120    -0.6782690
  H        2.3962560    -2.2212150     0.2333330
  H        5.4095350    -0.6367030    -0.6119800
  H        5.2936270    -0.4518060     1.1412500
  H        4.7686350    -1.9575490     0.3752240
  H       -4.9184630     1.2095470     0.7042290
  H       -3.2707080    -2.6065070    -0.4021260
  H       -5.2268190    -1.2338160     0.2940590
units angstrom
no_reorient  #important for SAPT in psi4, default
symmetry c1  #important for SAPT in psi4, default
}

set PROPERTIES_ORIGIN ["COM"]
properties('MP2/aug-cc-pvtz', properties = ['dipole'])
--------------------------------------------------------------------------

    Molecular point group: c1
  Charge       = 0
  Multiplicity = 1
  Basis Set: AUG-CC-PVTZ
    Blend: AUG-CC-PVTZ
  Basis Set: (AUG-CC-PVTZ AUX)
    Blend: AUG-CC-PVTZ-JKFIT

    Orbital Energies [Eh]
    ---------------------

    Doubly Occupied:

       1A    -15.589199     2A    -15.553794     3A    -11.323126
       4A    -11.280986     5A    -11.272924     6A    -11.260741
       7A    -11.239023     8A    -11.235496     9A    -11.233763
      10A    -11.230339    11A    -11.228917    12A    -11.228636
      13A    -11.221480    14A    -11.218455    15A     -1.293211
      16A     -1.220198    17A     -1.132839    18A     -1.096560
      19A     -1.046003    20A     -1.008080    21A     -0.993025
      22A     -0.934902    23A     -0.867573    24A     -0.841271
      25A     -0.821241    26A     -0.797228    27A     -0.722607
      28A     -0.715601    29A     -0.670583    30A     -0.653210
      31A     -0.637242    32A     -0.620702    33A     -0.595121
      34A     -0.593657    35A     -0.588443    36A     -0.579521
      37A     -0.569167    38A     -0.560843    39A     -0.546784
      40A     -0.519272    41A     -0.511160    42A     -0.504218
      43A     -0.487392    44A     -0.454170    45A     -0.414344
      46A     -0.381511    47A     -0.336655    48A     -0.330522
      49A     -0.276996

  @DF-RHF Final Energy:  -570.49829511924622

   => Energetics <=

    Nuclear Repulsion Energy =            790.6589888855850177
    One-Electron Energy =               -2341.4371114482391931
    Two-Electron Energy =                 980.2798274434078394
    Total Energy =                       -570.4982951192462224
  Basis Set: (AUG-CC-PVTZ AUX)
    Blend: AUG-CC-PVTZ-RI
    Molecular point group: c1

    Geometry (in Angstrom), charge = 0, multiplicity = 1:

       Center              X                  Y                   Z               Mass
    ------------   -----------------  -----------------  -----------------  -----------------
         N           -0.460097312925     1.067944865818    -0.311484146185    14.003074004430
         N            1.039903687075    -0.722850134182    -0.008417146185    14.003074004430
         C           -1.678719312925     0.393845865818    -0.119385146185    12.000000000000
         C            0.836227687075     0.593711865818    -0.150178146185    12.000000000000
         C            3.433933687075    -0.322418134182     0.117316853815    12.000000000000
         C            1.900187687075     1.520566865818    -0.175632146185    12.000000000000
         C            3.195474687075     1.052579865818    -0.038609146185    12.000000000000
         C           -2.787447312925     1.167902865818     0.262678853815    12.000000000000
         C           -1.855332312925    -0.975693134182    -0.375204146185    12.000000000000
         C            2.311682687075    -1.147532134182     0.121907853815    12.000000000000
         C            4.824410687075    -0.874617134182     0.267034853815    12.000000000000
         C           -4.044177312925     0.586567865818     0.409811853815    12.000000000000
         C           -3.117014312925    -1.547261134182    -0.205152146185    12.000000000000
         C           -4.217980312925    -0.779109134182     0.176994853815    12.000000000000
         H           -0.537004312925     2.076272865818    -0.235523146185     1.007825032230
         H            1.704346687075     2.584165865818    -0.297660146185     1.007825032230
         H            4.043505187075     1.767461565818    -0.051771446185     1.007825032230
         H           -2.656485312925     2.231127865818     0.462748853815     1.007825032230
         H           -1.008256312925    -1.578243134182    -0.673336146185     1.007825032230
         H            2.427563687075    -2.225646134182     0.238265853815     1.007825032230
         H            5.440842687075    -0.641134134182    -0.607047146185     1.007825032230
         H            5.324934687075    -0.456237134182     1.146182853815     1.007825032230
         H            4.799942687075    -1.961980134182     0.380156853815     1.007825032230
         H           -4.887155312925     1.205115865818     0.709161853815     1.007825032230
         H           -3.239400312925    -2.610938134182    -0.397193146185     1.007825032230
         H           -5.195511312925    -1.238247134182     0.298991853815     1.007825032230

  Basis Set: AUG-CC-PVTZ
    Blend: AUG-CC-PVTZ
  Basis Set: (AUG-CC-PVTZ AUX)
    Blend: AUG-CC-PVTZ-JKFIT
	 Reference Energy          =    -570.4982951192462224 [Eh]
	 Singles Energy            =      -0.0000000000000000 [Eh]
	 Same-Spin Energy          =      -0.6364555094168201 [Eh]
	 Opposite-Spin Energy      =      -1.9710433475723352 [Eh]
	 Correlation Energy        =      -2.6074988569891553 [Eh]
	 Total Energy              =    -573.1057939762354181 [Eh]

	 ================> DF-SCS-MP2 Energies <==================
	-----------------------------------------------------------
	 SCS Same-Spin Scale       =       0.3333333333333333 [-]
	 SCS Opposite-Spin Scale   =       1.2000000000000000 [-]
	 SCS Same-Spin Energy      =      -0.2121518364722733 [Eh]
	 SCS Opposite-Spin Energy  =      -2.3652520170868021 [Eh]
	 SCS Correlation Energy    =      -2.5774038535590753 [Eh]
	 SCS Total Energy          =    -573.0756989728052986 [Eh]
	-----------------------------------------------------------

  Dipole Moment: [D]
     X:     1.8621      Y:     1.8486      Z:     0.1632     Total:     2.6289

*** Psi4 exiting successfully. Buy a developer a beer!
