                               Psi4 1.4a3.dev225

  ==> Input File <==

--------------------------------------------------------------------------
#psi4
#
memory 32 gb

molecule  {
0 1
  N       -0.4914050     1.0723760    -0.3164170
  N        1.0085960    -0.7184190    -0.0133500
  C       -1.7100270     0.3982770    -0.1243180
  C        0.8049200     0.5981430    -0.1551110
  C        3.4026260    -0.3179870     0.1123840
  C        1.8688800     1.5249980    -0.1805650
  C        3.1641670     1.0570110    -0.0435420
  C       -2.8187550     1.1723340     0.2577460
  C       -1.8866400    -0.9712620    -0.3801370
  C        2.2803750    -1.1431010     0.1169750
  C        4.7931030    -0.8701860     0.2621020
  C       -4.0754850     0.5909990     0.4048790
  C       -3.1483220    -1.5428300    -0.2100850
  C       -4.2492880    -0.7746780     0.1720620
  H       -0.5683120     2.0807040    -0.2404560
  H        1.6730390     2.5885970    -0.3025930
  H        3.9969070     1.7590030    -0.0564670
  H       -2.6877930     2.2355590     0.4578160
  H       -1.0395640    -1.5738120    -0.6782690
  H        2.3962560    -2.2212150     0.2333330
  H        5.4095350    -0.6367030    -0.6119800
  H        5.2936270    -0.4518060     1.1412500
  H        4.7686350    -1.9575490     0.3752240
  H       -4.9572179     1.2379840     0.7179912
  H       -3.2707080    -2.6065070    -0.4021260
  H       -5.2268190    -1.2338160     0.2940590
units angstrom
no_reorient  #important for SAPT in psi4, default
symmetry c1  #important for SAPT in psi4, default
}

set PROPERTIES_ORIGIN ["COM"]
properties('MP2/aug-cc-pvtz', properties = ['dipole'])
--------------------------------------------------------------------------

    Molecular point group: c1
  Charge       = 0
  Multiplicity = 1
  Basis Set: AUG-CC-PVTZ
    Blend: AUG-CC-PVTZ
  Basis Set: (AUG-CC-PVTZ AUX)
    Blend: AUG-CC-PVTZ-JKFIT

    Orbital Energies [Eh]
    ---------------------

    Doubly Occupied:

       1A    -15.589319     2A    -15.553841     3A    -11.323119
       4A    -11.281296     5A    -11.272868     6A    -11.258534
       7A    -11.239490     8A    -11.238958     9A    -11.235397
      10A    -11.230678    11A    -11.229121    12A    -11.228993
      13A    -11.221955    14A    -11.218617    15A     -1.293280
      16A     -1.220277    17A     -1.132791    18A     -1.097039
      19A     -1.046017    20A     -1.007133    21A     -0.992988
      22A     -0.935019    23A     -0.868639    24A     -0.840462
      25A     -0.820808    26A     -0.796660    27A     -0.722430
      28A     -0.714418    29A     -0.670781    30A     -0.653163
      31A     -0.636829    32A     -0.620233    33A     -0.595434
      34A     -0.591472    35A     -0.588537    36A     -0.578355
      37A     -0.569418    38A     -0.561771    39A     -0.546846
      40A     -0.518860    41A     -0.511100    42A     -0.504315
      43A     -0.485483    44A     -0.454292    45A     -0.414456
      46A     -0.381505    47A     -0.336801    48A     -0.330747
      49A     -0.277128

  @DF-RHF Final Energy:  -570.49648574398634

   => Energetics <=

    Nuclear Repulsion Energy =            790.5104687811831354
    One-Electron Energy =               -2341.1385554900339230
    Two-Electron Energy =                 980.1316009648644467
    Total Energy =                       -570.4964857439863408
  Basis Set: (AUG-CC-PVTZ AUX)
    Blend: AUG-CC-PVTZ-RI
    Molecular point group: c1

    Geometry (in Angstrom), charge = 0, multiplicity = 1:

       Center              X                  Y                   Z               Mass
    ------------   -----------------  -----------------  -----------------  -----------------
         N           -0.459801450390     1.067859754716    -0.311560784114    14.003074004430
         N            1.040199549610    -0.722935245284    -0.008493784114    14.003074004430
         C           -1.678423450390     0.393760754716    -0.119461784114    12.000000000000
         C            0.836523549610     0.593626754716    -0.150254784114    12.000000000000
         C            3.434229549610    -0.322503245284     0.117240215886    12.000000000000
         C            1.900483549610     1.520481754716    -0.175708784114    12.000000000000
         C            3.195770549610     1.052494754716    -0.038685784114    12.000000000000
         C           -2.787151450390     1.167817754716     0.262602215886    12.000000000000
         C           -1.855036450390    -0.975778245284    -0.375280784114    12.000000000000
         C            2.311978549610    -1.147617245284     0.121831215886    12.000000000000
         C            4.824706549610    -0.874702245284     0.266958215886    12.000000000000
         C           -4.043881450390     0.586482754716     0.409735215886    12.000000000000
         C           -3.116718450390    -1.547346245284    -0.205228784114    12.000000000000
         C           -4.217684450390    -0.779194245284     0.176918215886    12.000000000000
         H           -0.536708450390     2.076187754716    -0.235599784114     1.007825032230
         H            1.704642549610     2.584080754716    -0.297736784114     1.007825032230
         H            4.028510549610     1.754486754716    -0.051610784114     1.007825032230
         H           -2.656189450390     2.231042754716     0.462672215886     1.007825032230
         H           -1.007960450390    -1.578328245284    -0.673412784114     1.007825032230
         H            2.427859549610    -2.225731245284     0.238189215886     1.007825032230
         H            5.441138549610    -0.641219245284    -0.607123784114     1.007825032230
         H            5.325230549610    -0.456322245284     1.146106215886     1.007825032230
         H            4.800238549610    -1.962065245284     0.380080215886     1.007825032230
         H           -4.925614350390     1.233467754716     0.722847415886     1.007825032230
         H           -3.239104450390    -2.611023245284    -0.397269784114     1.007825032230
         H           -5.195215450390    -1.238332245284     0.298915215886     1.007825032230

  Basis Set: AUG-CC-PVTZ
    Blend: AUG-CC-PVTZ
  Basis Set: (AUG-CC-PVTZ AUX)
    Blend: AUG-CC-PVTZ-JKFIT
	 Reference Energy          =    -570.4964857439863408 [Eh]
	 Singles Energy            =      -0.0000000000000000 [Eh]
	 Same-Spin Energy          =      -0.6365095051580538 [Eh]
	 Opposite-Spin Energy      =      -1.9713147715399466 [Eh]
	 Correlation Energy        =      -2.6078242766980004 [Eh]
	 Total Energy              =    -573.1043100206843519 [Eh]

	 ================> DF-SCS-MP2 Energies <==================
	-----------------------------------------------------------
	 SCS Same-Spin Scale       =       0.3333333333333333 [-]
	 SCS Opposite-Spin Scale   =       1.2000000000000000 [-]
	 SCS Same-Spin Energy      =      -0.2121698350526846 [Eh]
	 SCS Opposite-Spin Energy  =      -2.3655777258479360 [Eh]
	 SCS Correlation Energy    =      -2.5777475609006206 [Eh]
	 SCS Total Energy          =    -573.0742333048870023 [Eh]
	-----------------------------------------------------------

  Dipole Moment: [D]
     X:     1.8950      Y:     1.8404      Z:     0.1568     Total:     2.6462

*** Psi4 exiting successfully. Buy a developer a beer!
