                               Psi4 1.4a3.dev225

  ==> Input File <==

--------------------------------------------------------------------------
#psi4
#
memory 32 gb

molecule  {
0 1
  N       -0.4914050     1.0723760    -0.3164170
  N        1.0085960    -0.7184190    -0.0133500
  C       -1.7100270     0.3982770    -0.1243180
  C        0.8235757     0.5913182    -0.1527896
  C        3.4026260    -0.3179870     0.1123840
  C        1.8688800     1.5249980    -0.1805650
  C        3.1641670     1.0570110    -0.0435420
  C       -2.8187550     1.1723340     0.2577460
  C       -1.8866400    -0.9712620    -0.3801370
  C        2.2803750    -1.1431010     0.1169750
  C        4.7931030    -0.8701860     0.2621020
  C       -4.0754850     0.5909990     0.4048790
  C       -3.1483220    -1.5428300    -0.2100850
  C       -4.2492880    -0.7746780     0.1720620
  H       -0.5683120     2.0807040    -0.2404560
  H        1.6730390     2.5885970    -0.3025930
  H        3.9969070     1.7590030    -0.0564670
  H       -2.6877930     2.2355590     0.4578160
  H       -1.0395640    -1.5738120    -0.6782690
  H        2.3962560    -2.2212150     0.2333330
  H        5.4095350    -0.6367030    -0.6119800
  H        5.2936270    -0.4518060     1.1412500
  H        4.7686350    -1.9575490     0.3752240
  H       -4.9184630     1.2095470     0.7042290
  H       -3.2707080    -2.6065070    -0.4021260
  H       -5.2268190    -1.2338160     0.2940590
units angstrom
no_reorient  #important for SAPT in psi4, default
symmetry c1  #important for SAPT in psi4, default
}

set PROPERTIES_ORIGIN ["COM"]
properties('MP2/aug-cc-pvtz', properties = ['dipole'])
--------------------------------------------------------------------------

    Molecular point group: c1
  Charge       = 0
  Multiplicity = 1
  Basis Set: AUG-CC-PVTZ
    Blend: AUG-CC-PVTZ
  Basis Set: (AUG-CC-PVTZ AUX)
    Blend: AUG-CC-PVTZ-JKFIT

    Orbital Energies [Eh]
    ---------------------

    Doubly Occupied:

       1A    -15.586260     2A    -15.555293     3A    -11.322360
       4A    -11.279499     5A    -11.274047     6A    -11.259713
       7A    -11.239468     8A    -11.237215     9A    -11.232596
      10A    -11.230100    11A    -11.229256    12A    -11.226950
      13A    -11.219998    14A    -11.216980    15A     -1.291578
      16A     -1.219978    17A     -1.130739    18A     -1.099523
      19A     -1.047506    20A     -1.006761    21A     -0.991332
      22A     -0.935897    23A     -0.870169    24A     -0.839647
      25A     -0.820493    26A     -0.797901    27A     -0.721197
      28A     -0.713895    29A     -0.670058    30A     -0.654845
      31A     -0.637663    32A     -0.621086    33A     -0.594249
      34A     -0.592928    35A     -0.587925    36A     -0.578549
      37A     -0.568740    38A     -0.563254    39A     -0.548173
      40A     -0.519890    41A     -0.511550    42A     -0.503274
      43A     -0.486260    44A     -0.452278    45A     -0.417730
      46A     -0.383114    47A     -0.337023    48A     -0.329588
      49A     -0.277131

  @DF-RHF Final Energy:  -570.49874832223588

   => Energetics <=

    Nuclear Repulsion Energy =            790.7911569768411937
    One-Electron Energy =               -2341.7164956436945431
    Two-Electron Energy =                 980.4265903446174661
    Total Energy =                       -570.4987483222358833
  Basis Set: (AUG-CC-PVTZ AUX)
    Blend: AUG-CC-PVTZ-RI
    Molecular point group: c1

    Geometry (in Angstrom), charge = 0, multiplicity = 1:

       Center              X                  Y                   Z               Mass
    ------------   -----------------  -----------------  -----------------  -----------------
         N           -0.461229622521     1.068460282099    -0.311636758621    14.003074004430
         N            1.038771377479    -0.722334717901    -0.008569758621    14.003074004430
         C           -1.679851622521     0.394361282099    -0.119537758621    12.000000000000
         C            0.853751077479     0.587402482099    -0.148009358621    12.000000000000
         C            3.432801377479    -0.321902717901     0.117164241379    12.000000000000
         C            1.899055377479     1.521082282099    -0.175784758621    12.000000000000
         C            3.194342377479     1.053095282099    -0.038761758621    12.000000000000
         C           -2.788579622521     1.168418282099     0.262526241379    12.000000000000
         C           -1.856464622521    -0.975177717901    -0.375356758621    12.000000000000
         C            2.310550377479    -1.147016717901     0.121755241379    12.000000000000
         C            4.823278377479    -0.874101717901     0.266882241379    12.000000000000
         C           -4.045309622521     0.587083282099     0.409659241379    12.000000000000
         C           -3.118146622521    -1.546745717901    -0.205304758621    12.000000000000
         C           -4.219112622521    -0.778593717901     0.176842241379    12.000000000000
         H           -0.538136622521     2.076788282099    -0.235675758621     1.007825032230
         H            1.703214377479     2.584681282099    -0.297812758621     1.007825032230
         H            4.027082377479     1.755087282099    -0.051686758621     1.007825032230
         H           -2.657617622521     2.231643282099     0.462596241379     1.007825032230
         H           -1.009388622521    -1.577727717901    -0.673488758621     1.007825032230
         H            2.426431377479    -2.225130717901     0.238113241379     1.007825032230
         H            5.439710377479    -0.640618717901    -0.607199758621     1.007825032230
         H            5.323802377479    -0.455721717901     1.146030241379     1.007825032230
         H            4.798810377479    -1.961464717901     0.380004241379     1.007825032230
         H           -4.888287622521     1.205631282099     0.709009241379     1.007825032230
         H           -3.240532622521    -2.610422717901    -0.397345758621     1.007825032230
         H           -5.196643622521    -1.237731717901     0.298839241379     1.007825032230

  Basis Set: AUG-CC-PVTZ
    Blend: AUG-CC-PVTZ
  Basis Set: (AUG-CC-PVTZ AUX)
    Blend: AUG-CC-PVTZ-JKFIT
	 Reference Energy          =    -570.4987483222358833 [Eh]
	 Singles Energy            =      -0.0000000000000000 [Eh]
	 Same-Spin Energy          =      -0.6363108747985396 [Eh]
	 Opposite-Spin Energy      =      -1.9707611680619130 [Eh]
	 Correlation Energy        =      -2.6070720428604526 [Eh]
	 Total Energy              =    -573.1058203650962923 [Eh]

	 ================> DF-SCS-MP2 Energies <==================
	-----------------------------------------------------------
	 SCS Same-Spin Scale       =       0.3333333333333333 [-]
	 SCS Opposite-Spin Scale   =       1.2000000000000000 [-]
	 SCS Same-Spin Energy      =      -0.2121036249328465 [Eh]
	 SCS Opposite-Spin Energy  =      -2.3649134016742956 [Eh]
	 SCS Correlation Energy    =      -2.5770170266071424 [Eh]
	 SCS Total Energy          =    -573.0757653488429924 [Eh]
	-----------------------------------------------------------

  Dipole Moment: [D]
     X:     2.1077      Y:     1.8294      Z:     0.1775     Total:     2.7966

*** Psi4 exiting successfully. Buy a developer a beer!
