                               Psi4 1.4a3.dev225

  ==> Input File <==

--------------------------------------------------------------------------
#psi4
#
memory 32 gb

molecule  {
0 1
  N       -0.4914050     1.0723760    -0.3164170
  N        1.0085960    -0.7184190    -0.0133500
  C       -1.6976117     0.3780882    -0.1179706
  C        0.8049200     0.5981430    -0.1551110
  C        3.4026260    -0.3179870     0.1123840
  C        1.8688800     1.5249980    -0.1805650
  C        3.1641670     1.0570110    -0.0435420
  C       -2.8187550     1.1723340     0.2577460
  C       -1.8866400    -0.9712620    -0.3801370
  C        2.2803750    -1.1431010     0.1169750
  C        4.7931030    -0.8701860     0.2621020
  C       -4.0754850     0.5909990     0.4048790
  C       -3.1483220    -1.5428300    -0.2100850
  C       -4.2492880    -0.7746780     0.1720620
  H       -0.5683120     2.0807040    -0.2404560
  H        1.6730390     2.5885970    -0.3025930
  H        3.9969070     1.7590030    -0.0564670
  H       -2.6877930     2.2355590     0.4578160
  H       -1.0395640    -1.5738120    -0.6782690
  H        2.3962560    -2.2212150     0.2333330
  H        5.4095350    -0.6367030    -0.6119800
  H        5.2936270    -0.4518060     1.1412500
  H        4.7686350    -1.9575490     0.3752240
  H       -4.9184630     1.2095470     0.7042290
  H       -3.2707080    -2.6065070    -0.4021260
  H       -5.2268190    -1.2338160     0.2940590
units angstrom
no_reorient  #important for SAPT in psi4, default
symmetry c1  #important for SAPT in psi4, default
}

set PROPERTIES_ORIGIN ["COM"]
properties('MP2/aug-cc-pvtz', properties = ['dipole'])
--------------------------------------------------------------------------

    Molecular point group: c1
  Charge       = 0
  Multiplicity = 1
  Basis Set: AUG-CC-PVTZ
    Blend: AUG-CC-PVTZ
  Basis Set: (AUG-CC-PVTZ AUX)
    Blend: AUG-CC-PVTZ-JKFIT

    Orbital Energies [Eh]
    ---------------------

    Doubly Occupied:

       1A    -15.589326     2A    -15.553647     3A    -11.322411
       4A    -11.280940     5A    -11.272732     6A    -11.258359
       7A    -11.238686     8A    -11.235224     9A    -11.233683
      10A    -11.230682    11A    -11.230468    12A    -11.228878
      13A    -11.221444    14A    -11.216402    15A     -1.293279
      16A     -1.219869    17A     -1.132611    18A     -1.096863
      19A     -1.045633    20A     -1.008432    21A     -0.992712
      22A     -0.934818    23A     -0.868548    24A     -0.840638
      25A     -0.822220    26A     -0.797091    27A     -0.722831
      28A     -0.716308    29A     -0.670715    30A     -0.653282
      31A     -0.637197    32A     -0.620913    33A     -0.596939
      34A     -0.593708    35A     -0.587568    36A     -0.578885
      37A     -0.569497    38A     -0.562721    39A     -0.546740
      40A     -0.519057    41A     -0.510967    42A     -0.504334
      43A     -0.486937    44A     -0.454048    45A     -0.414116
      46A     -0.381334    47A     -0.335654    48A     -0.331326
      49A     -0.276962

  @DF-RHF Final Energy:  -570.49819240045281

   => Energetics <=

    Nuclear Repulsion Energy =            790.8623815427331465
    One-Electron Energy =               -2341.8458789949850143
    Two-Electron Energy =                 980.4853050517990596
    Total Energy =                       -570.4981924004528082
  Basis Set: (AUG-CC-PVTZ AUX)
    Blend: AUG-CC-PVTZ-RI
    Molecular point group: c1

    Geometry (in Angstrom), charge = 0, multiplicity = 1:

       Center              X                  Y                   Z               Mass
    ------------   -----------------  -----------------  -----------------  -----------------
         N           -0.460822861085     1.069331373668    -0.311899181148    14.003074004430
         N            1.039178138915    -0.721463626332    -0.008832181148    14.003074004430
         C           -1.667029561085     0.375043573668    -0.113452781148    12.000000000000
         C            0.835502138915     0.595098373668    -0.150593181148    12.000000000000
         C            3.433208138915    -0.321031626332     0.116901818852    12.000000000000
         C            1.899462138915     1.521953373668    -0.176047181148    12.000000000000
         C            3.194749138915     1.053966373668    -0.039024181148    12.000000000000
         C           -2.788172861085     1.169289373668     0.262263818852    12.000000000000
         C           -1.856057861085    -0.974306626332    -0.375619181148    12.000000000000
         C            2.310957138915    -1.146145626332     0.121492818852    12.000000000000
         C            4.823685138915    -0.873230626332     0.266619818852    12.000000000000
         C           -4.044902861085     0.587954373668     0.409396818852    12.000000000000
         C           -3.117739861085    -1.545874626332    -0.205567181148    12.000000000000
         C           -4.218705861085    -0.777722626332     0.176579818852    12.000000000000
         H           -0.537729861085     2.077659373668    -0.235938181148     1.007825032230
         H            1.703621138915     2.585552373668    -0.298075181148     1.007825032230
         H            4.027489138915     1.755958373668    -0.051949181148     1.007825032230
         H           -2.657210861085     2.232514373668     0.462333818852     1.007825032230
         H           -1.008981861085    -1.576856626332    -0.673751181148     1.007825032230
         H            2.426838138915    -2.224259626332     0.237850818852     1.007825032230
         H            5.440117138915    -0.639747626332    -0.607462181148     1.007825032230
         H            5.324209138915    -0.454850626332     1.145767818852     1.007825032230
         H            4.799217138915    -1.960593626332     0.379741818852     1.007825032230
         H           -4.887880861085     1.206502373668     0.708746818852     1.007825032230
         H           -3.240125861085    -2.609551626332    -0.397608181148     1.007825032230
         H           -5.196236861085    -1.236860626332     0.298576818852     1.007825032230

  Basis Set: AUG-CC-PVTZ
    Blend: AUG-CC-PVTZ
  Basis Set: (AUG-CC-PVTZ AUX)
    Blend: AUG-CC-PVTZ-JKFIT
	 Reference Energy          =    -570.4981924004528082 [Eh]
	 Singles Energy            =      -0.0000000000000000 [Eh]
	 Same-Spin Energy          =      -0.6364129572737839 [Eh]
	 Opposite-Spin Energy      =      -1.9709545954924299 [Eh]
	 Correlation Energy        =      -2.6073675527662137 [Eh]
	 Total Energy              =    -573.1055599532189717 [Eh]

	 ================> DF-SCS-MP2 Energies <==================
	-----------------------------------------------------------
	 SCS Same-Spin Scale       =       0.3333333333333333 [-]
	 SCS Opposite-Spin Scale   =       1.2000000000000000 [-]
	 SCS Same-Spin Energy      =      -0.2121376524245946 [Eh]
	 SCS Opposite-Spin Energy  =      -2.3651455145909157 [Eh]
	 SCS Correlation Energy    =      -2.5772831670155103 [Eh]
	 SCS Total Energy          =    -573.0754755674682883 [Eh]
	-----------------------------------------------------------

  Dipole Moment: [D]
     X:     1.8628      Y:     1.8568      Z:     0.1613     Total:     2.6352

*** Psi4 exiting successfully. Buy a developer a beer!
