                               Psi4 1.4a3.dev225

  ==> Input File <==

--------------------------------------------------------------------------
#psi4
#
memory 32 gb

molecule  {
0 1
  N       -0.4914050     1.0723760    -0.3164170
  N        1.0545963    -0.7102534    -0.0113189
  C       -1.7100270     0.3982770    -0.1243180
  C        0.8049200     0.5981430    -0.1551110
  C        3.4026260    -0.3179870     0.1123840
  C        1.8688800     1.5249980    -0.1805650
  C        3.1641670     1.0570110    -0.0435420
  C       -2.8187550     1.1723340     0.2577460
  C       -1.8866400    -0.9712620    -0.3801370
  C        2.2803750    -1.1431010     0.1169750
  C        4.7931030    -0.8701860     0.2621020
  C       -4.0754850     0.5909990     0.4048790
  C       -3.1483220    -1.5428300    -0.2100850
  C       -4.2492880    -0.7746780     0.1720620
  H       -0.5683120     2.0807040    -0.2404560
  H        1.6730390     2.5885970    -0.3025930
  H        3.9969070     1.7590030    -0.0564670
  H       -2.6877930     2.2355590     0.4578160
  H       -1.0395640    -1.5738120    -0.6782690
  H        2.3962560    -2.2212150     0.2333330
  H        5.4095350    -0.6367030    -0.6119800
  H        5.2936270    -0.4518060     1.1412500
  H        4.7686350    -1.9575490     0.3752240
  H       -4.9184630     1.2095470     0.7042290
  H       -3.2707080    -2.6065070    -0.4021260
  H       -5.2268190    -1.2338160     0.2940590
units angstrom
no_reorient  #important for SAPT in psi4, default
symmetry c1  #important for SAPT in psi4, default
}

set PROPERTIES_ORIGIN ["COM"]
properties('MP2/aug-cc-pvtz', properties = ['dipole'])
--------------------------------------------------------------------------

    Molecular point group: c1
  Charge       = 0
  Multiplicity = 1
  Basis Set: AUG-CC-PVTZ
    Blend: AUG-CC-PVTZ
  Basis Set: (AUG-CC-PVTZ AUX)
    Blend: AUG-CC-PVTZ-JKFIT

    Orbital Energies [Eh]
    ---------------------

    Doubly Occupied:

       1A    -15.590670     2A    -15.549424     3A    -11.323351
       4A    -11.281899     5A    -11.268258     6A    -11.255838
       7A    -11.237252     8A    -11.234554     9A    -11.233030
      10A    -11.231316    11A    -11.229269    12A    -11.227448
      13A    -11.222128    14A    -11.219654    15A     -1.295933
      16A     -1.228172    17A     -1.134090    18A     -1.095290
      19A     -1.047208    20A     -1.008936    21A     -0.993330
      22A     -0.936146    23A     -0.866370    24A     -0.842620
      25A     -0.822228    26A     -0.800444    27A     -0.725598
      28A     -0.716902    29A     -0.671186    30A     -0.656312
      31A     -0.636152    32A     -0.621765    33A     -0.597362
      34A     -0.594752    35A     -0.589613    36A     -0.580181
      37A     -0.569364    38A     -0.563866    39A     -0.546248
      40A     -0.519231    41A     -0.513089    42A     -0.505180
      43A     -0.488052    44A     -0.456282    45A     -0.407067
      46A     -0.383397    47A     -0.336301    48A     -0.331256
      49A     -0.275986

  @DF-RHF Final Energy:  -570.49906489563080

   => Energetics <=

    Nuclear Repulsion Energy =            791.2479447466606644
    One-Electron Energy =               -2342.5740218785781508
    Two-Electron Energy =                 980.8270122362865777
    Total Energy =                       -570.4990648956307950
  Basis Set: (AUG-CC-PVTZ AUX)
    Blend: AUG-CC-PVTZ-RI
    Molecular point group: c1

    Geometry (in Angstrom), charge = 0, multiplicity = 1:

       Center              X                  Y                   Z               Mass
    ------------   -----------------  -----------------  -----------------  -----------------
         N           -0.463512496473     1.067394333976    -0.311639935391    14.003074004430
         N            1.082488803527    -0.715235066024    -0.006541835391    14.003074004430
         C           -1.682134496473     0.393295333976    -0.119540935391    12.000000000000
         C            0.832812503527     0.593161333976    -0.150333935391    12.000000000000
         C            3.430518503527    -0.322968666024     0.117161064609    12.000000000000
         C            1.896772503527     1.520016333976    -0.175787935391    12.000000000000
         C            3.192059503527     1.052029333976    -0.038764935391    12.000000000000
         C           -2.790862496473     1.167352333976     0.262523064609    12.000000000000
         C           -1.858747496473    -0.976243666024    -0.375359935391    12.000000000000
         C            2.308267503527    -1.148082666024     0.121752064609    12.000000000000
         C            4.820995503527    -0.875167666024     0.266879064609    12.000000000000
         C           -4.047592496473     0.586017333976     0.409656064609    12.000000000000
         C           -3.120429496473    -1.547811666024    -0.205307935391    12.000000000000
         C           -4.221395496473    -0.779659666024     0.176839064609    12.000000000000
         H           -0.540419496473     2.075722333976    -0.235678935391     1.007825032230
         H            1.700931503527     2.583615333976    -0.297815935391     1.007825032230
         H            4.024799503527     1.754021333976    -0.051689935391     1.007825032230
         H           -2.659900496473     2.230577333976     0.462593064609     1.007825032230
         H           -1.011671496473    -1.578793666024    -0.673491935391     1.007825032230
         H            2.424148503527    -2.226196666024     0.238110064609     1.007825032230
         H            5.437427503527    -0.641684666024    -0.607202935391     1.007825032230
         H            5.321519503527    -0.456787666024     1.146027064609     1.007825032230
         H            4.796527503527    -1.962530666024     0.380001064609     1.007825032230
         H           -4.890570496473     1.204565333976     0.709006064609     1.007825032230
         H           -3.242815496473    -2.611488666024    -0.397348935391     1.007825032230
         H           -5.198926496473    -1.238797666024     0.298836064609     1.007825032230

  Basis Set: AUG-CC-PVTZ
    Blend: AUG-CC-PVTZ
  Basis Set: (AUG-CC-PVTZ AUX)
    Blend: AUG-CC-PVTZ-JKFIT
	 Reference Energy          =    -570.4990648956307950 [Eh]
	 Singles Energy            =      -0.0000000000000000 [Eh]
	 Same-Spin Energy          =      -0.6362440693676608 [Eh]
	 Opposite-Spin Energy      =      -1.9696802576919774 [Eh]
	 Correlation Energy        =      -2.6059243270596379 [Eh]
	 Total Energy              =    -573.1049892226903921 [Eh]

	 ================> DF-SCS-MP2 Energies <==================
	-----------------------------------------------------------
	 SCS Same-Spin Scale       =       0.3333333333333333 [-]
	 SCS Opposite-Spin Scale   =       1.2000000000000000 [-]
	 SCS Same-Spin Energy      =      -0.2120813564558869 [Eh]
	 SCS Opposite-Spin Energy  =      -2.3636163092303728 [Eh]
	 SCS Correlation Energy    =      -2.5756976656862598 [Eh]
	 SCS Total Energy          =    -573.0747625613170158 [Eh]
	-----------------------------------------------------------

  Dipole Moment: [D]
     X:     1.7203      Y:     1.8211      Z:     0.1595     Total:     2.5102

*** Psi4 exiting successfully. Buy a developer a beer!
