                               Psi4 1.4a3.dev225

  ==> Input File <==

--------------------------------------------------------------------------
#psi4
#
memory 32 gb

molecule  {
0 1
  N       -0.4914050     1.0723760    -0.3164170
  N        1.0085960    -0.7184190    -0.0133500
  C       -1.7100270     0.3982770    -0.1243180
  C        0.8049200     0.5981430    -0.1551110
  C        3.4026260    -0.3179870     0.1123840
  C        1.8688800     1.5249980    -0.1805650
  C        3.1641670     1.0570110    -0.0435420
  C       -2.8187550     1.1723340     0.2577460
  C       -1.8866400    -0.9712620    -0.3801370
  C        2.2803750    -1.1431010     0.1169750
  C        4.7931030    -0.8701860     0.2621020
  C       -4.0303590     0.6118733     0.3995958
  C       -3.1483220    -1.5428300    -0.2100850
  C       -4.2492880    -0.7746780     0.1720620
  H       -0.5683120     2.0807040    -0.2404560
  H        1.6730390     2.5885970    -0.3025930
  H        3.9969070     1.7590030    -0.0564670
  H       -2.6877930     2.2355590     0.4578160
  H       -1.0395640    -1.5738120    -0.6782690
  H        2.3962560    -2.2212150     0.2333330
  H        5.4095350    -0.6367030    -0.6119800
  H        5.2936270    -0.4518060     1.1412500
  H        4.7686350    -1.9575490     0.3752240
  H       -4.9184630     1.2095470     0.7042290
  H       -3.2707080    -2.6065070    -0.4021260
  H       -5.2268190    -1.2338160     0.2940590
units angstrom
no_reorient  #important for SAPT in psi4, default
symmetry c1  #important for SAPT in psi4, default
}

set PROPERTIES_ORIGIN ["COM"]
properties('MP2/aug-cc-pvtz', properties = ['dipole'])
--------------------------------------------------------------------------

    Molecular point group: c1
  Charge       = 0
  Multiplicity = 1
  Basis Set: AUG-CC-PVTZ
    Blend: AUG-CC-PVTZ
  Basis Set: (AUG-CC-PVTZ AUX)
    Blend: AUG-CC-PVTZ-JKFIT

    Orbital Energies [Eh]
    ---------------------

    Doubly Occupied:

       1A    -15.589687     2A    -15.553821     3A    -11.323057
       4A    -11.281064     5A    -11.272794     6A    -11.258499
       7A    -11.239039     8A    -11.235450     9A    -11.232897
      10A    -11.229716    11A    -11.229001    12A    -11.224221
      13A    -11.222843    14A    -11.216747    15A     -1.293356
      16A     -1.220552    17A     -1.135359    18A     -1.097030
      19A     -1.045400    20A     -1.014003    21A     -0.990232
      22A     -0.935256    23A     -0.868642    24A     -0.841740
      25A     -0.818723    26A     -0.798691    27A     -0.722917
      28A     -0.715654    29A     -0.671416    30A     -0.653217
      31A     -0.636839    32A     -0.622171    33A     -0.595563
      34A     -0.589351    35A     -0.588182    36A     -0.582718
      37A     -0.569355    38A     -0.561905    39A     -0.546956
      40A     -0.520961    41A     -0.512842    42A     -0.507568
      43A     -0.479358    44A     -0.454199    45A     -0.414350
      46A     -0.381455    47A     -0.339093    48A     -0.332307
      49A     -0.275323

  @DF-RHF Final Energy:  -570.49588004919860

   => Energetics <=

    Nuclear Repulsion Energy =            791.4222292347113807
    One-Electron Energy =               -2342.9531701308983429
    Two-Electron Energy =                 981.0350608469884719
    Total Energy =                       -570.4958800491986040
  Basis Set: (AUG-CC-PVTZ AUX)
    Blend: AUG-CC-PVTZ-RI
    Molecular point group: c1

    Geometry (in Angstrom), charge = 0, multiplicity = 1:

       Center              X                  Y                   Z               Mass
    ------------   -----------------  -----------------  -----------------  -----------------
         N           -0.462955008270     1.066654800771    -0.311141075970    14.003074004430
         N            1.037045991730    -0.724140199229    -0.008074075970    14.003074004430
         C           -1.681577008270     0.392555800771    -0.119042075970    12.000000000000
         C            0.833369991730     0.592421800771    -0.149835075970    12.000000000000
         C            3.431075991730    -0.323708199229     0.117659924030    12.000000000000
         C            1.897329991730     1.519276800771    -0.175289075970    12.000000000000
         C            3.192616991730     1.051289800771    -0.038266075970    12.000000000000
         C           -2.790305008270     1.166612800771     0.263021924030    12.000000000000
         C           -1.858190008270    -0.976983199229    -0.374861075970    12.000000000000
         C            2.308824991730    -1.148822199229     0.122250924030    12.000000000000
         C            4.821552991730    -0.875907199229     0.267377924030    12.000000000000
         C           -4.001909008270     0.606152100771     0.404871724030    12.000000000000
         C           -3.119872008270    -1.548551199229    -0.204809075970    12.000000000000
         C           -4.220838008270    -0.780399199229     0.177337924030    12.000000000000
         H           -0.539862008270     2.074982800771    -0.235180075970     1.007825032230
         H            1.701488991730     2.582875800771    -0.297317075970     1.007825032230
         H            4.025356991730     1.753281800771    -0.051191075970     1.007825032230
         H           -2.659343008270     2.229837800771     0.463091924030     1.007825032230
         H           -1.011114008270    -1.579533199229    -0.672993075970     1.007825032230
         H            2.424705991730    -2.226936199229     0.238608924030     1.007825032230
         H            5.437984991730    -0.642424199229    -0.606704075970     1.007825032230
         H            5.322076991730    -0.457527199229     1.146525924030     1.007825032230
         H            4.797084991730    -1.963270199229     0.380499924030     1.007825032230
         H           -4.890013008270     1.203825800771     0.709504924030     1.007825032230
         H           -3.242258008270    -2.612228199229    -0.396850075970     1.007825032230
         H           -5.198369008270    -1.239537199229     0.299334924030     1.007825032230

  Basis Set: AUG-CC-PVTZ
    Blend: AUG-CC-PVTZ
  Basis Set: (AUG-CC-PVTZ AUX)
    Blend: AUG-CC-PVTZ-JKFIT
	 Reference Energy          =    -570.4958800491986040 [Eh]
	 Singles Energy            =      -0.0000000000000000 [Eh]
	 Same-Spin Energy          =      -0.6364069585425648 [Eh]
	 Opposite-Spin Energy      =      -1.9708944465775995 [Eh]
	 Correlation Energy        =      -2.6073014051201642 [Eh]
	 Total Energy              =    -573.1031814543188148 [Eh]

	 ================> DF-SCS-MP2 Energies <==================
	-----------------------------------------------------------
	 SCS Same-Spin Scale       =       0.3333333333333333 [-]
	 SCS Opposite-Spin Scale   =       1.2000000000000000 [-]
	 SCS Same-Spin Energy      =      -0.2121356528475216 [Eh]
	 SCS Opposite-Spin Energy  =      -2.3650733358931193 [Eh]
	 SCS Correlation Energy    =      -2.5772089887406411 [Eh]
	 SCS Total Energy          =    -573.0730890379392122 [Eh]
	-----------------------------------------------------------

  Dipole Moment: [D]
     X:     1.8909      Y:     1.8662      Z:     0.1632     Total:     2.6617

*** Psi4 exiting successfully. Buy a developer a beer!
