                               Psi4 1.4a3.dev225

  ==> Input File <==

--------------------------------------------------------------------------
#psi4
#
memory 32 gb

molecule  {
0 1
  N       -0.4914050     1.0723760    -0.3164170
  N        1.0085960    -0.7184190    -0.0133500
  C       -1.7100270     0.3982770    -0.1243180
  C        0.8049200     0.5981430    -0.1551110
  C        3.4026260    -0.3179870     0.1123840
  C        1.8688800     1.5249980    -0.1805650
  C        3.1641670     1.0570110    -0.0435420
  C       -2.8187550     1.1723340     0.2577460
  C       -1.8740641    -0.8737426    -0.3619212
  C        2.2803750    -1.1431010     0.1169750
  C        4.7931030    -0.8701860     0.2621020
  C       -4.0754850     0.5909990     0.4048790
  C       -3.1483220    -1.5428300    -0.2100850
  C       -4.2492880    -0.7746780     0.1720620
  H       -0.5683120     2.0807040    -0.2404560
  H        1.6730390     2.5885970    -0.3025930
  H        3.9969070     1.7590030    -0.0564670
  H       -2.6877930     2.2355590     0.4578160
  H       -1.0395640    -1.5738120    -0.6782690
  H        2.3962560    -2.2212150     0.2333330
  H        5.4095350    -0.6367030    -0.6119800
  H        5.2936270    -0.4518060     1.1412500
  H        4.7686350    -1.9575490     0.3752240
  H       -4.9184630     1.2095470     0.7042290
  H       -3.2707080    -2.6065070    -0.4021260
  H       -5.2268190    -1.2338160     0.2940590
units angstrom
no_reorient  #important for SAPT in psi4, default
symmetry c1  #important for SAPT in psi4, default
}

set PROPERTIES_ORIGIN ["COM"]
properties('MP2/aug-cc-pvtz', properties = ['dipole'])
--------------------------------------------------------------------------

    Molecular point group: c1
  Charge       = 0
  Multiplicity = 1
  Basis Set: AUG-CC-PVTZ
    Blend: AUG-CC-PVTZ
  Basis Set: (AUG-CC-PVTZ AUX)
    Blend: AUG-CC-PVTZ-JKFIT

    Orbital Energies [Eh]
    ---------------------

    Doubly Occupied:

       1A    -15.585499     2A    -15.551588     3A    -11.321518
       4A    -11.271307     5A    -11.267196     6A    -11.257139
       7A    -11.237360     8A    -11.236293     9A    -11.234029
      10A    -11.233861    11A    -11.231106    12A    -11.227970
      13A    -11.223335    14A    -11.214484    15A     -1.292225
      16A     -1.220567    17A     -1.136604    18A     -1.095547
      19A     -1.046375    20A     -1.006412    21A     -0.997872
      22A     -0.934881    23A     -0.866638    24A     -0.842485
      25A     -0.826361    26A     -0.792976    27A     -0.721597
      28A     -0.717216    29A     -0.667251    30A     -0.652286
      31A     -0.635386    32A     -0.620091    33A     -0.604450
      34A     -0.593957    35A     -0.587837    36A     -0.572985
      37A     -0.569002    38A     -0.559574    39A     -0.545688
      40A     -0.516604    41A     -0.512779    42A     -0.506154
      43A     -0.484214    44A     -0.452710    45A     -0.409288
      46A     -0.379916    47A     -0.341890    48A     -0.325254
      49A     -0.281506

  @DF-RHF Final Energy:  -570.48593371735251

   => Energetics <=

    Nuclear Repulsion Energy =            792.2306428833279597
    One-Electron Energy =               -2344.6146243135667646
    Two-Electron Energy =                 981.8980477128861821
    Total Energy =                       -570.4859337173525091
  Basis Set: (AUG-CC-PVTZ AUX)
    Blend: AUG-CC-PVTZ-RI
    Molecular point group: c1

    Geometry (in Angstrom), charge = 0, multiplicity = 1:

       Center              X                  Y                   Z               Mass
    ------------   -----------------  -----------------  -----------------  -----------------
         N           -0.460833329306     1.061658923757    -0.312672786594    14.003074004430
         N            1.039167670694    -0.729136076243    -0.009605786594    14.003074004430
         C           -1.679455329306     0.387559923757    -0.120573786594    12.000000000000
         C            0.835491670694     0.587425923757    -0.151366786594    12.000000000000
         C            3.433197670694    -0.328704076243     0.116128213406    12.000000000000
         C            1.899451670694     1.514280923757    -0.176820786594    12.000000000000
         C            3.194738670694     1.046293923757    -0.039797786594    12.000000000000
         C           -2.788183329306     1.161616923757     0.261490213406    12.000000000000
         C           -1.843492429306    -0.884459676243    -0.358176986594    12.000000000000
         C            2.310946670694    -1.153818076243     0.120719213406    12.000000000000
         C            4.823674670694    -0.880903076243     0.265846213406    12.000000000000
         C           -4.044913329306     0.580281923757     0.408623213406    12.000000000000
         C           -3.117750329306    -1.553547076243    -0.206340786594    12.000000000000
         C           -4.218716329306    -0.785395076243     0.175806213406    12.000000000000
         H           -0.537740329306     2.069986923757    -0.236711786594     1.007825032230
         H            1.703610670694     2.577879923757    -0.298848786594     1.007825032230
         H            4.027478670694     1.748285923757    -0.052722786594     1.007825032230
         H           -2.657221329306     2.224841923757     0.461560213406     1.007825032230
         H           -1.008992329306    -1.584529076243    -0.674524786594     1.007825032230
         H            2.426827670694    -2.231932076243     0.237077213406     1.007825032230
         H            5.440106670694    -0.647420076243    -0.608235786594     1.007825032230
         H            5.324198670694    -0.462523076243     1.144994213406     1.007825032230
         H            4.799206670694    -1.968266076243     0.378968213406     1.007825032230
         H           -4.887891329306     1.198829923757     0.707973213406     1.007825032230
         H           -3.240136329306    -2.617224076243    -0.398381786594     1.007825032230
         H           -5.196247329306    -1.244533076243     0.297803213406     1.007825032230

  Basis Set: AUG-CC-PVTZ
    Blend: AUG-CC-PVTZ
  Basis Set: (AUG-CC-PVTZ AUX)
    Blend: AUG-CC-PVTZ-JKFIT
	 Reference Energy          =    -570.4859337173525091 [Eh]
	 Singles Energy            =      -0.0000000000000000 [Eh]
	 Same-Spin Energy          =      -0.6362849095519979 [Eh]
	 Opposite-Spin Energy      =      -1.9712263472293452 [Eh]
	 Correlation Energy        =      -2.6075112567813430 [Eh]
	 Total Energy              =    -573.0934449741338312 [Eh]

	 ================> DF-SCS-MP2 Energies <==================
	-----------------------------------------------------------
	 SCS Same-Spin Scale       =       0.3333333333333333 [-]
	 SCS Opposite-Spin Scale   =       1.2000000000000000 [-]
	 SCS Same-Spin Energy      =      -0.2120949698506659 [Eh]
	 SCS Opposite-Spin Energy  =      -2.3654716166752143 [Eh]
	 SCS Correlation Energy    =      -2.5775665865258803 [Eh]
	 SCS Total Energy          =    -573.0635003038784134 [Eh]
	-----------------------------------------------------------

  Dipole Moment: [D]
     X:     1.6684      Y:     1.7845      Z:     0.1777     Total:     2.4494

*** Psi4 exiting successfully. Buy a developer a beer!
