                               Psi4 1.4a3.dev225

  ==> Input File <==

--------------------------------------------------------------------------
#psi4
#
memory 32 gb

molecule  {
0 1
  N       -0.4914050     1.0723760    -0.3164170
  N        1.0085960    -0.7184190    -0.0133500
  C       -1.7337403     0.4392643    -0.1371864
  C        0.8049200     0.5981430    -0.1551110
  C        3.4026260    -0.3179870     0.1123840
  C        1.8688800     1.5249980    -0.1805650
  C        3.1641670     1.0570110    -0.0435420
  C       -2.8187550     1.1723340     0.2577460
  C       -1.8866400    -0.9712620    -0.3801370
  C        2.2803750    -1.1431010     0.1169750
  C        4.7931030    -0.8701860     0.2621020
  C       -4.0754850     0.5909990     0.4048790
  C       -3.1483220    -1.5428300    -0.2100850
  C       -4.2492880    -0.7746780     0.1720620
  H       -0.5683120     2.0807040    -0.2404560
  H        1.6730390     2.5885970    -0.3025930
  H        3.9969070     1.7590030    -0.0564670
  H       -2.6877930     2.2355590     0.4578160
  H       -1.0395640    -1.5738120    -0.6782690
  H        2.3962560    -2.2212150     0.2333330
  H        5.4095350    -0.6367030    -0.6119800
  H        5.2936270    -0.4518060     1.1412500
  H        4.7686350    -1.9575490     0.3752240
  H       -4.9184630     1.2095470     0.7042290
  H       -3.2707080    -2.6065070    -0.4021260
  H       -5.2268190    -1.2338160     0.2940590
units angstrom
no_reorient  #important for SAPT in psi4, default
symmetry c1  #important for SAPT in psi4, default
}

set PROPERTIES_ORIGIN ["COM"]
properties('MP2/aug-cc-pvtz', properties = ['dipole'])
--------------------------------------------------------------------------

    Molecular point group: c1
  Charge       = 0
  Multiplicity = 1
  Basis Set: AUG-CC-PVTZ
    Blend: AUG-CC-PVTZ
  Basis Set: (AUG-CC-PVTZ AUX)
    Blend: AUG-CC-PVTZ-JKFIT

    Orbital Energies [Eh]
    ---------------------

    Doubly Occupied:

       1A    -15.588703     2A    -15.553863     3A    -11.324172
       4A    -11.280700     5A    -11.272853     6A    -11.258601
       7A    -11.239163     8A    -11.235431     9A    -11.233829
      10A    -11.229496    11A    -11.229005    12A    -11.224626
      13A    -11.222348    14A    -11.221645    15A     -1.292821
      16A     -1.220619    17A     -1.133379    18A     -1.097095
      19A     -1.046730    20A     -1.009112    21A     -0.992148
      22A     -0.935076    23A     -0.868472    24A     -0.842406
      25A     -0.819422    26A     -0.799011    27A     -0.725559
      28A     -0.713884    29A     -0.670763    30A     -0.653272
      31A     -0.637202    32A     -0.621827    33A     -0.596180
      34A     -0.592259    35A     -0.588268    36A     -0.580313
      37A     -0.569088    38A     -0.562468    39A     -0.546840
      40A     -0.519416    41A     -0.511586    42A     -0.504709
      43A     -0.485832    44A     -0.454119    45A     -0.414822
      46A     -0.381558    47A     -0.340115    48A     -0.327593
      49A     -0.276870

  @DF-RHF Final Energy:  -570.49666084456715

   => Energetics <=

    Nuclear Repulsion Energy =            790.5732502878440755
    One-Electron Energy =               -2341.2492834980648695
    Two-Electron Energy =                 980.1793723656536486
    Total Energy =                       -570.4966608445671454
  Basis Set: (AUG-CC-PVTZ AUX)
    Blend: AUG-CC-PVTZ-RI
    Molecular point group: c1

    Geometry (in Angstrom), charge = 0, multiplicity = 1:

       Center              X                  Y                   Z               Mass
    ------------   -----------------  -----------------  -----------------  -----------------
         N           -0.458467928516     1.065343796227    -0.310646657849    14.003074004430
         N            1.041533071484    -0.725451203773    -0.007579657849    14.003074004430
         C           -1.700803228516     0.432232096227    -0.131416057849    12.000000000000
         C            0.837857071484     0.591110796227    -0.149340657849    12.000000000000
         C            3.435563071484    -0.325019203773     0.118154342151    12.000000000000
         C            1.901817071484     1.517965796227    -0.174794657849    12.000000000000
         C            3.197104071484     1.049978796227    -0.037771657849    12.000000000000
         C           -2.785817928516     1.165301796227     0.263516342151    12.000000000000
         C           -1.853702928516    -0.978294203773    -0.374366657849    12.000000000000
         C            2.313312071484    -1.150133203773     0.122745342151    12.000000000000
         C            4.826040071484    -0.877218203773     0.267872342151    12.000000000000
         C           -4.042547928516     0.583966796227     0.410649342151    12.000000000000
         C           -3.115384928516    -1.549862203773    -0.204314657849    12.000000000000
         C           -4.216350928516    -0.781710203773     0.177832342151    12.000000000000
         H           -0.535374928516     2.073671796227    -0.234685657849     1.007825032230
         H            1.705976071484     2.581564796227    -0.296822657849     1.007825032230
         H            4.029844071484     1.751970796227    -0.050696657849     1.007825032230
         H           -2.654855928516     2.228526796227     0.463586342151     1.007825032230
         H           -1.006626928516    -1.580844203773    -0.672498657849     1.007825032230
         H            2.429193071484    -2.228247203773     0.239103342151     1.007825032230
         H            5.442472071484    -0.643735203773    -0.606209657849     1.007825032230
         H            5.326564071484    -0.458838203773     1.147020342151     1.007825032230
         H            4.801572071484    -1.964581203773     0.380994342151     1.007825032230
         H           -4.885525928516     1.202514796227     0.709999342151     1.007825032230
         H           -3.237770928516    -2.613539203773    -0.396355657849     1.007825032230
         H           -5.193881928516    -1.240848203773     0.299829342151     1.007825032230

  Basis Set: AUG-CC-PVTZ
    Blend: AUG-CC-PVTZ
  Basis Set: (AUG-CC-PVTZ AUX)
    Blend: AUG-CC-PVTZ-JKFIT
	 Reference Energy          =    -570.4966608445671454 [Eh]
	 Singles Energy            =      -0.0000000000000000 [Eh]
	 Same-Spin Energy          =      -0.6363561393658206 [Eh]
	 Opposite-Spin Energy      =      -1.9709630694103828 [Eh]
	 Correlation Energy        =      -2.6073192087762034 [Eh]
	 Total Energy              =    -573.1039800533433208 [Eh]

	 ================> DF-SCS-MP2 Energies <==================
	-----------------------------------------------------------
	 SCS Same-Spin Scale       =       0.3333333333333333 [-]
	 SCS Opposite-Spin Scale   =       1.2000000000000000 [-]
	 SCS Same-Spin Energy      =      -0.2121187131219402 [Eh]
	 SCS Opposite-Spin Energy  =      -2.3651556832924592 [Eh]
	 SCS Correlation Energy    =      -2.5772743964143991 [Eh]
	 SCS Total Energy          =    -573.0739352409815410 [Eh]
	-----------------------------------------------------------

  Dipole Moment: [D]
     X:     1.8829      Y:     1.8458      Z:     0.1670     Total:     2.6420

*** Psi4 exiting successfully. Buy a developer a beer!
