                               Psi4 1.4a3.dev225

  ==> Input File <==

--------------------------------------------------------------------------
#psi4
#
memory 32 gb

molecule  {
0 1
  N       -0.4914050     1.0723760    -0.3164170
  N        1.0085960    -0.7184190    -0.0133500
  C       -1.7967106     0.3503267    -0.1106535
  C        0.8049200     0.5981430    -0.1551110
  C        3.4026260    -0.3179870     0.1123840
  C        1.8688800     1.5249980    -0.1805650
  C        3.1641670     1.0570110    -0.0435420
  C       -2.8187550     1.1723340     0.2577460
  C       -1.8866400    -0.9712620    -0.3801370
  C        2.2803750    -1.1431010     0.1169750
  C        4.7931030    -0.8701860     0.2621020
  C       -4.0754850     0.5909990     0.4048790
  C       -3.1483220    -1.5428300    -0.2100850
  C       -4.2492880    -0.7746780     0.1720620
  H       -0.5683120     2.0807040    -0.2404560
  H        1.6730390     2.5885970    -0.3025930
  H        3.9969070     1.7590030    -0.0564670
  H       -2.6877930     2.2355590     0.4578160
  H       -1.0395640    -1.5738120    -0.6782690
  H        2.3962560    -2.2212150     0.2333330
  H        5.4095350    -0.6367030    -0.6119800
  H        5.2936270    -0.4518060     1.1412500
  H        4.7686350    -1.9575490     0.3752240
  H       -4.9184630     1.2095470     0.7042290
  H       -3.2707080    -2.6065070    -0.4021260
  H       -5.2268190    -1.2338160     0.2940590
units angstrom
no_reorient  #important for SAPT in psi4, default
symmetry c1  #important for SAPT in psi4, default
}

set PROPERTIES_ORIGIN ["COM"]
properties('MP2/aug-cc-pvtz', properties = ['dipole'])
--------------------------------------------------------------------------

    Molecular point group: c1
  Charge       = 0
  Multiplicity = 1
  Basis Set: AUG-CC-PVTZ
    Blend: AUG-CC-PVTZ
  Basis Set: (AUG-CC-PVTZ AUX)
    Blend: AUG-CC-PVTZ-JKFIT

    Orbital Energies [Eh]
    ---------------------

    Doubly Occupied:

       1A    -15.579407     2A    -15.547822     3A    -11.317267
       4A    -11.278451     5A    -11.268709     6A    -11.254221
       7A    -11.237797     8A    -11.234571     9A    -11.233078
      10A    -11.230424    11A    -11.229977    12A    -11.226996
      13A    -11.225627    14A    -11.218591    15A     -1.278490
      16A     -1.205907    17A     -1.143993    18A     -1.092178
      19A     -1.039609    20A     -1.019451    21A     -0.998649
      22A     -0.929717    23A     -0.861394    24A     -0.840455
      25A     -0.822782    26A     -0.798764    27A     -0.717453
      28A     -0.709805    29A     -0.668435    30A     -0.646578
      31A     -0.631823    32A     -0.626039    33A     -0.601928
      34A     -0.587739    35A     -0.586060    36A     -0.582432
      37A     -0.562954    38A     -0.557529    39A     -0.543265
      40A     -0.516428    41A     -0.513675    42A     -0.501554
      43A     -0.499384    44A     -0.448926    45A     -0.409649
      46A     -0.377262    47A     -0.339605    48A     -0.336386
      49A     -0.281103

  @DF-RHF Final Energy:  -570.48869784118449

   => Energetics <=

    Nuclear Repulsion Energy =            790.6839695850273984
    One-Electron Energy =               -2341.6246576526336867
    Two-Electron Energy =                 980.4519902264217990
    Total Energy =                       -570.4886978411844893
  Basis Set: (AUG-CC-PVTZ AUX)
    Blend: AUG-CC-PVTZ-RI
    Molecular point group: c1

    Geometry (in Angstrom), charge = 0, multiplicity = 1:

       Center              X                  Y                   Z               Mass
    ------------   -----------------  -----------------  -----------------  -----------------
         N           -0.454363401621     1.071140922351    -0.312376123989    14.003074004430
         N            1.045637598379    -0.719654077649    -0.009309123989    14.003074004430
         C           -1.759669001621     0.349091622351    -0.106612623989    12.000000000000
         C            0.841961598379     0.596907922351    -0.151070123989    12.000000000000
         C            3.439667598379    -0.319222077649     0.116424876011    12.000000000000
         C            1.905921598379     1.523762922351    -0.176524123989    12.000000000000
         C            3.201208598379     1.055775922351    -0.039501123989    12.000000000000
         C           -2.781713401621     1.171098922351     0.261786876011    12.000000000000
         C           -1.849598401621    -0.972497077649    -0.376096123989    12.000000000000
         C            2.317416598379    -1.144336077649     0.121015876011    12.000000000000
         C            4.830144598379    -0.871421077649     0.266142876011    12.000000000000
         C           -4.038443401621     0.589763922351     0.408919876011    12.000000000000
         C           -3.111280401621    -1.544065077649    -0.206044123989    12.000000000000
         C           -4.212246401621    -0.775913077649     0.176102876011    12.000000000000
         H           -0.531270401621     2.079468922351    -0.236415123989     1.007825032230
         H            1.710080598379     2.587361922351    -0.298552123989     1.007825032230
         H            4.033948598379     1.757767922351    -0.052426123989     1.007825032230
         H           -2.650751401621     2.234323922351     0.461856876011     1.007825032230
         H           -1.002522401621    -1.575047077649    -0.674228123989     1.007825032230
         H            2.433297598379    -2.222450077649     0.237373876011     1.007825032230
         H            5.446576598379    -0.637938077649    -0.607939123989     1.007825032230
         H            5.330668598379    -0.453041077649     1.145290876011     1.007825032230
         H            4.805676598379    -1.958784077649     0.379264876011     1.007825032230
         H           -4.881421401621     1.208311922351     0.708269876011     1.007825032230
         H           -3.233666401621    -2.607742077649    -0.398085123989     1.007825032230
         H           -5.189777401621    -1.235051077649     0.298099876011     1.007825032230

  Basis Set: AUG-CC-PVTZ
    Blend: AUG-CC-PVTZ
  Basis Set: (AUG-CC-PVTZ AUX)
    Blend: AUG-CC-PVTZ-JKFIT
	 Reference Energy          =    -570.4886978411844893 [Eh]
	 Singles Energy            =      -0.0000000000000000 [Eh]
	 Same-Spin Energy          =      -0.6358946193568964 [Eh]
	 Opposite-Spin Energy      =      -1.9706459209422289 [Eh]
	 Correlation Energy        =      -2.6065405402991253 [Eh]
	 Total Energy              =    -573.0952383814835684 [Eh]

	 ================> DF-SCS-MP2 Energies <==================
	-----------------------------------------------------------
	 SCS Same-Spin Scale       =       0.3333333333333333 [-]
	 SCS Opposite-Spin Scale   =       1.2000000000000000 [-]
	 SCS Same-Spin Energy      =      -0.2119648731189654 [Eh]
	 SCS Opposite-Spin Energy  =      -2.3647751051306747 [Eh]
	 SCS Correlation Energy    =      -2.5767399782496403 [Eh]
	 SCS Total Energy          =    -573.0654378194341234 [Eh]
	-----------------------------------------------------------

  Dipole Moment: [D]
     X:     1.0290      Y:     1.6877      Z:     0.2209     Total:     1.9889

*** Psi4 exiting successfully. Buy a developer a beer!
