                               Psi4 1.4a3.dev225

  ==> Input File <==

--------------------------------------------------------------------------
#psi4
#
memory 32 gb

molecule  {
0 1
  N       -0.4914050     1.0723760    -0.3164170
  N        1.0085960    -0.7184190    -0.0133500
  C       -1.7100270     0.3982770    -0.1243180
  C        0.7504720     0.4647643    -0.1752627
  C        3.4026260    -0.3179870     0.1123840
  C        1.8688800     1.5249980    -0.1805650
  C        3.1641670     1.0570110    -0.0435420
  C       -2.8187550     1.1723340     0.2577460
  C       -1.8866400    -0.9712620    -0.3801370
  C        2.2803750    -1.1431010     0.1169750
  C        4.7931030    -0.8701860     0.2621020
  C       -4.0754850     0.5909990     0.4048790
  C       -3.1483220    -1.5428300    -0.2100850
  C       -4.2492880    -0.7746780     0.1720620
  H       -0.5683120     2.0807040    -0.2404560
  H        1.6730390     2.5885970    -0.3025930
  H        3.9969070     1.7590030    -0.0564670
  H       -2.6877930     2.2355590     0.4578160
  H       -1.0395640    -1.5738120    -0.6782690
  H        2.3962560    -2.2212150     0.2333330
  H        5.4095350    -0.6367030    -0.6119800
  H        5.2936270    -0.4518060     1.1412500
  H        4.7686350    -1.9575490     0.3752240
  H       -4.9184630     1.2095470     0.7042290
  H       -3.2707080    -2.6065070    -0.4021260
  H       -5.2268190    -1.2338160     0.2940590
units angstrom
no_reorient  #important for SAPT in psi4, default
symmetry c1  #important for SAPT in psi4, default
}

set PROPERTIES_ORIGIN ["COM"]
properties('MP2/aug-cc-pvtz', properties = ['dipole'])
--------------------------------------------------------------------------

    Molecular point group: c1
  Charge       = 0
  Multiplicity = 1
  Basis Set: AUG-CC-PVTZ
    Blend: AUG-CC-PVTZ
  Basis Set: (AUG-CC-PVTZ AUX)
    Blend: AUG-CC-PVTZ-JKFIT

    Orbital Energies [Eh]
    ---------------------

    Doubly Occupied:

       1A    -15.589437     2A    -15.543929     3A    -11.323788
       4A    -11.278926     5A    -11.270569     6A    -11.253045
       7A    -11.247994     8A    -11.237397     9A    -11.234278
      10A    -11.231358    11A    -11.229147    12A    -11.228243
      13A    -11.221566    14A    -11.219235    15A     -1.312283
      16A     -1.234271    17A     -1.132382    18A     -1.103310
      19A     -1.031640    20A     -1.008775    21A     -0.991256
      22A     -0.943932    23A     -0.861653    24A     -0.842932
      25A     -0.822962    26A     -0.793492    27A     -0.728628
      28A     -0.716624    29A     -0.672122    30A     -0.666649
      31A     -0.634828    32A     -0.617512    33A     -0.600743
      34A     -0.594946    35A     -0.580602    36A     -0.578412
      37A     -0.572432    38A     -0.563097    39A     -0.548245
      40A     -0.520946    41A     -0.514474    42A     -0.505559
      43A     -0.488682    44A     -0.454198    45A     -0.401376
      46A     -0.389737    47A     -0.332708    48A     -0.329181
      49A     -0.278212

  @DF-RHF Final Energy:  -570.47857513607619

   => Energetics <=

    Nuclear Repulsion Energy =            791.7472304685363724
    One-Electron Energy =               -2343.4961860971202441
    Two-Electron Energy =                 981.2703804925076838
    Total Energy =                       -570.4785751360761878
  Basis Set: (AUG-CC-PVTZ AUX)
    Blend: AUG-CC-PVTZ-RI
    Molecular point group: c1

    Geometry (in Angstrom), charge = 0, multiplicity = 1:

       Center              X                  Y                   Z               Mass
    ------------   -----------------  -----------------  -----------------  -----------------
         N           -0.456464580862     1.076709311979    -0.310171918158    14.003074004430
         N            1.043536419138    -0.714085688021    -0.007104918158    14.003074004430
         C           -1.675086580862     0.402610311979    -0.118072918158    12.000000000000
         C            0.785412419138     0.469097611979    -0.169017618158    12.000000000000
         C            3.437566419138    -0.313653688021     0.118629081842    12.000000000000
         C            1.903820419138     1.529331311979    -0.174319918158    12.000000000000
         C            3.199107419138     1.061344311979    -0.037296918158    12.000000000000
         C           -2.783814580862     1.176667311979     0.263991081842    12.000000000000
         C           -1.851699580862    -0.966928688021    -0.373891918158    12.000000000000
         C            2.315315419138    -1.138767688021     0.123220081842    12.000000000000
         C            4.828043419138    -0.865852688021     0.268347081842    12.000000000000
         C           -4.040544580862     0.595332311979     0.411124081842    12.000000000000
         C           -3.113381580862    -1.538496688021    -0.203839918158    12.000000000000
         C           -4.214347580862    -0.770344688021     0.178307081842    12.000000000000
         H           -0.533371580862     2.085037311979    -0.234210918158     1.007825032230
         H            1.707979419138     2.592930311979    -0.296347918158     1.007825032230
         H            4.031847419138     1.763336311979    -0.050221918158     1.007825032230
         H           -2.652852580862     2.239892311979     0.464061081842     1.007825032230
         H           -1.004623580862    -1.569478688021    -0.672023918158     1.007825032230
         H            2.431196419138    -2.216881688021     0.239578081842     1.007825032230
         H            5.444475419138    -0.632369688021    -0.605734918158     1.007825032230
         H            5.328567419138    -0.447472688021     1.147495081842     1.007825032230
         H            4.803575419138    -1.953215688021     0.381469081842     1.007825032230
         H           -4.883522580862     1.213880311979     0.710474081842     1.007825032230
         H           -3.235767580862    -2.602173688021    -0.395880918158     1.007825032230
         H           -5.191878580862    -1.229482688021     0.300304081842     1.007825032230

  Basis Set: AUG-CC-PVTZ
    Blend: AUG-CC-PVTZ
  Basis Set: (AUG-CC-PVTZ AUX)
    Blend: AUG-CC-PVTZ-JKFIT
	 Reference Energy          =    -570.4785751360761878 [Eh]
	 Singles Energy            =      -0.0000000000000000 [Eh]
	 Same-Spin Energy          =      -0.6343281701630269 [Eh]
	 Opposite-Spin Energy      =      -1.9695656702089028 [Eh]
	 Correlation Energy        =      -2.6038938403719296 [Eh]
	 Total Energy              =    -573.0824689764481263 [Eh]

	 ================> DF-SCS-MP2 Energies <==================
	-----------------------------------------------------------
	 SCS Same-Spin Scale       =       0.3333333333333333 [-]
	 SCS Opposite-Spin Scale   =       1.2000000000000000 [-]
	 SCS Same-Spin Energy      =      -0.2114427233876756 [Eh]
	 SCS Opposite-Spin Energy  =      -2.3634788042506831 [Eh]
	 SCS Correlation Energy    =      -2.5749215276383586 [Eh]
	 SCS Total Energy          =    -573.0534966637145544 [Eh]
	-----------------------------------------------------------

  Dipole Moment: [D]
     X:     1.7359      Y:     1.7776      Z:     0.1387     Total:     2.4884

*** Psi4 exiting successfully. Buy a developer a beer!
