                               Psi4 1.4a3.dev225

  ==> Input File <==

--------------------------------------------------------------------------
#psi4
#
memory 32 gb

molecule  {
0 1
  N       -0.4914050     1.0723760    -0.3164170
  N        1.0085960    -0.7184190    -0.0133500
  C       -1.7100270     0.3982770    -0.1243180
  C        0.8049200     0.5981430    -0.1551110
  C        3.4026260    -0.3179870     0.1123840
  C        1.8688800     1.5249980    -0.1805650
  C        3.1641670     1.0570110    -0.0435420
  C       -2.8187550     1.1723340     0.2577460
  C       -1.8866400    -0.9712620    -0.3801370
  C        2.2803750    -1.1431010     0.1169750
  C        4.7931030    -0.8701860     0.2621020
  C       -4.0754850     0.5909990     0.4048790
  C       -3.1483220    -1.5428300    -0.2100850
  C       -4.2492880    -0.7746780     0.1720620
  H       -0.5683120     2.0807040    -0.2404560
  H        1.6730390     2.5885970    -0.3025930
  H        3.9969070     1.7590030    -0.0564670
  H       -2.6877930     2.2355590     0.4578160
  H       -1.0395640    -1.5738120    -0.6782690
  H        2.3962560    -2.2212150     0.2333330
  H        5.4095350    -0.6367030    -0.6119800
  H        5.2885820    -0.4168523     1.1266576
  H        4.7686350    -1.9575490     0.3752240
  H       -4.9184630     1.2095470     0.7042290
  H       -3.2707080    -2.6065070    -0.4021260
  H       -5.2268190    -1.2338160     0.2940590
units angstrom
no_reorient  #important for SAPT in psi4, default
symmetry c1  #important for SAPT in psi4, default
}

set PROPERTIES_ORIGIN ["COM"]
properties('MP2/aug-cc-pvtz', properties = ['dipole'])
--------------------------------------------------------------------------

    Molecular point group: c1
  Charge       = 0
  Multiplicity = 1
  Basis Set: AUG-CC-PVTZ
    Blend: AUG-CC-PVTZ
  Basis Set: (AUG-CC-PVTZ AUX)
    Blend: AUG-CC-PVTZ-JKFIT

    Orbital Energies [Eh]
    ---------------------

    Doubly Occupied:

       1A    -15.589050     2A    -15.553672     3A    -11.322874
       4A    -11.280900     5A    -11.272596     6A    -11.258413
       7A    -11.238903     8A    -11.235197     9A    -11.233697
      10A    -11.230272    11A    -11.229102    12A    -11.228558
      13A    -11.221409    14A    -11.218373    15A     -1.293050
      16A     -1.220051    17A     -1.132759    18A     -1.097051
      19A     -1.045975    20A     -1.008010    21A     -0.993075
      22A     -0.934901    23A     -0.868517    24A     -0.841084
      25A     -0.821120    26A     -0.797909    27A     -0.723607
      28A     -0.715577    29A     -0.670539    30A     -0.653360
      31A     -0.636932    32A     -0.621236    33A     -0.595584
      34A     -0.593311    35A     -0.588301    36A     -0.579456
      37A     -0.568506    38A     -0.562948    39A     -0.549118
      40A     -0.518814    41A     -0.511276    42A     -0.503973
      43A     -0.487332    44A     -0.453958    45A     -0.414303
      46A     -0.381337    47A     -0.336423    48A     -0.330427
      49A     -0.276794

  @DF-RHF Final Energy:  -570.49876598466403

   => Energetics <=

    Nuclear Repulsion Energy =            790.7993754667895701
    One-Electron Energy =               -2341.7170255328937856
    Two-Electron Energy =                 980.4188840814401829
    Total Energy =                       -570.4987659846640327
  Basis Set: (AUG-CC-PVTZ AUX)
    Blend: AUG-CC-PVTZ-RI
    Molecular point group: c1

    Geometry (in Angstrom), charge = 0, multiplicity = 1:

       Center              X                  Y                   Z               Mass
    ------------   -----------------  -----------------  -----------------  -----------------
         N           -0.459985989620     1.067824080127    -0.311405561582    14.003074004430
         N            1.040015010380    -0.722970919873    -0.008338561582    14.003074004430
         C           -1.678607989620     0.393725080127    -0.119306561582    12.000000000000
         C            0.836339010380     0.593591080127    -0.150099561582    12.000000000000
         C            3.434045010380    -0.322538919873     0.117395438418    12.000000000000
         C            1.900299010380     1.520446080127    -0.175553561582    12.000000000000
         C            3.195586010380     1.052459080127    -0.038530561582    12.000000000000
         C           -2.787335989620     1.167782080127     0.262757438418    12.000000000000
         C           -1.855220989620    -0.975813919873    -0.375125561582    12.000000000000
         C            2.311794010380    -1.147652919873     0.121986438418    12.000000000000
         C            4.824522010380    -0.874737919873     0.267113438418    12.000000000000
         C           -4.044065989620     0.586447080127     0.409890438418    12.000000000000
         C           -3.116902989620    -1.547381919873    -0.205073561582    12.000000000000
         C           -4.217868989620    -0.779229919873     0.177073438418    12.000000000000
         H           -0.536892989620     2.076152080127    -0.235444561582     1.007825032230
         H            1.704458010380     2.584045080127    -0.297581561582     1.007825032230
         H            4.028326010380     1.754451080127    -0.051455561582     1.007825032230
         H           -2.656373989620     2.231007080127     0.462827438418     1.007825032230
         H           -1.008144989620    -1.578363919873    -0.673257561582     1.007825032230
         H            2.427675010380    -2.225766919873     0.238344438418     1.007825032230
         H            5.440954010380    -0.641254919873    -0.606968561582     1.007825032230
         H            5.320001010380    -0.421404219873     1.131669038418     1.007825032230
         H            4.800054010380    -1.962100919873     0.380235438418     1.007825032230
         H           -4.887043989620     1.204995080127     0.709240438418     1.007825032230
         H           -3.239288989620    -2.611058919873    -0.397114561582     1.007825032230
         H           -5.195399989620    -1.238367919873     0.299070438418     1.007825032230

  Basis Set: AUG-CC-PVTZ
    Blend: AUG-CC-PVTZ
  Basis Set: (AUG-CC-PVTZ AUX)
    Blend: AUG-CC-PVTZ-JKFIT
	 Reference Energy          =    -570.4987659846640327 [Eh]
	 Singles Energy            =      -0.0000000000000000 [Eh]
	 Same-Spin Energy          =      -0.6364436724877689 [Eh]
	 Opposite-Spin Energy      =      -1.9709419557707870 [Eh]
	 Correlation Energy        =      -2.6073856282585561 [Eh]
	 Total Energy              =    -573.1061516129226447 [Eh]

	 ================> DF-SCS-MP2 Energies <==================
	-----------------------------------------------------------
	 SCS Same-Spin Scale       =       0.3333333333333333 [-]
	 SCS Opposite-Spin Scale   =       1.2000000000000000 [-]
	 SCS Same-Spin Energy      =      -0.2121478908292563 [Eh]
	 SCS Opposite-Spin Energy  =      -2.3651303469249445 [Eh]
	 SCS Correlation Energy    =      -2.5772782377542010 [Eh]
	 SCS Total Energy          =    -573.0760442224182043 [Eh]
	-----------------------------------------------------------

  Dipole Moment: [D]
     X:     1.8795      Y:     1.8604      Z:     0.1552     Total:     2.6491

*** Psi4 exiting successfully. Buy a developer a beer!
