                               Psi4 1.4a3.dev225

  ==> Input File <==

--------------------------------------------------------------------------
#psi4
#
memory 32 gb

molecule  {
0 1
  N       -0.4914050     1.0723760    -0.3164170
  N        1.0085960    -0.7184190    -0.0133500
  C       -1.7100270     0.3982770    -0.1243180
  C        0.8049200     0.5981430    -0.1551110
  C        3.4026260    -0.3179870     0.1123840
  C        1.8688800     1.5249980    -0.1805650
  C        3.1641670     1.0570110    -0.0435420
  C       -2.8187550     1.1723340     0.2577460
  C       -1.8866400    -0.9712620    -0.3801370
  C        2.2803750    -1.1431010     0.1169750
  C        4.8393417    -0.8885488     0.2670807
  C       -4.0754850     0.5909990     0.4048790
  C       -3.1483220    -1.5428300    -0.2100850
  C       -4.2492880    -0.7746780     0.1720620
  H       -0.5683120     2.0807040    -0.2404560
  H        1.6730390     2.5885970    -0.3025930
  H        3.9969070     1.7590030    -0.0564670
  H       -2.6877930     2.2355590     0.4578160
  H       -1.0395640    -1.5738120    -0.6782690
  H        2.3962560    -2.2212150     0.2333330
  H        5.4095350    -0.6367030    -0.6119800
  H        5.2936270    -0.4518060     1.1412500
  H        4.7686350    -1.9575490     0.3752240
  H       -4.9184630     1.2095470     0.7042290
  H       -3.2707080    -2.6065070    -0.4021260
  H       -5.2268190    -1.2338160     0.2940590
units angstrom
no_reorient  #important for SAPT in psi4, default
symmetry c1  #important for SAPT in psi4, default
}

set PROPERTIES_ORIGIN ["COM"]
properties('MP2/aug-cc-pvtz', properties = ['dipole'])
--------------------------------------------------------------------------

    Molecular point group: c1
  Charge       = 0
  Multiplicity = 1
  Basis Set: AUG-CC-PVTZ
    Blend: AUG-CC-PVTZ
  Basis Set: (AUG-CC-PVTZ AUX)
    Blend: AUG-CC-PVTZ-JKFIT

    Orbital Energies [Eh]
    ---------------------

    Doubly Occupied:

       1A    -15.588845     2A    -15.553537     3A    -11.322660
       4A    -11.280791     5A    -11.272621     6A    -11.258258
       7A    -11.238495     8A    -11.237284     9A    -11.233605
      10A    -11.230182    11A    -11.228445    12A    -11.227918
      13A    -11.221308    14A    -11.218262    15A     -1.292831
      16A     -1.219657    17A     -1.132556    18A     -1.093617
      19A     -1.043661    20A     -1.007867    21A     -0.992033
      22A     -0.936516    23A     -0.867764    24A     -0.842015
      25A     -0.821087    26A     -0.797674    27A     -0.723428
      28A     -0.714998    29A     -0.669990    30A     -0.652074
      31A     -0.633488    32A     -0.621021    33A     -0.595722
      34A     -0.593229    35A     -0.589523    36A     -0.579855
      37A     -0.572124    38A     -0.562452    39A     -0.554385
      40A     -0.513704    41A     -0.509331    42A     -0.503236
      43A     -0.487247    44A     -0.454655    45A     -0.413747
      46A     -0.381367    47A     -0.336938    48A     -0.330416
      49A     -0.277000

  @DF-RHF Final Energy:  -570.49736768316188

   => Energetics <=

    Nuclear Repulsion Energy =            789.8788272331731832
    One-Electron Energy =               -2339.8935565925839910
    Two-Electron Energy =                 979.5173616762490383
    Total Energy =                       -570.4973676831618832
  Basis Set: (AUG-CC-PVTZ AUX)
    Blend: AUG-CC-PVTZ-RI
    Molecular point group: c1

    Geometry (in Angstrom), charge = 0, multiplicity = 1:

       Center              X                  Y                   Z               Mass
    ------------   -----------------  -----------------  -----------------  -----------------
         N           -0.463027536225     1.069212351429    -0.311809966614    14.003074004430
         N            1.036973463775    -0.721582648571    -0.008742966614    14.003074004430
         C           -1.681649536225     0.395113351429    -0.119710966614    12.000000000000
         C            0.833297463775     0.594979351429    -0.150503966614    12.000000000000
         C            3.431003463775    -0.321150648571     0.116991033386    12.000000000000
         C            1.897257463775     1.521834351429    -0.175957966614    12.000000000000
         C            3.192544463775     1.053847351429    -0.038934966614    12.000000000000
         C           -2.790377536225     1.169170351429     0.262353033386    12.000000000000
         C           -1.858262536225    -0.974425648571    -0.375529966614    12.000000000000
         C            2.308752463775    -1.146264648571     0.121582033386    12.000000000000
         C            4.867719163775    -0.891712448571     0.271687733386    12.000000000000
         C           -4.047107536225     0.587835351429     0.409486033386    12.000000000000
         C           -3.119944536225    -1.545993648571    -0.205477966614    12.000000000000
         C           -4.220910536225    -0.777841648571     0.176669033386    12.000000000000
         H           -0.539934536225     2.077540351429    -0.235848966614     1.007825032230
         H            1.701416463775     2.585433351429    -0.297985966614     1.007825032230
         H            4.025284463775     1.755839351429    -0.051859966614     1.007825032230
         H           -2.659415536225     2.232395351429     0.462423033386     1.007825032230
         H           -1.011186536225    -1.576975648571    -0.673661966614     1.007825032230
         H            2.424633463775    -2.224378648571     0.237940033386     1.007825032230
         H            5.437912463775    -0.639866648571    -0.607372966614     1.007825032230
         H            5.322004463775    -0.454969648571     1.145857033386     1.007825032230
         H            4.797012463775    -1.960712648571     0.379831033386     1.007825032230
         H           -4.890085536225     1.206383351429     0.708836033386     1.007825032230
         H           -3.242330536225    -2.609670648571    -0.397518966614     1.007825032230
         H           -5.198441536225    -1.236979648571     0.298666033386     1.007825032230

  Basis Set: AUG-CC-PVTZ
    Blend: AUG-CC-PVTZ
  Basis Set: (AUG-CC-PVTZ AUX)
    Blend: AUG-CC-PVTZ-JKFIT
	 Reference Energy          =    -570.4973676831618832 [Eh]
	 Singles Energy            =      -0.0000000000000000 [Eh]
	 Same-Spin Energy          =      -0.6360964038432689 [Eh]
	 Opposite-Spin Energy      =      -1.9706816312838535 [Eh]
	 Correlation Energy        =      -2.6067780351271224 [Eh]
	 Total Energy              =    -573.1041457182890326 [Eh]

	 ================> DF-SCS-MP2 Energies <==================
	-----------------------------------------------------------
	 SCS Same-Spin Scale       =       0.3333333333333333 [-]
	 SCS Opposite-Spin Scale   =       1.2000000000000000 [-]
	 SCS Same-Spin Energy      =      -0.2120321346144230 [Eh]
	 SCS Opposite-Spin Energy  =      -2.3648179575406241 [Eh]
	 SCS Correlation Energy    =      -2.5768500921550470 [Eh]
	 SCS Total Energy          =    -573.0742177753169244 [Eh]
	-----------------------------------------------------------

  Dipole Moment: [D]
     X:     1.8819      Y:     1.8498      Z:     0.1639     Total:     2.6439

*** Psi4 exiting successfully. Buy a developer a beer!
