                               Psi4 1.4a3.dev225

  ==> Input File <==

--------------------------------------------------------------------------
#psi4
#
memory 32 gb

molecule  {
0 1
  N       -0.4914050     1.0723760    -0.3164170
  N        1.0085960    -0.7184190    -0.0133500
  C       -1.7100270     0.3982770    -0.1243180
  C        0.8126277     0.6209183    -0.1519185
  C        3.4026260    -0.3179870     0.1123840
  C        1.8688800     1.5249980    -0.1805650
  C        3.1641670     1.0570110    -0.0435420
  C       -2.8187550     1.1723340     0.2577460
  C       -1.8866400    -0.9712620    -0.3801370
  C        2.2803750    -1.1431010     0.1169750
  C        4.7931030    -0.8701860     0.2621020
  C       -4.0754850     0.5909990     0.4048790
  C       -3.1483220    -1.5428300    -0.2100850
  C       -4.2492880    -0.7746780     0.1720620
  H       -0.5683120     2.0807040    -0.2404560
  H        1.6730390     2.5885970    -0.3025930
  H        3.9969070     1.7590030    -0.0564670
  H       -2.6877930     2.2355590     0.4578160
  H       -1.0395640    -1.5738120    -0.6782690
  H        2.3962560    -2.2212150     0.2333330
  H        5.4095350    -0.6367030    -0.6119800
  H        5.2936270    -0.4518060     1.1412500
  H        4.7686350    -1.9575490     0.3752240
  H       -4.9184630     1.2095470     0.7042290
  H       -3.2707080    -2.6065070    -0.4021260
  H       -5.2268190    -1.2338160     0.2940590
units angstrom
no_reorient  #important for SAPT in psi4, default
symmetry c1  #important for SAPT in psi4, default
}

set PROPERTIES_ORIGIN ["COM"]
properties('MP2/aug-cc-pvtz', properties = ['dipole'])
--------------------------------------------------------------------------

    Molecular point group: c1
  Charge       = 0
  Multiplicity = 1
  Basis Set: AUG-CC-PVTZ
    Blend: AUG-CC-PVTZ
  Basis Set: (AUG-CC-PVTZ AUX)
    Blend: AUG-CC-PVTZ-JKFIT

    Orbital Energies [Eh]
    ---------------------

    Doubly Occupied:

       1A    -15.588929     2A    -15.555341     3A    -11.322258
       4A    -11.281272     5A    -11.273150     6A    -11.259132
       7A    -11.236709     8A    -11.235330     9A    -11.233622
      10A    -11.230136    11A    -11.229027    12A    -11.228593
      13A    -11.221385    14A    -11.218269    15A     -1.290798
      16A     -1.217766    17A     -1.132855    18A     -1.095967
      19A     -1.048522    20A     -1.007908    21A     -0.993356
      22A     -0.934043    23A     -0.869411    24A     -0.840872
      25A     -0.820933    26A     -0.798334    27A     -0.723379
      28A     -0.715158    29A     -0.670842    30A     -0.650704
      31A     -0.637476    32A     -0.622001    33A     -0.595183
      34A     -0.594334    35A     -0.588348    36A     -0.579411
      37A     -0.568968    38A     -0.562664    39A     -0.546337
      40A     -0.518737    41A     -0.510644    42A     -0.503867
      43A     -0.487039    44A     -0.454082    45A     -0.415482
      46A     -0.380715    47A     -0.337257    48A     -0.330374
      49A     -0.276833

  @DF-RHF Final Energy:  -570.49728317862343

   => Energetics <=

    Nuclear Repulsion Energy =            790.6182897483206489
    One-Electron Energy =               -2341.3636432947891990
    Two-Electron Energy =                 980.2480703678451164
    Total Energy =                       -570.4972831786234337
  Basis Set: (AUG-CC-PVTZ AUX)
    Blend: AUG-CC-PVTZ-RI
    Molecular point group: c1

    Geometry (in Angstrom), charge = 0, multiplicity = 1:

       Center              X                  Y                   Z               Mass
    ------------   -----------------  -----------------  -----------------  -----------------
         N           -0.460516010541     1.066530889885    -0.311693538617    14.003074004430
         N            1.039484989459    -0.724264110115    -0.008626538617    14.003074004430
         C           -1.679138010541     0.392431889885    -0.119594538617    12.000000000000
         C            0.843516689459     0.615073189885    -0.147195038617    12.000000000000
         C            3.433514989459    -0.323832110115     0.117107461383    12.000000000000
         C            1.899768989459     1.519152889885    -0.175841538617    12.000000000000
         C            3.195055989459     1.051165889885    -0.038818538617    12.000000000000
         C           -2.787866010541     1.166488889885     0.262469461383    12.000000000000
         C           -1.855751010541    -0.977107110115    -0.375413538617    12.000000000000
         C            2.311263989459    -1.148946110115     0.121698461383    12.000000000000
         C            4.823991989459    -0.876031110115     0.266825461383    12.000000000000
         C           -4.044596010541     0.585153889885     0.409602461383    12.000000000000
         C           -3.117433010541    -1.548675110115    -0.205361538617    12.000000000000
         C           -4.218399010541    -0.780523110115     0.176785461383    12.000000000000
         H           -0.537423010541     2.074858889885    -0.235732538617     1.007825032230
         H            1.703927989459     2.582751889885    -0.297869538617     1.007825032230
         H            4.027795989459     1.753157889885    -0.051743538617     1.007825032230
         H           -2.656904010541     2.229713889885     0.462539461383     1.007825032230
         H           -1.008675010541    -1.579657110115    -0.673545538617     1.007825032230
         H            2.427144989459    -2.227060110115     0.238056461383     1.007825032230
         H            5.440423989459    -0.642548110115    -0.607256538617     1.007825032230
         H            5.324515989459    -0.457651110115     1.145973461383     1.007825032230
         H            4.799523989459    -1.963394110115     0.379947461383     1.007825032230
         H           -4.887574010541     1.203701889885     0.708952461383     1.007825032230
         H           -3.239819010541    -2.612352110115    -0.397402538617     1.007825032230
         H           -5.195930010541    -1.239661110115     0.298782461383     1.007825032230

  Basis Set: AUG-CC-PVTZ
    Blend: AUG-CC-PVTZ
  Basis Set: (AUG-CC-PVTZ AUX)
    Blend: AUG-CC-PVTZ-JKFIT
	 Reference Energy          =    -570.4972831786234337 [Eh]
	 Singles Energy            =      -0.0000000000000000 [Eh]
	 Same-Spin Energy          =      -0.6367215395612226 [Eh]
	 Opposite-Spin Energy      =      -1.9713790618995863 [Eh]
	 Correlation Energy        =      -2.6081006014608090 [Eh]
	 Total Energy              =    -573.1053837800842530 [Eh]

	 ================> DF-SCS-MP2 Energies <==================
	-----------------------------------------------------------
	 SCS Same-Spin Scale       =       0.3333333333333333 [-]
	 SCS Opposite-Spin Scale   =       1.2000000000000000 [-]
	 SCS Same-Spin Energy      =      -0.2122405131870742 [Eh]
	 SCS Opposite-Spin Energy  =      -2.3656548742795036 [Eh]
	 SCS Correlation Energy    =      -2.5778953874665778 [Eh]
	 SCS Total Energy          =    -573.0751785660900168 [Eh]
	-----------------------------------------------------------

  Dipole Moment: [D]
     X:     1.8866      Y:     1.8497      Z:     0.1682     Total:     2.6475

*** Psi4 exiting successfully. Buy a developer a beer!
