                               Psi4 1.4a3.dev225

  ==> Input File <==

--------------------------------------------------------------------------
#psi4
#
memory 32 gb

molecule  {
0 1
  N       -0.4914050     1.0723760    -0.3164170
  N        1.0085960    -0.7184190    -0.0133500
  C       -1.7100270     0.3982770    -0.1243180
  C        0.8049200     0.5981430    -0.1551110
  C        3.4026260    -0.3179870     0.1123840
  C        1.8688800     1.5249980    -0.1805650
  C        3.1641670     1.0570110    -0.0435420
  C       -2.8187550     1.1723340     0.2577460
  C       -1.8866400    -0.9712620    -0.3801370
  C        2.2803750    -1.1431010     0.1169750
  C        4.7931030    -0.8701860     0.2621020
  C       -4.0754850     0.5909990     0.4048790
  C       -3.1483220    -1.5428300    -0.2100850
  C       -4.2492880    -0.7746780     0.1720620
  H       -0.5683120     2.0807040    -0.2404560
  H        1.6730390     2.5885970    -0.3025930
  H        3.9969070     1.7590030    -0.0564670
  H       -2.6877930     2.2355590     0.4578160
  H       -1.0395640    -1.5738120    -0.6782690
  H        2.3962560    -2.2212150     0.2333330
  H        5.4095350    -0.6367030    -0.6119800
  H        5.3027711    -0.4441626     1.1573112
  H        4.7686350    -1.9575490     0.3752240
  H       -4.9184630     1.2095470     0.7042290
  H       -3.2707080    -2.6065070    -0.4021260
  H       -5.2268190    -1.2338160     0.2940590
units angstrom
no_reorient  #important for SAPT in psi4, default
symmetry c1  #important for SAPT in psi4, default
}

set PROPERTIES_ORIGIN ["COM"]
properties('MP2/aug-cc-pvtz', properties = ['dipole'])
--------------------------------------------------------------------------

    Molecular point group: c1
  Charge       = 0
  Multiplicity = 1
  Basis Set: AUG-CC-PVTZ
    Blend: AUG-CC-PVTZ
  Basis Set: (AUG-CC-PVTZ AUX)
    Blend: AUG-CC-PVTZ-JKFIT

    Orbital Energies [Eh]
    ---------------------

    Doubly Occupied:

       1A    -15.589199     2A    -15.553795     3A    -11.323089
       4A    -11.280983     5A    -11.272906     6A    -11.258512
       7A    -11.238919     8A    -11.235459     9A    -11.233766
      10A    -11.231322    11A    -11.230343    12A    -11.228639
      13A    -11.221485    14A    -11.218459    15A     -1.293199
      16A     -1.220194    17A     -1.132840    18A     -1.096862
      19A     -1.045860    20A     -1.008075    21A     -0.992871
      22A     -0.933833    23A     -0.868591    24A     -0.840938
      25A     -0.821200    26A     -0.797914    27A     -0.723704
      28A     -0.715598    29A     -0.670625    30A     -0.653172
      31A     -0.637192    32A     -0.621318    33A     -0.595334
      34A     -0.593570    35A     -0.587960    36A     -0.579521
      37A     -0.568126    38A     -0.562581    39A     -0.545775
      40A     -0.519280    41A     -0.510962    42A     -0.504179
      43A     -0.487404    44A     -0.454050    45A     -0.414427
      46A     -0.381441    47A     -0.336580    48A     -0.330514
      49A     -0.276962

  @DF-RHF Final Energy:  -570.49844404544592

   => Energetics <=

    Nuclear Repulsion Energy =            790.6782519334483368
    One-Electron Energy =               -2341.4743302996776038
    Two-Electron Energy =                 980.2976343207833452
    Total Energy =                       -570.4984440454459218
  Basis Set: (AUG-CC-PVTZ AUX)
    Blend: AUG-CC-PVTZ-RI
    Molecular point group: c1

    Geometry (in Angstrom), charge = 0, multiplicity = 1:

       Center              X                  Y                   Z               Mass
    ------------   -----------------  -----------------  -----------------  -----------------
         N           -0.460063665483     1.067973585813    -0.311573369607    14.003074004430
         N            1.039937334517    -0.722821414187    -0.008506369607    14.003074004430
         C           -1.678685665483     0.393874585813    -0.119474369607    12.000000000000
         C            0.836261334517     0.593740585813    -0.150267369607    12.000000000000
         C            3.433967334517    -0.322389414187     0.117227630393    12.000000000000
         C            1.900221334517     1.520595585813    -0.175721369607    12.000000000000
         C            3.195508334517     1.052608585813    -0.038698369607    12.000000000000
         C           -2.787413665483     1.167931585813     0.262589630393    12.000000000000
         C           -1.855298665483    -0.975664414187    -0.375293369607    12.000000000000
         C            2.311716334517    -1.147503414187     0.121818630393    12.000000000000
         C            4.824444334517    -0.874588414187     0.266945630393    12.000000000000
         C           -4.044143665483     0.586596585813     0.409722630393    12.000000000000
         C           -3.116980665483    -1.547232414187    -0.205241369607    12.000000000000
         C           -4.217946665483    -0.779080414187     0.176905630393    12.000000000000
         H           -0.536970665483     2.076301585813    -0.235612369607     1.007825032230
         H            1.704380334517     2.584194585813    -0.297749369607     1.007825032230
         H            4.028248334517     1.754600585813    -0.051623369607     1.007825032230
         H           -2.656451665483     2.231156585813     0.462659630393     1.007825032230
         H           -1.008222665483    -1.578214414187    -0.673425369607     1.007825032230
         H            2.427597334517    -2.225617414187     0.238176630393     1.007825032230
         H            5.440876334517    -0.641105414187    -0.607136369607     1.007825032230
         H            5.334112434517    -0.448565014187     1.162154830393     1.007825032230
         H            4.799976334517    -1.961951414187     0.380067630393     1.007825032230
         H           -4.887121665483     1.205144585813     0.709072630393     1.007825032230
         H           -3.239366665483    -2.610909414187    -0.397282369607     1.007825032230
         H           -5.195477665483    -1.238218414187     0.298902630393     1.007825032230

  Basis Set: AUG-CC-PVTZ
    Blend: AUG-CC-PVTZ
  Basis Set: (AUG-CC-PVTZ AUX)
    Blend: AUG-CC-PVTZ-JKFIT
	 Reference Energy          =    -570.4984440454459218 [Eh]
	 Singles Energy            =      -0.0000000000000000 [Eh]
	 Same-Spin Energy          =      -0.6364046073004510 [Eh]
	 Opposite-Spin Energy      =      -1.9710039238990760 [Eh]
	 Correlation Energy        =      -2.6074085311995270 [Eh]
	 Total Energy              =    -573.1058525766454750 [Eh]

	 ================> DF-SCS-MP2 Energies <==================
	-----------------------------------------------------------
	 SCS Same-Spin Scale       =       0.3333333333333333 [-]
	 SCS Opposite-Spin Scale   =       1.2000000000000000 [-]
	 SCS Same-Spin Energy      =      -0.2121348691001503 [Eh]
	 SCS Opposite-Spin Energy  =      -2.3652047086788910 [Eh]
	 SCS Correlation Energy    =      -2.5773395777790413 [Eh]
	 SCS Total Energy          =    -573.0757836232249929 [Eh]
	-----------------------------------------------------------

  Dipole Moment: [D]
     X:     1.8578      Y:     1.8531      Z:     0.1562     Total:     2.6287

*** Psi4 exiting successfully. Buy a developer a beer!
