                               Psi4 1.4a3.dev225

  ==> Input File <==

--------------------------------------------------------------------------
#psi4
#
memory 32 gb

molecule  {
0 1
  N       -0.4914050     1.0723760    -0.3164170
  N        1.0085960    -0.7184190    -0.0133500
  C       -1.7211764     0.4198605    -0.1208746
  C        0.8049200     0.5981430    -0.1551110
  C        3.4026260    -0.3179870     0.1123840
  C        1.8688800     1.5249980    -0.1805650
  C        3.1641670     1.0570110    -0.0435420
  C       -2.8187550     1.1723340     0.2577460
  C       -1.8866400    -0.9712620    -0.3801370
  C        2.2803750    -1.1431010     0.1169750
  C        4.7931030    -0.8701860     0.2621020
  C       -4.0754850     0.5909990     0.4048790
  C       -3.1483220    -1.5428300    -0.2100850
  C       -4.2492880    -0.7746780     0.1720620
  H       -0.5683120     2.0807040    -0.2404560
  H        1.6730390     2.5885970    -0.3025930
  H        3.9969070     1.7590030    -0.0564670
  H       -2.6877930     2.2355590     0.4578160
  H       -1.0395640    -1.5738120    -0.6782690
  H        2.3962560    -2.2212150     0.2333330
  H        5.4095350    -0.6367030    -0.6119800
  H        5.2936270    -0.4518060     1.1412500
  H        4.7686350    -1.9575490     0.3752240
  H       -4.9184630     1.2095470     0.7042290
  H       -3.2707080    -2.6065070    -0.4021260
  H       -5.2268190    -1.2338160     0.2940590
units angstrom
no_reorient  #important for SAPT in psi4, default
symmetry c1  #important for SAPT in psi4, default
}

set PROPERTIES_ORIGIN ["COM"]
properties('MP2/aug-cc-pvtz', properties = ['dipole'])
--------------------------------------------------------------------------

    Molecular point group: c1
  Charge       = 0
  Multiplicity = 1
  Basis Set: AUG-CC-PVTZ
    Blend: AUG-CC-PVTZ
  Basis Set: (AUG-CC-PVTZ AUX)
    Blend: AUG-CC-PVTZ-JKFIT

    Orbital Energies [Eh]
    ---------------------

    Doubly Occupied:

       1A    -15.588913     2A    -15.553836     3A    -11.323555
       4A    -11.280780     5A    -11.272837     6A    -11.258540
       7A    -11.239033     8A    -11.235406     9A    -11.233775
      10A    -11.229818    11A    -11.228987    12A    -11.226343
      13A    -11.221546    14A    -11.220722    15A     -1.293022
      16A     -1.220416    17A     -1.133047    18A     -1.097045
      19A     -1.046355    20A     -1.008337    21A     -0.992740
      22A     -0.934979    23A     -0.868504    24A     -0.841850
      25A     -0.820038    26A     -0.798690    27A     -0.724618
      28A     -0.714656    29A     -0.670597    30A     -0.653295
      31A     -0.637153    32A     -0.621631    33A     -0.595494
      34A     -0.592703    35A     -0.588845    36A     -0.580053
      37A     -0.569196    38A     -0.562657    39A     -0.546832
      40A     -0.519323    41A     -0.511404    42A     -0.504188
      43A     -0.486800    44A     -0.454179    45A     -0.414666
      46A     -0.381499    47A     -0.338432    48A     -0.328838
      49A     -0.276977

  @DF-RHF Final Energy:  -570.49822899192532

   => Energetics <=

    Nuclear Repulsion Energy =            790.6756924133669600
    One-Electron Energy =               -2341.4615443753623367
    Two-Electron Energy =                 980.2876229700700605
    Total Energy =                       -570.4982289919253162
  Basis Set: (AUG-CC-PVTZ AUX)
    Blend: AUG-CC-PVTZ-RI
    Molecular point group: c1

    Geometry (in Angstrom), charge = 0, multiplicity = 1:

       Center              X                  Y                   Z               Mass
    ------------   -----------------  -----------------  -----------------  -----------------
         N           -0.459286868007     1.066608573732    -0.311709892768    14.003074004430
         N            1.040714131993    -0.724186426268    -0.008642892768    14.003074004430
         C           -1.689058268007     0.414093073732    -0.116167492768    12.000000000000
         C            0.837038131993     0.592375573732    -0.150403892768    12.000000000000
         C            3.434744131993    -0.323754426268     0.117091107232    12.000000000000
         C            1.900998131993     1.519230573732    -0.175857892768    12.000000000000
         C            3.196285131993     1.051243573732    -0.038834892768    12.000000000000
         C           -2.786636868007     1.166566573732     0.262453107232    12.000000000000
         C           -1.854521868007    -0.977029426268    -0.375429892768    12.000000000000
         C            2.312493131993    -1.148868426268     0.121682107232    12.000000000000
         C            4.825221131993    -0.875953426268     0.266809107232    12.000000000000
         C           -4.043366868007     0.585231573732     0.409586107232    12.000000000000
         C           -3.116203868007    -1.548597426268    -0.205377892768    12.000000000000
         C           -4.217169868007    -0.780445426268     0.176769107232    12.000000000000
         H           -0.536193868007     2.074936573732    -0.235748892768     1.007825032230
         H            1.705157131993     2.582829573732    -0.297885892768     1.007825032230
         H            4.029025131993     1.753235573732    -0.051759892768     1.007825032230
         H           -2.655674868007     2.229791573732     0.462523107232     1.007825032230
         H           -1.007445868007    -1.579579426268    -0.673561892768     1.007825032230
         H            2.428374131993    -2.226982426268     0.238040107232     1.007825032230
         H            5.441653131993    -0.642470426268    -0.607272892768     1.007825032230
         H            5.325745131993    -0.457573426268     1.145957107232     1.007825032230
         H            4.800753131993    -1.963316426268     0.379931107232     1.007825032230
         H           -4.886344868007     1.203779573732     0.708936107232     1.007825032230
         H           -3.238589868007    -2.612274426268    -0.397418892768     1.007825032230
         H           -5.194700868007    -1.239583426268     0.298766107232     1.007825032230

  Basis Set: AUG-CC-PVTZ
    Blend: AUG-CC-PVTZ
  Basis Set: (AUG-CC-PVTZ AUX)
    Blend: AUG-CC-PVTZ-JKFIT
	 Reference Energy          =    -570.4982289919253162 [Eh]
	 Singles Energy            =      -0.0000000000000000 [Eh]
	 Same-Spin Energy          =      -0.6363908306960893 [Eh]
	 Opposite-Spin Energy      =      -1.9709000387628774 [Eh]
	 Correlation Energy        =      -2.6072908694589669 [Eh]
	 Total Energy              =    -573.1055198613843231 [Eh]

	 ================> DF-SCS-MP2 Energies <==================
	-----------------------------------------------------------
	 SCS Same-Spin Scale       =       0.3333333333333333 [-]
	 SCS Opposite-Spin Scale   =       1.2000000000000000 [-]
	 SCS Same-Spin Energy      =      -0.2121302768986964 [Eh]
	 SCS Opposite-Spin Energy  =      -2.3650800465154527 [Eh]
	 SCS Correlation Energy    =      -2.5772103234141492 [Eh]
	 SCS Total Energy          =    -573.0754393153395085 [Eh]
	-----------------------------------------------------------

  Dipole Moment: [D]
     X:     1.8797      Y:     1.8493      Z:     0.1671     Total:     2.6422

*** Psi4 exiting successfully. Buy a developer a beer!
