                               Psi4 1.4a3.dev225

  ==> Input File <==

--------------------------------------------------------------------------
#psi4
#
memory 32 gb

molecule  {
0 1
  N       -0.4914050     1.0723760    -0.3164170
  N        1.0085960    -0.7184190    -0.0133500
  C       -1.7100270     0.3982770    -0.1243180
  C        0.8049200     0.5981430    -0.1551110
  C        3.4026260    -0.3179870     0.1123840
  C        1.8688800     1.5249980    -0.1805650
  C        3.1726579     1.0080510    -0.0379899
  C       -2.8187550     1.1723340     0.2577460
  C       -1.8866400    -0.9712620    -0.3801370
  C        2.2803750    -1.1431010     0.1169750
  C        4.7931030    -0.8701860     0.2621020
  C       -4.0754850     0.5909990     0.4048790
  C       -3.1483220    -1.5428300    -0.2100850
  C       -4.2492880    -0.7746780     0.1720620
  H       -0.5683120     2.0807040    -0.2404560
  H        1.6730390     2.5885970    -0.3025930
  H        3.9969070     1.7590030    -0.0564670
  H       -2.6877930     2.2355590     0.4578160
  H       -1.0395640    -1.5738120    -0.6782690
  H        2.3962560    -2.2212150     0.2333330
  H        5.4095350    -0.6367030    -0.6119800
  H        5.2936270    -0.4518060     1.1412500
  H        4.7686350    -1.9575490     0.3752240
  H       -4.9184630     1.2095470     0.7042290
  H       -3.2707080    -2.6065070    -0.4021260
  H       -5.2268190    -1.2338160     0.2940590
units angstrom
no_reorient  #important for SAPT in psi4, default
symmetry c1  #important for SAPT in psi4, default
}

set PROPERTIES_ORIGIN ["COM"]
properties('MP2/aug-cc-pvtz', properties = ['dipole'])
--------------------------------------------------------------------------

    Molecular point group: c1
  Charge       = 0
  Multiplicity = 1
  Basis Set: AUG-CC-PVTZ
    Blend: AUG-CC-PVTZ
  Basis Set: (AUG-CC-PVTZ AUX)
    Blend: AUG-CC-PVTZ-JKFIT

    Orbital Energies [Eh]
    ---------------------

    Doubly Occupied:

       1A    -15.587697     2A    -15.555579     3A    -11.321503
       4A    -11.280501     5A    -11.276480     6A    -11.257332
       7A    -11.238794     8A    -11.233410     9A    -11.231529
      10A    -11.230064    11A    -11.229517    12A    -11.228035
      13A    -11.220977    14A    -11.218019    15A     -1.293174
      16A     -1.221450    17A     -1.132638    18A     -1.102279
      19A     -1.043696    20A     -1.007698    21A     -0.991373
      22A     -0.936630    23A     -0.870853    24A     -0.841801
      25A     -0.821788    26A     -0.796159    27A     -0.721848
      28A     -0.715941    29A     -0.670611    30A     -0.653690
      31A     -0.638333    32A     -0.620283    33A     -0.595524
      34A     -0.593484    35A     -0.589503    36A     -0.579118
      37A     -0.568863    38A     -0.555103    39A     -0.547732
      40A     -0.522368    41A     -0.512181    42A     -0.504431
      43A     -0.487181    44A     -0.455084    45A     -0.415055
      46A     -0.380772    47A     -0.337876    48A     -0.330475
      49A     -0.276983

  @DF-RHF Final Energy:  -570.49562917446997

   => Energetics <=

    Nuclear Repulsion Energy =            791.3023359202958318
    One-Electron Energy =               -2342.7131061967111236
    Two-Electron Energy =                 980.9151411019454372
    Total Energy =                       -570.4956291744699683
  Basis Set: (AUG-CC-PVTZ AUX)
    Blend: AUG-CC-PVTZ-RI
    Molecular point group: c1

    Geometry (in Angstrom), charge = 0, multiplicity = 1:

       Center              X                  Y                   Z               Mass
    ------------   -----------------  -----------------  -----------------  -----------------
         N           -0.460567061044     1.071206736565    -0.311847341944    14.003074004430
         N            1.039433938956    -0.719588263435    -0.008780341944    14.003074004430
         C           -1.679189061044     0.397107736565    -0.119748341944    12.000000000000
         C            0.835757938956     0.596973736565    -0.150541341944    12.000000000000
         C            3.433463938956    -0.319156263435     0.116953658056    12.000000000000
         C            1.899717938956     1.523828736565    -0.175995341944    12.000000000000
         C            3.203495838956     1.006881736565    -0.033420241944    12.000000000000
         C           -2.787917061044     1.171164736565     0.262315658056    12.000000000000
         C           -1.855802061044    -0.972431263435    -0.375567341944    12.000000000000
         C            2.311212938956    -1.144270263435     0.121544658056    12.000000000000
         C            4.823940938956    -0.871355263435     0.266671658056    12.000000000000
         C           -4.044647061044     0.589829736565     0.409448658056    12.000000000000
         C           -3.117484061044    -1.543999263435    -0.205515341944    12.000000000000
         C           -4.218450061044    -0.775847263435     0.176631658056    12.000000000000
         H           -0.537474061044     2.079534736565    -0.235886341944     1.007825032230
         H            1.703876938956     2.587427736565    -0.298023341944     1.007825032230
         H            4.027744938956     1.757833736565    -0.051897341944     1.007825032230
         H           -2.656955061044     2.234389736565     0.462385658056     1.007825032230
         H           -1.008726061044    -1.574981263435    -0.673699341944     1.007825032230
         H            2.427093938956    -2.222384263435     0.237902658056     1.007825032230
         H            5.440372938956    -0.637872263435    -0.607410341944     1.007825032230
         H            5.324464938956    -0.452975263435     1.145819658056     1.007825032230
         H            4.799472938956    -1.958718263435     0.379793658056     1.007825032230
         H           -4.887625061044     1.208377736565     0.708798658056     1.007825032230
         H           -3.239870061044    -2.607676263435    -0.397556341944     1.007825032230
         H           -5.195981061044    -1.234985263435     0.298628658056     1.007825032230

  Basis Set: AUG-CC-PVTZ
    Blend: AUG-CC-PVTZ
  Basis Set: (AUG-CC-PVTZ AUX)
    Blend: AUG-CC-PVTZ-JKFIT
	 Reference Energy          =    -570.4956291744699683 [Eh]
	 Singles Energy            =      -0.0000000000000000 [Eh]
	 Same-Spin Energy          =      -0.6366387273514079 [Eh]
	 Opposite-Spin Energy      =      -1.9709826938948352 [Eh]
	 Correlation Energy        =      -2.6076214212462432 [Eh]
	 Total Energy              =    -573.1032505957161902 [Eh]

	 ================> DF-SCS-MP2 Energies <==================
	-----------------------------------------------------------
	 SCS Same-Spin Scale       =       0.3333333333333333 [-]
	 SCS Opposite-Spin Scale   =       1.2000000000000000 [-]
	 SCS Same-Spin Energy      =      -0.2122129091171360 [Eh]
	 SCS Opposite-Spin Energy  =      -2.3651792326738019 [Eh]
	 SCS Correlation Energy    =      -2.5773921417909378 [Eh]
	 SCS Total Energy          =    -573.0730213162609061 [Eh]
	-----------------------------------------------------------

  Dipole Moment: [D]
     X:     1.8987      Y:     1.8074      Z:     0.1670     Total:     2.6267

*** Psi4 exiting successfully. Buy a developer a beer!
