                               Psi4 1.4a3.dev225

  ==> Input File <==

--------------------------------------------------------------------------
#psi4
#
memory 32 gb

molecule  {
0 1
  N       -0.4914050     1.0723760    -0.3164170
  N        1.0085960    -0.7184190    -0.0133500
  C       -1.6301034     0.2804374    -0.0871782
  C        0.8049200     0.5981430    -0.1551110
  C        3.4026260    -0.3179870     0.1123840
  C        1.8688800     1.5249980    -0.1805650
  C        3.1641670     1.0570110    -0.0435420
  C       -2.8187550     1.1723340     0.2577460
  C       -1.8866400    -0.9712620    -0.3801370
  C        2.2803750    -1.1431010     0.1169750
  C        4.7931030    -0.8701860     0.2621020
  C       -4.0754850     0.5909990     0.4048790
  C       -3.1483220    -1.5428300    -0.2100850
  C       -4.2492880    -0.7746780     0.1720620
  H       -0.5683120     2.0807040    -0.2404560
  H        1.6730390     2.5885970    -0.3025930
  H        3.9969070     1.7590030    -0.0564670
  H       -2.6877930     2.2355590     0.4578160
  H       -1.0395640    -1.5738120    -0.6782690
  H        2.3962560    -2.2212150     0.2333330
  H        5.4095350    -0.6367030    -0.6119800
  H        5.2936270    -0.4518060     1.1412500
  H        4.7686350    -1.9575490     0.3752240
  H       -4.9184630     1.2095470     0.7042290
  H       -3.2707080    -2.6065070    -0.4021260
  H       -5.2268190    -1.2338160     0.2940590
units angstrom
no_reorient  #important for SAPT in psi4, default
symmetry c1  #important for SAPT in psi4, default
}

set PROPERTIES_ORIGIN ["COM"]
properties('MP2/aug-cc-pvtz', properties = ['dipole'])
--------------------------------------------------------------------------

    Molecular point group: c1
  Charge       = 0
  Multiplicity = 1
  Basis Set: AUG-CC-PVTZ
    Blend: AUG-CC-PVTZ
  Basis Set: (AUG-CC-PVTZ AUX)
    Blend: AUG-CC-PVTZ-JKFIT

    Orbital Energies [Eh]
    ---------------------

    Doubly Occupied:

       1A    -15.590392     2A    -15.553317     3A    -11.319711
       4A    -11.280103     5A    -11.272587     6A    -11.257958
       7A    -11.238869     8A    -11.237805     9A    -11.234850
      10A    -11.232687    11A    -11.232125    12A    -11.228657
      13A    -11.222427    14A    -11.206670    15A     -1.294229
      16A     -1.218712    17A     -1.132616    18A     -1.096499
      19A     -1.044777    20A     -1.015795    21A     -0.986407
      22A     -0.934679    23A     -0.868893    24A     -0.838077
      25A     -0.827047    26A     -0.791398    27A     -0.723620
      28A     -0.715935    29A     -0.673424    30A     -0.653638
      31A     -0.637852    32A     -0.618923    33A     -0.604430
      34A     -0.593353    35A     -0.584673    36A     -0.572154
      37A     -0.569820    38A     -0.561423    39A     -0.546564
      40A     -0.518986    41A     -0.511723    42A     -0.506389
      43A     -0.475977    44A     -0.452905    45A     -0.412554
      46A     -0.381015    47A     -0.343343    48A     -0.325426
      49A     -0.277301

  @DF-RHF Final Energy:  -570.47646093889921

   => Energetics <=

    Nuclear Repulsion Energy =            791.3462315930288469
    One-Electron Energy =               -2342.8079592645149205
    Two-Electron Energy =                 980.9852667325869788
    Total Energy =                       -570.4764609388992085
  Basis Set: (AUG-CC-PVTZ AUX)
    Blend: AUG-CC-PVTZ-RI
    Molecular point group: c1

    Geometry (in Angstrom), charge = 0, multiplicity = 1:

       Center              X                  Y                   Z               Mass
    ------------   -----------------  -----------------  -----------------  -----------------
         N           -0.465223183665     1.075696443152    -0.313906289800    14.003074004430
         N            1.034777816335    -0.715098556848    -0.010839289800    14.003074004430
         C           -1.603921583665     0.283757843152    -0.084667489800    12.000000000000
         C            0.831101816335     0.601463443152    -0.152600289800    12.000000000000
         C            3.428807816335    -0.314666556848     0.114894710200    12.000000000000
         C            1.895061816335     1.528318443152    -0.178054289800    12.000000000000
         C            3.190348816335     1.060331443152    -0.041031289800    12.000000000000
         C           -2.792573183665     1.175654443152     0.260256710200    12.000000000000
         C           -1.860458183665    -0.967941556848    -0.377626289800    12.000000000000
         C            2.306556816335    -1.139780556848     0.119485710200    12.000000000000
         C            4.819284816335    -0.866865556848     0.264612710200    12.000000000000
         C           -4.049303183665     0.594319443152     0.407389710200    12.000000000000
         C           -3.122140183665    -1.539509556848    -0.207574289800    12.000000000000
         C           -4.223106183665    -0.771357556848     0.174572710200    12.000000000000
         H           -0.542130183665     2.084024443152    -0.237945289800     1.007825032230
         H            1.699220816335     2.591917443152    -0.300082289800     1.007825032230
         H            4.023088816335     1.762323443152    -0.053956289800     1.007825032230
         H           -2.661611183665     2.238879443152     0.460326710200     1.007825032230
         H           -1.013382183665    -1.570491556848    -0.675758289800     1.007825032230
         H            2.422437816335    -2.217894556848     0.235843710200     1.007825032230
         H            5.435716816335    -0.633382556848    -0.609469289800     1.007825032230
         H            5.319808816335    -0.448485556848     1.143760710200     1.007825032230
         H            4.794816816335    -1.954228556848     0.377734710200     1.007825032230
         H           -4.892281183665     1.212867443152     0.706739710200     1.007825032230
         H           -3.244526183665    -2.603186556848    -0.399615289800     1.007825032230
         H           -5.200637183665    -1.230495556848     0.296569710200     1.007825032230

  Basis Set: AUG-CC-PVTZ
    Blend: AUG-CC-PVTZ
  Basis Set: (AUG-CC-PVTZ AUX)
    Blend: AUG-CC-PVTZ-JKFIT
	 Reference Energy          =    -570.4764609388992085 [Eh]
	 Singles Energy            =      -0.0000000000000000 [Eh]
	 Same-Spin Energy          =      -0.6362307418291707 [Eh]
	 Opposite-Spin Energy      =      -1.9723096632515584 [Eh]
	 Correlation Energy        =      -2.6085404050807290 [Eh]
	 Total Energy              =    -573.0850013439799113 [Eh]

	 ================> DF-SCS-MP2 Energies <==================
	-----------------------------------------------------------
	 SCS Same-Spin Scale       =       0.3333333333333333 [-]
	 SCS Opposite-Spin Scale   =       1.2000000000000000 [-]
	 SCS Same-Spin Energy      =      -0.2120769139430569 [Eh]
	 SCS Opposite-Spin Energy  =      -2.3667715959018700 [Eh]
	 SCS Correlation Energy    =      -2.5788485098449270 [Eh]
	 SCS Total Energy          =    -573.0553094487440831 [Eh]
	-----------------------------------------------------------

  Dipole Moment: [D]
     X:     1.8227      Y:     1.8618      Z:     0.1536     Total:     2.6100

*** Psi4 exiting successfully. Buy a developer a beer!
