                               Psi4 1.4a3.dev225

  ==> Input File <==

--------------------------------------------------------------------------
#psi4
#
memory 32 gb

molecule  {
0 1
  N       -0.4914050     1.0723760    -0.3164170
  N        1.0085960    -0.7184190    -0.0133500
  C       -1.7100270     0.3982770    -0.1243180
  C        0.8049200     0.5981430    -0.1551110
  C        3.3543061    -0.3257865     0.1097983
  C        1.8688800     1.5249980    -0.1805650
  C        3.1641670     1.0570110    -0.0435420
  C       -2.8187550     1.1723340     0.2577460
  C       -1.8866400    -0.9712620    -0.3801370
  C        2.2803750    -1.1431010     0.1169750
  C        4.7931030    -0.8701860     0.2621020
  C       -4.0754850     0.5909990     0.4048790
  C       -3.1483220    -1.5428300    -0.2100850
  C       -4.2492880    -0.7746780     0.1720620
  H       -0.5683120     2.0807040    -0.2404560
  H        1.6730390     2.5885970    -0.3025930
  H        3.9969070     1.7590030    -0.0564670
  H       -2.6877930     2.2355590     0.4578160
  H       -1.0395640    -1.5738120    -0.6782690
  H        2.3962560    -2.2212150     0.2333330
  H        5.4095350    -0.6367030    -0.6119800
  H        5.2936270    -0.4518060     1.1412500
  H        4.7686350    -1.9575490     0.3752240
  H       -4.9184630     1.2095470     0.7042290
  H       -3.2707080    -2.6065070    -0.4021260
  H       -5.2268190    -1.2338160     0.2940590
units angstrom
no_reorient  #important for SAPT in psi4, default
symmetry c1  #important for SAPT in psi4, default
}

set PROPERTIES_ORIGIN ["COM"]
properties('MP2/aug-cc-pvtz', properties = ['dipole'])
--------------------------------------------------------------------------

    Molecular point group: c1
  Charge       = 0
  Multiplicity = 1
  Basis Set: AUG-CC-PVTZ
    Blend: AUG-CC-PVTZ
  Basis Set: (AUG-CC-PVTZ AUX)
    Blend: AUG-CC-PVTZ-JKFIT

    Orbital Energies [Eh]
    ---------------------

    Doubly Occupied:

       1A    -15.589202     2A    -15.551580     3A    -11.322972
       4A    -11.280873     5A    -11.265999     6A    -11.259693
       7A    -11.240222     8A    -11.233676     9A    -11.232247
      10A    -11.230199    11A    -11.229830    12A    -11.228615
      13A    -11.221442    14A    -11.218313    15A     -1.293494
      16A     -1.221539    17A     -1.132958    18A     -1.095684
      19A     -1.046422    20A     -1.007911    21A     -0.991735
      22A     -0.933699    23A     -0.870951    24A     -0.842010
      25A     -0.820849    26A     -0.799409    27A     -0.724744
      28A     -0.715949    29A     -0.670406    30A     -0.654165
      31A     -0.634019    32A     -0.622433    33A     -0.596044
      34A     -0.594695    35A     -0.587811    36A     -0.579607
      37A     -0.569358    38A     -0.564695    39A     -0.546021
      40A     -0.513738    41A     -0.507983    42A     -0.501308
      43A     -0.487414    44A     -0.455846    45A     -0.415046
      46A     -0.380783    47A     -0.339670    48A     -0.330591
      49A     -0.278870

  @DF-RHF Final Energy:  -570.49718917678945

   => Energetics <=

    Nuclear Repulsion Energy =            791.3913467873145464
    One-Electron Energy =               -2342.9116329492144359
    Two-Electron Energy =                 981.0230969851105556
    Total Energy =                       -570.4971891767894476
  Basis Set: (AUG-CC-PVTZ AUX)
    Blend: AUG-CC-PVTZ-RI
    Molecular point group: c1

    Geometry (in Angstrom), charge = 0, multiplicity = 1:

       Center              X                  Y                   Z               Mass
    ------------   -----------------  -----------------  -----------------  -----------------
         N           -0.456864022365     1.068523814945    -0.311316904278    14.003074004430
         N            1.043136977635    -0.722271185055    -0.008249904278    14.003074004430
         C           -1.675486022365     0.394424814945    -0.119217904278    12.000000000000
         C            0.839460977635     0.594290814945    -0.150010904278    12.000000000000
         C            3.388847077635    -0.329638685055     0.114898395722    12.000000000000
         C            1.903420977635     1.521145814945    -0.175464904278    12.000000000000
         C            3.198707977635     1.053158814945    -0.038441904278    12.000000000000
         C           -2.784214022365     1.168481814945     0.262846095722    12.000000000000
         C           -1.852099022365    -0.975114185055    -0.375036904278    12.000000000000
         C            2.314915977635    -1.146953185055     0.122075095722    12.000000000000
         C            4.827643977635    -0.874038185055     0.267202095722    12.000000000000
         C           -4.040944022365     0.587146814945     0.409979095722    12.000000000000
         C           -3.113781022365    -1.546682185055    -0.204984904278    12.000000000000
         C           -4.214747022365    -0.778530185055     0.177162095722    12.000000000000
         H           -0.533771022365     2.076851814945    -0.235355904278     1.007825032230
         H            1.707579977635     2.584744814945    -0.297492904278     1.007825032230
         H            4.031447977635     1.755150814945    -0.051366904278     1.007825032230
         H           -2.653252022365     2.231706814945     0.462916095722     1.007825032230
         H           -1.005023022365    -1.577664185055    -0.673168904278     1.007825032230
         H            2.430796977635    -2.225067185055     0.238433095722     1.007825032230
         H            5.444075977635    -0.640555185055    -0.606879904278     1.007825032230
         H            5.328167977635    -0.455658185055     1.146350095722     1.007825032230
         H            4.803175977635    -1.961401185055     0.380324095722     1.007825032230
         H           -4.883922022365     1.205694814945     0.709329095722     1.007825032230
         H           -3.236167022365    -2.610359185055    -0.397025904278     1.007825032230
         H           -5.192278022365    -1.237668185055     0.299159095722     1.007825032230

  Basis Set: AUG-CC-PVTZ
    Blend: AUG-CC-PVTZ
  Basis Set: (AUG-CC-PVTZ AUX)
    Blend: AUG-CC-PVTZ-JKFIT
	 Reference Energy          =    -570.4971891767894476 [Eh]
	 Singles Energy            =      -0.0000000000000000 [Eh]
	 Same-Spin Energy          =      -0.6359424652631288 [Eh]
	 Opposite-Spin Energy      =      -1.9703972040562479 [Eh]
	 Correlation Energy        =      -2.6063396693193766 [Eh]
	 Total Energy              =    -573.1035288461088157 [Eh]

	 ================> DF-SCS-MP2 Energies <==================
	-----------------------------------------------------------
	 SCS Same-Spin Scale       =       0.3333333333333333 [-]
	 SCS Opposite-Spin Scale   =       1.2000000000000000 [-]
	 SCS Same-Spin Energy      =      -0.2119808217543763 [Eh]
	 SCS Opposite-Spin Energy  =      -2.3644766448674974 [Eh]
	 SCS Correlation Energy    =      -2.5764574666218736 [Eh]
	 SCS Total Energy          =    -573.0736466434112799 [Eh]
	-----------------------------------------------------------

  Dipole Moment: [D]
     X:     1.8210      Y:     1.9099      Z:     0.1543     Total:     2.6434

*** Psi4 exiting successfully. Buy a developer a beer!
