                               Psi4 1.4a3.dev225

  ==> Input File <==

--------------------------------------------------------------------------
#psi4
#
memory 32 gb

molecule  {
0 1
  N       -0.4914050     1.0723760    -0.3164170
  N        1.0085960    -0.7184190    -0.0133500
  C       -1.7100270     0.3982770    -0.1243180
  C        0.8049200     0.5981430    -0.1551110
  C        3.4026260    -0.3179870     0.1123840
  C        1.8688800     1.5249980    -0.1805650
  C        2.9769917     1.1246374    -0.0633425
  C       -2.8187550     1.1723340     0.2577460
  C       -1.8866400    -0.9712620    -0.3801370
  C        2.2803750    -1.1431010     0.1169750
  C        4.7931030    -0.8701860     0.2621020
  C       -4.0754850     0.5909990     0.4048790
  C       -3.1483220    -1.5428300    -0.2100850
  C       -4.2492880    -0.7746780     0.1720620
  H       -0.5683120     2.0807040    -0.2404560
  H        1.6730390     2.5885970    -0.3025930
  H        3.9969070     1.7590030    -0.0564670
  H       -2.6877930     2.2355590     0.4578160
  H       -1.0395640    -1.5738120    -0.6782690
  H        2.3962560    -2.2212150     0.2333330
  H        5.4095350    -0.6367030    -0.6119800
  H        5.2936270    -0.4518060     1.1412500
  H        4.7686350    -1.9575490     0.3752240
  H       -4.9184630     1.2095470     0.7042290
  H       -3.2707080    -2.6065070    -0.4021260
  H       -5.2268190    -1.2338160     0.2940590
units angstrom
no_reorient  #important for SAPT in psi4, default
symmetry c1  #important for SAPT in psi4, default
}

set PROPERTIES_ORIGIN ["COM"]
properties('MP2/aug-cc-pvtz', properties = ['dipole'])
--------------------------------------------------------------------------

    Molecular point group: c1
  Charge       = 0
  Multiplicity = 1
  Basis Set: AUG-CC-PVTZ
    Blend: AUG-CC-PVTZ
  Basis Set: (AUG-CC-PVTZ AUX)
    Blend: AUG-CC-PVTZ-JKFIT

    Orbital Energies [Eh]
    ---------------------

    Doubly Occupied:

       1A    -15.595972     2A    -15.545783     3A    -11.328794
       4A    -11.282976     5A    -11.260962     6A    -11.248886
       7A    -11.237218     8A    -11.235596     9A    -11.231889
      10A    -11.231515    11A    -11.230055    12A    -11.224006
      13A    -11.220724    14A    -11.220077    15A     -1.297306
      16A     -1.222031    17A     -1.134896    18A     -1.118521
      19A     -1.051535    20A     -1.010102    21A     -1.001595
      22A     -0.932076    23A     -0.858918    24A     -0.841061
      25A     -0.819995    26A     -0.797010    27A     -0.723858
      28A     -0.716485    29A     -0.676744    30A     -0.657129
      31A     -0.648964    32A     -0.616688    33A     -0.594455
      34A     -0.593812    35A     -0.586058    36A     -0.581041
      37A     -0.569270    38A     -0.560027    39A     -0.544075
      40A     -0.517838    41A     -0.509195    42A     -0.493562
      43A     -0.482710    44A     -0.456861    45A     -0.411974
      46A     -0.401693    47A     -0.334449    48A     -0.329205
      49A     -0.277560

  @DF-RHF Final Energy:  -570.43581118191878

   => Energetics <=

    Nuclear Repulsion Energy =            793.1277390979000756
    One-Electron Energy =               -2346.2007872977696934
    Two-Electron Energy =                 982.6372370179508380
    Total Energy =                       -570.4358111819187798
  Basis Set: (AUG-CC-PVTZ AUX)
    Blend: AUG-CC-PVTZ-RI
    Molecular point group: c1

    Geometry (in Angstrom), charge = 0, multiplicity = 1:

       Center              X                  Y                   Z               Mass
    ------------   -----------------  -----------------  -----------------  -----------------
         N           -0.447813156737     1.063607407764    -0.310194810059    14.003074004430
         N            1.052187843263    -0.727187592236    -0.007127810059    14.003074004430
         C           -1.666435156737     0.389508407764    -0.118095810059    12.000000000000
         C            0.848511843263     0.589374407764    -0.148888810059    12.000000000000
         C            3.446217843263    -0.326755592236     0.118606189941    12.000000000000
         C            1.912471843263     1.516229407764    -0.174342810059    12.000000000000
         C            3.020583543263     1.115868807764    -0.057120310059    12.000000000000
         C           -2.775163156737     1.163565407764     0.263968189941    12.000000000000
         C           -1.843048156737    -0.980030592236    -0.373914810059    12.000000000000
         C            2.323966843263    -1.151869592236     0.123197189941    12.000000000000
         C            4.836694843263    -0.878954592236     0.268324189941    12.000000000000
         C           -4.031893156737     0.582230407764     0.411101189941    12.000000000000
         C           -3.104730156737    -1.551598592236    -0.203862810059    12.000000000000
         C           -4.205696156737    -0.783446592236     0.178284189941    12.000000000000
         H           -0.524720156737     2.071935407764    -0.234233810059     1.007825032230
         H            1.716630843263     2.579828407764    -0.296370810059     1.007825032230
         H            4.040498843263     1.750234407764    -0.050244810059     1.007825032230
         H           -2.644201156737     2.226790407764     0.464038189941     1.007825032230
         H           -0.995972156737    -1.582580592236    -0.672046810059     1.007825032230
         H            2.439847843263    -2.229983592236     0.239555189941     1.007825032230
         H            5.453126843263    -0.645471592236    -0.605757810059     1.007825032230
         H            5.337218843263    -0.460574592236     1.147472189941     1.007825032230
         H            4.812226843263    -1.966317592236     0.381446189941     1.007825032230
         H           -4.874871156737     1.200778407764     0.710451189941     1.007825032230
         H           -3.227116156737    -2.615275592236    -0.395903810059     1.007825032230
         H           -5.183227156737    -1.242584592236     0.300281189941     1.007825032230

  Basis Set: AUG-CC-PVTZ
    Blend: AUG-CC-PVTZ
  Basis Set: (AUG-CC-PVTZ AUX)
    Blend: AUG-CC-PVTZ-JKFIT
	 Reference Energy          =    -570.4358111819187798 [Eh]
	 Singles Energy            =      -0.0000000000000000 [Eh]
	 Same-Spin Energy          =      -0.6351674282479608 [Eh]
	 Opposite-Spin Energy      =      -1.9712802507765137 [Eh]
	 Correlation Energy        =      -2.6064476790244746 [Eh]
	 Total Energy              =    -573.0422588609432069 [Eh]

	 ================> DF-SCS-MP2 Energies <==================
	-----------------------------------------------------------
	 SCS Same-Spin Scale       =       0.3333333333333333 [-]
	 SCS Opposite-Spin Scale   =       1.2000000000000000 [-]
	 SCS Same-Spin Energy      =      -0.2117224760826536 [Eh]
	 SCS Opposite-Spin Energy  =      -2.3655363009318164 [Eh]
	 SCS Correlation Energy    =      -2.5772587770144701 [Eh]
	 SCS Total Energy          =    -573.0130699589332153 [Eh]
	-----------------------------------------------------------

  Dipole Moment: [D]
     X:     1.5547      Y:     1.9351      Z:     0.1438     Total:     2.4864

*** Psi4 exiting successfully. Buy a developer a beer!
