                               Psi4 1.4a3.dev225

  ==> Input File <==

--------------------------------------------------------------------------
#psi4
#
memory 32 gb

molecule  {
0 1
  N       -0.4914050     1.0723760    -0.3164170
  N        1.0085960    -0.7184190    -0.0133500
  C       -1.7100270     0.3982770    -0.1243180
  C        0.8049200     0.5981430    -0.1551110
  C        3.4026260    -0.3179870     0.1123840
  C        1.8688800     1.5249980    -0.1805650
  C        3.1641670     1.0570110    -0.0435420
  C       -2.7398498     1.1172464     0.2305555
  C       -1.8866400    -0.9712620    -0.3801370
  C        2.2803750    -1.1431010     0.1169750
  C        4.7931030    -0.8701860     0.2621020
  C       -4.0754850     0.5909990     0.4048790
  C       -3.1483220    -1.5428300    -0.2100850
  C       -4.2492880    -0.7746780     0.1720620
  H       -0.5683120     2.0807040    -0.2404560
  H        1.6730390     2.5885970    -0.3025930
  H        3.9969070     1.7590030    -0.0564670
  H       -2.6877930     2.2355590     0.4578160
  H       -1.0395640    -1.5738120    -0.6782690
  H        2.3962560    -2.2212150     0.2333330
  H        5.4095350    -0.6367030    -0.6119800
  H        5.2936270    -0.4518060     1.1412500
  H        4.7686350    -1.9575490     0.3752240
  H       -4.9184630     1.2095470     0.7042290
  H       -3.2707080    -2.6065070    -0.4021260
  H       -5.2268190    -1.2338160     0.2940590
units angstrom
no_reorient  #important for SAPT in psi4, default
symmetry c1  #important for SAPT in psi4, default
}

set PROPERTIES_ORIGIN ["COM"]
properties('MP2/aug-cc-pvtz', properties = ['dipole'])
--------------------------------------------------------------------------

    Molecular point group: c1
  Charge       = 0
  Multiplicity = 1
  Basis Set: AUG-CC-PVTZ
    Blend: AUG-CC-PVTZ
  Basis Set: (AUG-CC-PVTZ AUX)
    Blend: AUG-CC-PVTZ-JKFIT

    Orbital Energies [Eh]
    ---------------------

    Doubly Occupied:

       1A    -15.585435     2A    -15.552610     3A    -11.321864
       4A    -11.272075     5A    -11.268484     6A    -11.257672
       7A    -11.239043     8A    -11.237560     9A    -11.234176
      10A    -11.229646    11A    -11.228249    12A    -11.226690
      13A    -11.224042    14A    -11.221569    15A     -1.292865
      16A     -1.221989    17A     -1.136666    18A     -1.096064
      19A     -1.047911    20A     -1.005402    21A     -0.997791
      22A     -0.934340    23A     -0.867281    24A     -0.844223
      25A     -0.819386    26A     -0.798511    27A     -0.725285
      28A     -0.714303    29A     -0.666294    30A     -0.651941
      31A     -0.634943    32A     -0.627457    33A     -0.597787
      34A     -0.595453    35A     -0.589600    36A     -0.572592
      37A     -0.567650    38A     -0.561181    39A     -0.545869
      40A     -0.519053    41A     -0.514340    42A     -0.502788
      43A     -0.483181    44A     -0.452997    45A     -0.413925
      46A     -0.380726    47A     -0.344375    48A     -0.322680
      49A     -0.281765

  @DF-RHF Final Energy:  -570.48581281283384

   => Energetics <=

    Nuclear Repulsion Energy =            792.4249526131624179
    One-Electron Energy =               -2344.9660757463839218
    Two-Electron Energy =                 982.0553103203875480
    Total Energy =                       -570.4858128128338421
  Basis Set: (AUG-CC-PVTZ AUX)
    Blend: AUG-CC-PVTZ-RI
    Molecular point group: c1

    Geometry (in Angstrom), charge = 0, multiplicity = 1:

       Center              X                  Y                   Z               Mass
    ------------   -----------------  -----------------  -----------------  -----------------
         N           -0.465156802368     1.071606145477    -0.309713115455    14.003074004430
         N            1.034844197632    -0.719188854523    -0.006646115455    14.003074004430
         C           -1.683778802368     0.397507145477    -0.117614115455    12.000000000000
         C            0.831168197632     0.597373145477    -0.148407115455    12.000000000000
         C            3.428874197632    -0.318756854523     0.119087884545    12.000000000000
         C            1.895128197632     1.524228145477    -0.173861115455    12.000000000000
         C            3.190415197632     1.056241145477    -0.036838115455    12.000000000000
         C           -2.713601602368     1.116476545477     0.237259384545    12.000000000000
         C           -1.860391802368    -0.972031854523    -0.373433115455    12.000000000000
         C            2.306623197632    -1.143870854523     0.123678884545    12.000000000000
         C            4.819351197632    -0.870955854523     0.268805884545    12.000000000000
         C           -4.049236802368     0.590229145477     0.411582884545    12.000000000000
         C           -3.122073802368    -1.543599854523    -0.203381115455    12.000000000000
         C           -4.223039802368    -0.775447854523     0.178765884545    12.000000000000
         H           -0.542063802368     2.079934145477    -0.233752115455     1.007825032230
         H            1.699287197632     2.587827145477    -0.295889115455     1.007825032230
         H            4.023155197632     1.758233145477    -0.049763115455     1.007825032230
         H           -2.661544802368     2.234789145477     0.464519884545     1.007825032230
         H           -1.013315802368    -1.574581854523    -0.671565115455     1.007825032230
         H            2.422504197632    -2.221984854523     0.240036884545     1.007825032230
         H            5.435783197632    -0.637472854523    -0.605276115455     1.007825032230
         H            5.319875197632    -0.452575854523     1.147953884545     1.007825032230
         H            4.794883197632    -1.958318854523     0.381927884545     1.007825032230
         H           -4.892214802368     1.208777145477     0.710932884545     1.007825032230
         H           -3.244459802368    -2.607276854523    -0.395422115455     1.007825032230
         H           -5.200570802368    -1.234585854523     0.300762884545     1.007825032230

  Basis Set: AUG-CC-PVTZ
    Blend: AUG-CC-PVTZ
  Basis Set: (AUG-CC-PVTZ AUX)
    Blend: AUG-CC-PVTZ-JKFIT
	 Reference Energy          =    -570.4858128128338421 [Eh]
	 Singles Energy            =      -0.0000000000000000 [Eh]
	 Same-Spin Energy          =      -0.6362586209139004 [Eh]
	 Opposite-Spin Energy      =      -1.9712748631852528 [Eh]
	 Correlation Energy        =      -2.6075334840991533 [Eh]
	 Total Energy              =    -573.0933462969329639 [Eh]

	 ================> DF-SCS-MP2 Energies <==================
	-----------------------------------------------------------
	 SCS Same-Spin Scale       =       0.3333333333333333 [-]
	 SCS Opposite-Spin Scale   =       1.2000000000000000 [-]
	 SCS Same-Spin Energy      =      -0.2120862069713001 [Eh]
	 SCS Opposite-Spin Energy  =      -2.3655298358223034 [Eh]
	 SCS Correlation Energy    =      -2.5776160427936037 [Eh]
	 SCS Total Energy          =    -573.0634288556274214 [Eh]
	-----------------------------------------------------------

  Dipole Moment: [D]
     X:     1.6686      Y:     1.7826      Z:     0.1764     Total:     2.4481

*** Psi4 exiting successfully. Buy a developer a beer!
