                               Psi4 1.4a3.dev225

  ==> Input File <==

--------------------------------------------------------------------------
#psi4
#
memory 32 gb

molecule  {
0 1
  N       -0.4914050     1.0723760    -0.3164170
  N        1.0085960    -0.7184190    -0.0133500
  C       -1.7100270     0.3982770    -0.1243180
  C        0.8049200     0.5981430    -0.1551110
  C        3.4026260    -0.3179870     0.1123840
  C        1.8688800     1.5249980    -0.1805650
  C        3.1454495     1.0637736    -0.0455220
  C       -2.8187550     1.1723340     0.2577460
  C       -1.8866400    -0.9712620    -0.3801370
  C        2.2803750    -1.1431010     0.1169750
  C        4.7931030    -0.8701860     0.2621020
  C       -4.0754850     0.5909990     0.4048790
  C       -3.1483220    -1.5428300    -0.2100850
  C       -4.2492880    -0.7746780     0.1720620
  H       -0.5683120     2.0807040    -0.2404560
  H        1.6730390     2.5885970    -0.3025930
  H        3.9969070     1.7590030    -0.0564670
  H       -2.6877930     2.2355590     0.4578160
  H       -1.0395640    -1.5738120    -0.6782690
  H        2.3962560    -2.2212150     0.2333330
  H        5.4095350    -0.6367030    -0.6119800
  H        5.2936270    -0.4518060     1.1412500
  H        4.7686350    -1.9575490     0.3752240
  H       -4.9184630     1.2095470     0.7042290
  H       -3.2707080    -2.6065070    -0.4021260
  H       -5.2268190    -1.2338160     0.2940590
units angstrom
no_reorient  #important for SAPT in psi4, default
symmetry c1  #important for SAPT in psi4, default
}

set PROPERTIES_ORIGIN ["COM"]
properties('MP2/aug-cc-pvtz', properties = ['dipole'])
--------------------------------------------------------------------------

    Molecular point group: c1
  Charge       = 0
  Multiplicity = 1
  Basis Set: AUG-CC-PVTZ
    Blend: AUG-CC-PVTZ
  Basis Set: (AUG-CC-PVTZ AUX)
    Blend: AUG-CC-PVTZ-JKFIT

    Orbital Energies [Eh]
    ---------------------

    Doubly Occupied:

       1A    -15.589774     2A    -15.552804     3A    -11.323533
       4A    -11.281128     5A    -11.271474     6A    -11.257857
       7A    -11.237460     8A    -11.235432     9A    -11.233900
      10A    -11.230446    11A    -11.229043    12A    -11.228873
      13A    -11.221686    14A    -11.218624    15A     -1.293419
      16A     -1.220134    17A     -1.132968    18A     -1.096937
      19A     -1.047541    20A     -1.008234    21A     -0.994101
      22A     -0.934634    23A     -0.866808    24A     -0.841702
      25A     -0.821355    26A     -0.797742    27A     -0.723252
      28A     -0.715908    29A     -0.671115    30A     -0.653351
      31A     -0.638316    32A     -0.620628    33A     -0.595012
      34A     -0.593586    35A     -0.588324    36A     -0.579699
      37A     -0.569296    38A     -0.561677    39A     -0.546460
      40A     -0.519588    41A     -0.511122    42A     -0.504420
      43A     -0.487445    44A     -0.454154    45A     -0.413406
      46A     -0.383668    47A     -0.336226    48A     -0.330514
      49A     -0.277088

  @DF-RHF Final Energy:  -570.49878985333510

   => Energetics <=

    Nuclear Repulsion Energy =            790.9663917381309375
    One-Electron Energy =               -2342.0466394278123516
    Two-Electron Energy =                 980.5814578363464307
    Total Energy =                       -570.4987898533350972
  Basis Set: (AUG-CC-PVTZ AUX)
    Blend: AUG-CC-PVTZ-RI
    Molecular point group: c1

    Geometry (in Angstrom), charge = 0, multiplicity = 1:

       Center              X                  Y                   Z               Mass
    ------------   -----------------  -----------------  -----------------  -----------------
         N           -0.458793564497     1.067574628883    -0.311356384985    14.003074004430
         N            1.041207435503    -0.723220371117    -0.008289384985    14.003074004430
         C           -1.677415564497     0.393475628883    -0.119257384985    12.000000000000
         C            0.837531435503     0.593341628883    -0.150050384985    12.000000000000
         C            3.435237435503    -0.322788371117     0.117444615015    12.000000000000
         C            1.901491435503     1.520196628883    -0.175504384985    12.000000000000
         C            3.178060935503     1.058972228883    -0.040461384985    12.000000000000
         C           -2.786143564497     1.167532628883     0.262806615015    12.000000000000
         C           -1.854028564497    -0.976063371117    -0.375076384985    12.000000000000
         C            2.312986435503    -1.147902371117     0.122035615015    12.000000000000
         C            4.825714435503    -0.874987371117     0.267162615015    12.000000000000
         C           -4.042873564497     0.586197628883     0.409939615015    12.000000000000
         C           -3.115710564497    -1.547631371117    -0.205024384985    12.000000000000
         C           -4.216676564497    -0.779479371117     0.177122615015    12.000000000000
         H           -0.535700564497     2.075902628883    -0.235395384985     1.007825032230
         H            1.705650435503     2.583795628883    -0.297532384985     1.007825032230
         H            4.029518435503     1.754201628883    -0.051406384985     1.007825032230
         H           -2.655181564497     2.230757628883     0.462876615015     1.007825032230
         H           -1.006952564497    -1.578613371117    -0.673208384985     1.007825032230
         H            2.428867435503    -2.226016371117     0.238393615015     1.007825032230
         H            5.442146435503    -0.641504371117    -0.606919384985     1.007825032230
         H            5.326238435503    -0.456607371117     1.146310615015     1.007825032230
         H            4.801246435503    -1.962350371117     0.380284615015     1.007825032230
         H           -4.885851564497     1.204745628883     0.709289615015     1.007825032230
         H           -3.238096564497    -2.611308371117    -0.397065384985     1.007825032230
         H           -5.194207564497    -1.238617371117     0.299119615015     1.007825032230

  Basis Set: AUG-CC-PVTZ
    Blend: AUG-CC-PVTZ
  Basis Set: (AUG-CC-PVTZ AUX)
    Blend: AUG-CC-PVTZ-JKFIT
	 Reference Energy          =    -570.4987898533350972 [Eh]
	 Singles Energy            =      -0.0000000000000000 [Eh]
	 Same-Spin Energy          =      -0.6362704494119291 [Eh]
	 Opposite-Spin Energy      =      -1.9707344426707714 [Eh]
	 Correlation Energy        =      -2.6070048920827005 [Eh]
	 Total Energy              =    -573.1057947454178247 [Eh]

	 ================> DF-SCS-MP2 Energies <==================
	-----------------------------------------------------------
	 SCS Same-Spin Scale       =       0.3333333333333333 [-]
	 SCS Opposite-Spin Scale   =       1.2000000000000000 [-]
	 SCS Same-Spin Energy      =      -0.2120901498039764 [Eh]
	 SCS Opposite-Spin Energy  =      -2.3648813312049257 [Eh]
	 SCS Correlation Energy    =      -2.5769714810089019 [Eh]
	 SCS Total Energy          =    -573.0757613343439516 [Eh]
	-----------------------------------------------------------

  Dipole Moment: [D]
     X:     1.8460      Y:     1.8614      Z:     0.1615     Total:     2.6265

*** Psi4 exiting successfully. Buy a developer a beer!
