                               Psi4 1.4a3.dev225

  ==> Input File <==

--------------------------------------------------------------------------
#psi4
#
memory 32 gb

molecule  {
0 1
  N       -0.4914050     1.0723760    -0.3164170
  N        1.0085960    -0.7184190    -0.0133500
  C       -1.7100270     0.3982770    -0.1243180
  C        0.8049200     0.5981430    -0.1551110
  C        3.4026260    -0.3179870     0.1123840
  C        1.8688800     1.5249980    -0.1805650
  C        3.1641670     1.0570110    -0.0435420
  C       -2.8187550     1.1723340     0.2577460
  C       -1.8866400    -0.9712620    -0.3801370
  C        2.2803750    -1.1431010     0.1169750
  C        4.7931030    -0.8701860     0.2621020
  C       -4.0754850     0.5909990     0.4048790
  C       -3.1483220    -1.5428300    -0.2100850
  C       -4.2492880    -0.7746780     0.1720620
  H       -0.5683120     2.0807040    -0.2404560
  H        1.7090279     2.3931438    -0.2801684
  H        3.9969070     1.7590030    -0.0564670
  H       -2.6877930     2.2355590     0.4578160
  H       -1.0395640    -1.5738120    -0.6782690
  H        2.3962560    -2.2212150     0.2333330
  H        5.4095350    -0.6367030    -0.6119800
  H        5.2936270    -0.4518060     1.1412500
  H        4.7686350    -1.9575490     0.3752240
  H       -4.9184630     1.2095470     0.7042290
  H       -3.2707080    -2.6065070    -0.4021260
  H       -5.2268190    -1.2338160     0.2940590
units angstrom
no_reorient  #important for SAPT in psi4, default
symmetry c1  #important for SAPT in psi4, default
}

set PROPERTIES_ORIGIN ["COM"]
properties('MP2/aug-cc-pvtz', properties = ['dipole'])
--------------------------------------------------------------------------

    Molecular point group: c1
  Charge       = 0
  Multiplicity = 1
  Basis Set: AUG-CC-PVTZ
    Blend: AUG-CC-PVTZ
  Basis Set: (AUG-CC-PVTZ AUX)
    Blend: AUG-CC-PVTZ-JKFIT

    Orbital Energies [Eh]
    ---------------------

    Doubly Occupied:

       1A    -15.589543     2A    -15.552276     3A    -11.321452
       4A    -11.281106     5A    -11.272215     6A    -11.257070
       7A    -11.234101     8A    -11.233810     9A    -11.230355
      10A    -11.228727    11A    -11.228220    12A    -11.221532
      13A    -11.218471    14A    -11.214686    15A     -1.293035
      16A     -1.219579    17A     -1.133019    18A     -1.099070
      19A     -1.052396    20A     -1.008138    21A     -0.994070
      22A     -0.934478    23A     -0.877497    24A     -0.845955
      25A     -0.824928    26A     -0.798006    27A     -0.725953
      28A     -0.717439    29A     -0.677877    30A     -0.669052
      31A     -0.648678    32A     -0.622493    33A     -0.596448
      34A     -0.593597    35A     -0.588303    36A     -0.579728
      37A     -0.569054    38A     -0.561814    39A     -0.546587
      40A     -0.521377    41A     -0.511640    42A     -0.504628
      43A     -0.487486    44A     -0.454004    45A     -0.414336
      46A     -0.380514    47A     -0.336279    48A     -0.330478
      49A     -0.276842

  @DF-RHF Final Energy:  -570.46479948456101

   => Energetics <=

    Nuclear Repulsion Energy =            791.9660504126759406
    One-Electron Energy =               -2343.9050104487523640
    Two-Electron Energy =                 981.4741605515154106
    Total Energy =                       -570.4647994845610128
  Basis Set: (AUG-CC-PVTZ AUX)
    Blend: AUG-CC-PVTZ-RI
    Molecular point group: c1

    Geometry (in Angstrom), charge = 0, multiplicity = 1:

       Center              X                  Y                   Z               Mass
    ------------   -----------------  -----------------  -----------------  -----------------
         N           -0.460210622866     1.069085404301    -0.311608204979    14.003074004430
         N            1.039790377134    -0.721709595699    -0.008541204979    14.003074004430
         C           -1.678832622866     0.394986404301    -0.119509204979    12.000000000000
         C            0.836114377134     0.594852404301    -0.150302204979    12.000000000000
         C            3.433820377134    -0.321277595699     0.117192795021    12.000000000000
         C            1.900074377134     1.521707404301    -0.175756204979    12.000000000000
         C            3.195361377134     1.053720404301    -0.038733204979    12.000000000000
         C           -2.787560622866     1.169043404301     0.262554795021    12.000000000000
         C           -1.855445622866    -0.974552595699    -0.375328204979    12.000000000000
         C            2.311569377134    -1.146391595699     0.121783795021    12.000000000000
         C            4.824297377134    -0.873476595699     0.266910795021    12.000000000000
         C           -4.044290622866     0.587708404301     0.409687795021    12.000000000000
         C           -3.117127622866    -1.546120595699    -0.205276204979    12.000000000000
         C           -4.218093622866    -0.777968595699     0.176870795021    12.000000000000
         H           -0.537117622866     2.077413404301    -0.235647204979     1.007825032230
         H            1.740222277134     2.389853204301    -0.275359604979     1.007825032230
         H            4.028101377134     1.755712404301    -0.051658204979     1.007825032230
         H           -2.656598622866     2.232268404301     0.462624795021     1.007825032230
         H           -1.008369622866    -1.577102595699    -0.673460204979     1.007825032230
         H            2.427450377134    -2.224505595699     0.238141795021     1.007825032230
         H            5.440729377134    -0.639993595699    -0.607171204979     1.007825032230
         H            5.324821377134    -0.455096595699     1.146058795021     1.007825032230
         H            4.799829377134    -1.960839595699     0.380032795021     1.007825032230
         H           -4.887268622866     1.206256404301     0.709037795021     1.007825032230
         H           -3.239513622866    -2.609797595699    -0.397317204979     1.007825032230
         H           -5.195624622866    -1.237106595699     0.298867795021     1.007825032230

  Basis Set: AUG-CC-PVTZ
    Blend: AUG-CC-PVTZ
  Basis Set: (AUG-CC-PVTZ AUX)
    Blend: AUG-CC-PVTZ-JKFIT
	 Reference Energy          =    -570.4647994845610128 [Eh]
	 Singles Energy            =      -0.0000000000000000 [Eh]
	 Same-Spin Energy          =      -0.6360952421087637 [Eh]
	 Opposite-Spin Energy      =      -1.9700724974284272 [Eh]
	 Correlation Energy        =      -2.6061677395371907 [Eh]
	 Total Energy              =    -573.0709672240982400 [Eh]

	 ================> DF-SCS-MP2 Energies <==================
	-----------------------------------------------------------
	 SCS Same-Spin Scale       =       0.3333333333333333 [-]
	 SCS Opposite-Spin Scale   =       1.2000000000000000 [-]
	 SCS Same-Spin Energy      =      -0.2120317473695879 [Eh]
	 SCS Opposite-Spin Energy  =      -2.3640869969141125 [Eh]
	 SCS Correlation Energy    =      -2.5761187442837006 [Eh]
	 SCS Total Energy          =    -573.0409182288447028 [Eh]
	-----------------------------------------------------------

  Dipole Moment: [D]
     X:     1.8423      Y:     1.8910      Z:     0.1586     Total:     2.6448

*** Psi4 exiting successfully. Buy a developer a beer!
