                               Psi4 1.4a3.dev225

  ==> Input File <==

--------------------------------------------------------------------------
#psi4
#
memory 32 gb

molecule  {
0 1
  N       -0.4331669     0.9414719    -0.3499693
  N        1.0085960    -0.7184190    -0.0133500
  C       -1.7100270     0.3982770    -0.1243180
  C        0.8049200     0.5981430    -0.1551110
  C        3.4026260    -0.3179870     0.1123840
  C        1.8688800     1.5249980    -0.1805650
  C        3.1641670     1.0570110    -0.0435420
  C       -2.8187550     1.1723340     0.2577460
  C       -1.8866400    -0.9712620    -0.3801370
  C        2.2803750    -1.1431010     0.1169750
  C        4.7931030    -0.8701860     0.2621020
  C       -4.0754850     0.5909990     0.4048790
  C       -3.1483220    -1.5428300    -0.2100850
  C       -4.2492880    -0.7746780     0.1720620
  H       -0.5683120     2.0807040    -0.2404560
  H        1.6730390     2.5885970    -0.3025930
  H        3.9969070     1.7590030    -0.0564670
  H       -2.6877930     2.2355590     0.4578160
  H       -1.0395640    -1.5738120    -0.6782690
  H        2.3962560    -2.2212150     0.2333330
  H        5.4095350    -0.6367030    -0.6119800
  H        5.2936270    -0.4518060     1.1412500
  H        4.7686350    -1.9575490     0.3752240
  H       -4.9184630     1.2095470     0.7042290
  H       -3.2707080    -2.6065070    -0.4021260
  H       -5.2268190    -1.2338160     0.2940590
units angstrom
no_reorient  #important for SAPT in psi4, default
symmetry c1  #important for SAPT in psi4, default
}

set PROPERTIES_ORIGIN ["COM"]
properties('MP2/aug-cc-pvtz', properties = ['dipole'])
--------------------------------------------------------------------------

    Molecular point group: c1
  Charge       = 0
  Multiplicity = 1
  Basis Set: AUG-CC-PVTZ
    Blend: AUG-CC-PVTZ
  Basis Set: (AUG-CC-PVTZ AUX)
    Blend: AUG-CC-PVTZ-JKFIT

    Orbital Energies [Eh]
    ---------------------

    Doubly Occupied:

       1A    -15.601049     2A    -15.543277     3A    -11.315537
       4A    -11.287224     5A    -11.268433     6A    -11.255750
       7A    -11.238664     8A    -11.236815     9A    -11.233808
      10A    -11.232468    11A    -11.227785    12A    -11.226449
      13A    -11.224818    14A    -11.220447    15A     -1.310790
      16A     -1.214663    17A     -1.139302    18A     -1.092028
      19A     -1.045822    20A     -1.012267    21A     -0.998488
      22A     -0.928207    23A     -0.869086    24A     -0.847457
      25A     -0.826285    26A     -0.791573    27A     -0.734308
      28A     -0.706067    29A     -0.674128    30A     -0.641616
      31A     -0.635323    32A     -0.621179    33A     -0.600873
      34A     -0.597793    35A     -0.586490    36A     -0.577194
      37A     -0.570252    38A     -0.554824    39A     -0.540132
      40A     -0.516430    41A     -0.510287    42A     -0.506196
      43A     -0.487595    44A     -0.457687    45A     -0.411208
      46A     -0.378132    47A     -0.338311    48A     -0.333408
      49A     -0.273809

  @DF-RHF Final Energy:  -570.46843891558842

   => Energetics <=

    Nuclear Repulsion Energy =            792.7227767124181810
    One-Electron Energy =               -2345.4989671985936184
    Two-Electron Energy =                 982.3077515705870155
    Total Energy =                       -570.4684389155884219
  Basis Set: (AUG-CC-PVTZ AUX)
    Blend: AUG-CC-PVTZ-RI
    Molecular point group: c1

    Geometry (in Angstrom), charge = 0, multiplicity = 1:

       Center              X                  Y                   Z               Mass
    ------------   -----------------  -----------------  -----------------  -----------------
         N           -0.406205231747     0.947068195893    -0.342485679973    14.003074004430
         N            1.035557668253    -0.712822704107    -0.005866379973    14.003074004430
         C           -1.683065331747     0.403873295893    -0.116834379973    12.000000000000
         C            0.831881668253     0.603739295893    -0.147627379973    12.000000000000
         C            3.429587668253    -0.312390704107     0.119867620027    12.000000000000
         C            1.895841668253     1.530594295893    -0.173081379973    12.000000000000
         C            3.191128668253     1.062607295893    -0.036058379973    12.000000000000
         C           -2.791793331747     1.177930295893     0.265229620027    12.000000000000
         C           -1.859678331747    -0.965665704107    -0.372653379973    12.000000000000
         C            2.307336668253    -1.137504704107     0.124458620027    12.000000000000
         C            4.820064668253    -0.864589704107     0.269585620027    12.000000000000
         C           -4.048523331747     0.596595295893     0.412362620027    12.000000000000
         C           -3.121360331747    -1.537233704107    -0.202601379973    12.000000000000
         C           -4.222326331747    -0.769081704107     0.179545620027    12.000000000000
         H           -0.541350331747     2.086300295893    -0.232972379973     1.007825032230
         H            1.700000668253     2.594193295893    -0.295109379973     1.007825032230
         H            4.023868668253     1.764599295893    -0.048983379973     1.007825032230
         H           -2.660831331747     2.241155295893     0.465299620027     1.007825032230
         H           -1.012602331747    -1.568215704107    -0.670785379973     1.007825032230
         H            2.423217668253    -2.215618704107     0.240816620027     1.007825032230
         H            5.436496668253    -0.631106704107    -0.604496379973     1.007825032230
         H            5.320588668253    -0.446209704107     1.148733620027     1.007825032230
         H            4.795596668253    -1.951952704107     0.382707620027     1.007825032230
         H           -4.891501331747     1.215143295893     0.711712620027     1.007825032230
         H           -3.243746331747    -2.600910704107    -0.394642379973     1.007825032230
         H           -5.199857331747    -1.228219704107     0.301542620027     1.007825032230

  Basis Set: AUG-CC-PVTZ
    Blend: AUG-CC-PVTZ
  Basis Set: (AUG-CC-PVTZ AUX)
    Blend: AUG-CC-PVTZ-JKFIT
	 Reference Energy          =    -570.4684389155884219 [Eh]
	 Singles Energy            =      -0.0000000000000000 [Eh]
	 Same-Spin Energy          =      -0.6382013644998648 [Eh]
	 Opposite-Spin Energy      =      -1.9743809429634840 [Eh]
	 Correlation Energy        =      -2.6125823074633487 [Eh]
	 Total Energy              =    -573.0810212230517209 [Eh]

	 ================> DF-SCS-MP2 Energies <==================
	-----------------------------------------------------------
	 SCS Same-Spin Scale       =       0.3333333333333333 [-]
	 SCS Opposite-Spin Scale   =       1.2000000000000000 [-]
	 SCS Same-Spin Energy      =      -0.2127337881666216 [Eh]
	 SCS Opposite-Spin Energy  =      -2.3692571315561808 [Eh]
	 SCS Correlation Energy    =      -2.5819909197228021 [Eh]
	 SCS Total Energy          =    -573.0504298353112063 [Eh]
	-----------------------------------------------------------

  Dipole Moment: [D]
     X:     1.1275      Y:     1.9063      Z:     0.1718     Total:     2.2214

*** Psi4 exiting successfully. Buy a developer a beer!
