                               Psi4 1.4a3.dev225

  ==> Input File <==

--------------------------------------------------------------------------
#psi4
#
memory 32 gb

molecule  {
0 1
  N       -0.4914050     1.0723760    -0.3164170
  N        1.0085960    -0.7184190    -0.0133500
  C       -1.7100270     0.3982770    -0.1243180
  C        0.8049200     0.5981430    -0.1551110
  C        3.4026260    -0.3179870     0.1123840
  C        1.8688800     1.5249980    -0.1805650
  C        3.1641670     1.0570110    -0.0435420
  C       -2.8187550     1.1723340     0.2577460
  C       -1.8866400    -0.9712620    -0.3801370
  C        2.1998079    -1.2023364     0.1173046
  C        4.7931030    -0.8701860     0.2621020
  C       -4.0754850     0.5909990     0.4048790
  C       -3.1483220    -1.5428300    -0.2100850
  C       -4.2492880    -0.7746780     0.1720620
  H       -0.5683120     2.0807040    -0.2404560
  H        1.6730390     2.5885970    -0.3025930
  H        3.9969070     1.7590030    -0.0564670
  H       -2.6877930     2.2355590     0.4578160
  H       -1.0395640    -1.5738120    -0.6782690
  H        2.3962560    -2.2212150     0.2333330
  H        5.4095350    -0.6367030    -0.6119800
  H        5.2936270    -0.4518060     1.1412500
  H        4.7686350    -1.9575490     0.3752240
  H       -4.9184630     1.2095470     0.7042290
  H       -3.2707080    -2.6065070    -0.4021260
  H       -5.2268190    -1.2338160     0.2940590
units angstrom
no_reorient  #important for SAPT in psi4, default
symmetry c1  #important for SAPT in psi4, default
}

set PROPERTIES_ORIGIN ["COM"]
properties('MP2/aug-cc-pvtz', properties = ['dipole'])
--------------------------------------------------------------------------

    Molecular point group: c1
  Charge       = 0
  Multiplicity = 1
  Basis Set: AUG-CC-PVTZ
    Blend: AUG-CC-PVTZ
  Basis Set: (AUG-CC-PVTZ AUX)
    Blend: AUG-CC-PVTZ-JKFIT

    Orbital Energies [Eh]
    ---------------------

    Doubly Occupied:

       1A    -15.588320     2A    -15.554831     3A    -11.323282
       4A    -11.280996     5A    -11.279540     6A    -11.253430
       7A    -11.242220     8A    -11.235689     9A    -11.233773
      10A    -11.230523    11A    -11.228295    12A    -11.228271
      13A    -11.221215    14A    -11.218461    15A     -1.297544
      16A     -1.227468    17A     -1.133155    18A     -1.092871
      19A     -1.042533    20A     -1.008099    21A     -0.991762
      22A     -0.934860    23A     -0.867976    24A     -0.837563
      25A     -0.822113    26A     -0.796502    27A     -0.728547
      28A     -0.716585    29A     -0.670232    30A     -0.655483
      31A     -0.638582    32A     -0.622944    33A     -0.596937
      34A     -0.594498    35A     -0.588001    36A     -0.579877
      37A     -0.569977    38A     -0.564911    39A     -0.548124
      40A     -0.521105    41A     -0.512484    42A     -0.504500
      43A     -0.487290    44A     -0.453738    45A     -0.403852
      46A     -0.388880    47A     -0.332495    48A     -0.328352
      49A     -0.269648

  @DF-RHF Final Energy:  -570.48724493239820

   => Energetics <=

    Nuclear Repulsion Energy =            790.3078093504140043
    One-Electron Energy =               -2340.6934388997892711
    Two-Electron Energy =                 979.8983846169769549
    Total Energy =                       -570.4872449323981982
  Basis Set: (AUG-CC-PVTZ AUX)
    Blend: AUG-CC-PVTZ-RI
    Molecular point group: c1

    Geometry (in Angstrom), charge = 0, multiplicity = 1:

       Center              X                  Y                   Z               Mass
    ------------   -----------------  -----------------  -----------------  -----------------
         N           -0.454762087013     1.071876507166    -0.311506929214    14.003074004430
         N            1.045238912987    -0.718918492834    -0.008439929214    14.003074004430
         C           -1.673384087013     0.397777507166    -0.119407929214    12.000000000000
         C            0.841562912987     0.597643507166    -0.150200929214    12.000000000000
         C            3.439268912987    -0.318486492834     0.117294070786    12.000000000000
         C            1.905522912987     1.524498507166    -0.175654929214    12.000000000000
         C            3.200809912987     1.056511507166    -0.038631929214    12.000000000000
         C           -2.782112087013     1.171834507166     0.262656070786    12.000000000000
         C           -1.849997087013    -0.971761492834    -0.375226929214    12.000000000000
         C            2.236450812987    -1.202835892834     0.122214670786    12.000000000000
         C            4.829745912987    -0.870685492834     0.267012070786    12.000000000000
         C           -4.038842087013     0.590499507166     0.409789070786    12.000000000000
         C           -3.111679087013    -1.543329492834    -0.205174929214    12.000000000000
         C           -4.212645087013    -0.775177492834     0.176972070786    12.000000000000
         H           -0.531669087013     2.080204507166    -0.235545929214     1.007825032230
         H            1.709681912987     2.588097507166    -0.297682929214     1.007825032230
         H            4.033549912987     1.758503507166    -0.051556929214     1.007825032230
         H           -2.651150087013     2.235059507166     0.462726070786     1.007825032230
         H           -1.002921087013    -1.574311492834    -0.673358929214     1.007825032230
         H            2.432898912987    -2.221714492834     0.238243070786     1.007825032230
         H            5.446177912987    -0.637202492834    -0.607069929214     1.007825032230
         H            5.330269912987    -0.452305492834     1.146160070786     1.007825032230
         H            4.805277912987    -1.958048492834     0.380134070786     1.007825032230
         H           -4.881820087013     1.209047507166     0.709139070786     1.007825032230
         H           -3.234065087013    -2.607006492834    -0.397215929214     1.007825032230
         H           -5.190176087013    -1.234315492834     0.298969070786     1.007825032230

  Basis Set: AUG-CC-PVTZ
    Blend: AUG-CC-PVTZ
  Basis Set: (AUG-CC-PVTZ AUX)
    Blend: AUG-CC-PVTZ-JKFIT
	 Reference Energy          =    -570.4872449323981982 [Eh]
	 Singles Energy            =      -0.0000000000000000 [Eh]
	 Same-Spin Energy          =      -0.6367795786857503 [Eh]
	 Opposite-Spin Energy      =      -1.9711032155892467 [Eh]
	 Correlation Energy        =      -2.6078827942749969 [Eh]
	 Total Energy              =    -573.0951277266732404 [Eh]

	 ================> DF-SCS-MP2 Energies <==================
	-----------------------------------------------------------
	 SCS Same-Spin Scale       =       0.3333333333333333 [-]
	 SCS Opposite-Spin Scale   =       1.2000000000000000 [-]
	 SCS Same-Spin Energy      =      -0.2122598595619168 [Eh]
	 SCS Opposite-Spin Energy  =      -2.3653238587070962 [Eh]
	 SCS Correlation Energy    =      -2.5775837182690129 [Eh]
	 SCS Total Energy          =    -573.0648286506672093 [Eh]
	-----------------------------------------------------------

  Dipole Moment: [D]
     X:     1.8615      Y:     1.6973      Z:     0.1751     Total:     2.5252

*** Psi4 exiting successfully. Buy a developer a beer!
