                               Psi4 1.4a3.dev225

  ==> Input File <==

--------------------------------------------------------------------------
#psi4
#
memory 32 gb

molecule  {
0 1
  N       -0.4914050     1.0723760    -0.3164170
  N        1.0085960    -0.7184190    -0.0133500
  C       -1.6666852     0.4222522    -0.1311502
  C        0.8049200     0.5981430    -0.1551110
  C        3.4026260    -0.3179870     0.1123840
  C        1.8688800     1.5249980    -0.1805650
  C        3.1641670     1.0570110    -0.0435420
  C       -2.8187550     1.1723340     0.2577460
  C       -1.8866400    -0.9712620    -0.3801370
  C        2.2803750    -1.1431010     0.1169750
  C        4.7931030    -0.8701860     0.2621020
  C       -4.0754850     0.5909990     0.4048790
  C       -3.1483220    -1.5428300    -0.2100850
  C       -4.2492880    -0.7746780     0.1720620
  H       -0.5683120     2.0807040    -0.2404560
  H        1.6730390     2.5885970    -0.3025930
  H        3.9969070     1.7590030    -0.0564670
  H       -2.6877930     2.2355590     0.4578160
  H       -1.0395640    -1.5738120    -0.6782690
  H        2.3962560    -2.2212150     0.2333330
  H        5.4095350    -0.6367030    -0.6119800
  H        5.2936270    -0.4518060     1.1412500
  H        4.7686350    -1.9575490     0.3752240
  H       -4.9184630     1.2095470     0.7042290
  H       -3.2707080    -2.6065070    -0.4021260
  H       -5.2268190    -1.2338160     0.2940590
units angstrom
no_reorient  #important for SAPT in psi4, default
symmetry c1  #important for SAPT in psi4, default
}

set PROPERTIES_ORIGIN ["COM"]
properties('MP2/aug-cc-pvtz', properties = ['dipole'])
--------------------------------------------------------------------------

    Molecular point group: c1
  Charge       = 0
  Multiplicity = 1
  Basis Set: AUG-CC-PVTZ
    Blend: AUG-CC-PVTZ
  Basis Set: (AUG-CC-PVTZ AUX)
    Blend: AUG-CC-PVTZ-JKFIT

    Orbital Energies [Eh]
    ---------------------

    Doubly Occupied:

       1A    -15.593873     2A    -15.557019     3A    -11.325939
       4A    -11.283058     5A    -11.275009     6A    -11.260731
       7A    -11.242054     8A    -11.238289     9A    -11.231781
      10A    -11.230760    11A    -11.228280    12A    -11.227611
      13A    -11.218216    14A    -11.217974    15A     -1.303474
      16A     -1.228658    17A     -1.126690    18A     -1.099571
      19A     -1.049889    20A     -1.002957    21A     -0.989966
      22A     -0.937295    23A     -0.872691    24A     -0.844219
      25A     -0.819229    26A     -0.797711    27A     -0.727417
      28A     -0.719903    29A     -0.670114    30A     -0.657642
      31A     -0.640432    32A     -0.621065    33A     -0.599003
      34A     -0.594066    35A     -0.586950    36A     -0.575764
      37A     -0.572185    38A     -0.564728    39A     -0.548726
      40A     -0.520833    41A     -0.511404    42A     -0.504877
      43A     -0.479045    44A     -0.454942    45A     -0.416661
      46A     -0.383669    47A     -0.336443    48A     -0.327905
      49A     -0.272704

  @DF-RHF Final Energy:  -570.49482557363979

   => Energetics <=

    Nuclear Repulsion Energy =            790.8822125427468563
    One-Electron Energy =               -2341.7752331356209652
    Two-Electron Energy =                 980.3981950192343220
    Total Energy =                       -570.4948255736397869
  Basis Set: (AUG-CC-PVTZ AUX)
    Blend: AUG-CC-PVTZ-RI
    Molecular point group: c1

    Geometry (in Angstrom), charge = 0, multiplicity = 1:

       Center              X                  Y                   Z               Mass
    ------------   -----------------  -----------------  -----------------  -----------------
         N           -0.462838710637     1.066452678064    -0.311040109131    14.003074004430
         N            1.037162289363    -0.724342321936    -0.007973109131    14.003074004430
         C           -1.638118910637     0.416328878064    -0.125773309131    12.000000000000
         C            0.833486289363     0.592219678064    -0.149734109131    12.000000000000
         C            3.431192289363    -0.323910321936     0.117760890869    12.000000000000
         C            1.897446289363     1.519074678064    -0.175188109131    12.000000000000
         C            3.192733289363     1.051087678064    -0.038165109131    12.000000000000
         C           -2.790188710637     1.166410678064     0.263122890869    12.000000000000
         C           -1.858073710637    -0.977185321936    -0.374760109131    12.000000000000
         C            2.308941289363    -1.149024321936     0.122351890869    12.000000000000
         C            4.821669289363    -0.876109321936     0.267478890869    12.000000000000
         C           -4.046918710637     0.585075678064     0.410255890869    12.000000000000
         C           -3.119755710637    -1.548753321936    -0.204708109131    12.000000000000
         C           -4.220721710637    -0.780601321936     0.177438890869    12.000000000000
         H           -0.539745710637     2.074780678064    -0.235079109131     1.007825032230
         H            1.701605289363     2.582673678064    -0.297216109131     1.007825032230
         H            4.025473289363     1.753079678064    -0.051090109131     1.007825032230
         H           -2.659226710637     2.229635678064     0.463192890869     1.007825032230
         H           -1.010997710637    -1.579735321936    -0.672892109131     1.007825032230
         H            2.424822289363    -2.227138321936     0.238709890869     1.007825032230
         H            5.438101289363    -0.642626321936    -0.606603109131     1.007825032230
         H            5.322193289363    -0.457729321936     1.146626890869     1.007825032230
         H            4.797201289363    -1.963472321936     0.380600890869     1.007825032230
         H           -4.889896710637     1.203623678064     0.709605890869     1.007825032230
         H           -3.242141710637    -2.612430321936    -0.396749109131     1.007825032230
         H           -5.198252710637    -1.239739321936     0.299435890869     1.007825032230

  Basis Set: AUG-CC-PVTZ
    Blend: AUG-CC-PVTZ
  Basis Set: (AUG-CC-PVTZ AUX)
    Blend: AUG-CC-PVTZ-JKFIT
	 Reference Energy          =    -570.4948255736397869 [Eh]
	 Singles Energy            =      -0.0000000000000000 [Eh]
	 Same-Spin Energy          =      -0.6370150174188405 [Eh]
	 Opposite-Spin Energy      =      -1.9716138795570333 [Eh]
	 Correlation Energy        =      -2.6086288969758735 [Eh]
	 Total Energy              =    -573.1034544706157021 [Eh]

	 ================> DF-SCS-MP2 Energies <==================
	-----------------------------------------------------------
	 SCS Same-Spin Scale       =       0.3333333333333333 [-]
	 SCS Opposite-Spin Scale   =       1.2000000000000000 [-]
	 SCS Same-Spin Energy      =      -0.2123383391396135 [Eh]
	 SCS Opposite-Spin Energy  =      -2.3659366554684400 [Eh]
	 SCS Correlation Energy    =      -2.5782749946080536 [Eh]
	 SCS Total Energy          =    -573.0731005682478099 [Eh]
	-----------------------------------------------------------

  Dipole Moment: [D]
     X:     2.3198      Y:     1.9400      Z:     0.1309     Total:     3.0269

*** Psi4 exiting successfully. Buy a developer a beer!
