                               Psi4 1.4a3.dev225

  ==> Input File <==

--------------------------------------------------------------------------
#psi4
#
memory 32 gb

molecule  {
0 1
  N       -0.4914050     1.0723760    -0.3164170
  N        1.0085960    -0.7184190    -0.0133500
  C       -1.7100270     0.3982770    -0.1243180
  C        0.8049200     0.5981430    -0.1551110
  C        3.4026260    -0.3179870     0.1123840
  C        1.8688800     1.5249980    -0.1805650
  C        3.1641670     1.0570110    -0.0435420
  C       -2.8187550     1.1723340     0.2577460
  C       -1.8866400    -0.9712620    -0.3801370
  C        2.3609421    -1.0838656     0.1166454
  C        4.7931030    -0.8701860     0.2621020
  C       -4.0754850     0.5909990     0.4048790
  C       -3.1483220    -1.5428300    -0.2100850
  C       -4.2492880    -0.7746780     0.1720620
  H       -0.5683120     2.0807040    -0.2404560
  H        1.6730390     2.5885970    -0.3025930
  H        3.9969070     1.7590030    -0.0564670
  H       -2.6877930     2.2355590     0.4578160
  H       -1.0395640    -1.5738120    -0.6782690
  H        2.3962560    -2.2212150     0.2333330
  H        5.4095350    -0.6367030    -0.6119800
  H        5.2936270    -0.4518060     1.1412500
  H        4.7686350    -1.9575490     0.3752240
  H       -4.9184630     1.2095470     0.7042290
  H       -3.2707080    -2.6065070    -0.4021260
  H       -5.2268190    -1.2338160     0.2940590
units angstrom
no_reorient  #important for SAPT in psi4, default
symmetry c1  #important for SAPT in psi4, default
}

set PROPERTIES_ORIGIN ["COM"]
properties('MP2/aug-cc-pvtz', properties = ['dipole'])
--------------------------------------------------------------------------

    Molecular point group: c1
  Charge       = 0
  Multiplicity = 1
  Basis Set: AUG-CC-PVTZ
    Blend: AUG-CC-PVTZ
  Basis Set: (AUG-CC-PVTZ AUX)
    Blend: AUG-CC-PVTZ-JKFIT

    Orbital Energies [Eh]
    ---------------------

    Doubly Occupied:

       1A    -15.589959     2A    -15.552628     3A    -11.322615
       4A    -11.280976     5A    -11.264013     6A    -11.262895
       7A    -11.242398     8A    -11.233773     9A    -11.230204
      10A    -11.229475    11A    -11.228956    12A    -11.225140
      13A    -11.221741    14A    -11.218508    15A     -1.290132
      16A     -1.214660    17A     -1.133432    18A     -1.102352
      19A     -1.049438    20A     -1.008066    21A     -0.994402
      22A     -0.937731    23A     -0.873552    24A     -0.841500
      25A     -0.819975    26A     -0.796419    27A     -0.720455
      28A     -0.715316    29A     -0.671162    30A     -0.654094
      31A     -0.637832    32A     -0.618359    33A     -0.595857
      34A     -0.593072    35A     -0.589761    36A     -0.579404
      37A     -0.569088    38A     -0.561640    39A     -0.541512
      40A     -0.513890    41A     -0.507525    42A     -0.500186
      43A     -0.486792    44A     -0.456288    45A     -0.421214
      46A     -0.374085    47A     -0.346013    48A     -0.330840
      49A     -0.283542

  @DF-RHF Final Energy:  -570.48540801995046

   => Energetics <=

    Nuclear Repulsion Energy =            791.3731849690773288
    One-Electron Energy =               -2342.8514522197983752
    Two-Electron Energy =                 980.9928592307705912
    Total Energy =                       -570.4854080199504551
  Basis Set: (AUG-CC-PVTZ AUX)
    Blend: AUG-CC-PVTZ-RI
    Molecular point group: c1

    Geometry (in Angstrom), charge = 0, multiplicity = 1:

       Center              X                  Y                   Z               Mass
    ------------   -----------------  -----------------  -----------------  -----------------
         N           -0.465265128250     1.064154349500    -0.311463961273    14.003074004430
         N            1.034735871750    -0.726640650500    -0.008396961273    14.003074004430
         C           -1.683887128250     0.390055349500    -0.119364961273    12.000000000000
         C            0.831059871750     0.589921349500    -0.150157961273    12.000000000000
         C            3.428765871750    -0.326208650500     0.117337038727    12.000000000000
         C            1.895019871750     1.516776349500    -0.175611961273    12.000000000000
         C            3.190306871750     1.048789349500    -0.038588961273    12.000000000000
         C           -2.792615128250     1.164112349500     0.262699038727    12.000000000000
         C           -1.860500128250    -0.979483650500    -0.375183961273    12.000000000000
         C            2.387081971750    -1.092087250500     0.121598438727    12.000000000000
         C            4.819242871750    -0.878407650500     0.267055038727    12.000000000000
         C           -4.049345128250     0.582777349500     0.409832038727    12.000000000000
         C           -3.122182128250    -1.551051650500    -0.205131961273    12.000000000000
         C           -4.223148128250    -0.782899650500     0.177015038727    12.000000000000
         H           -0.542172128250     2.072482349500    -0.235502961273     1.007825032230
         H            1.699178871750     2.580375349500    -0.297639961273     1.007825032230
         H            4.023046871750     1.750781349500    -0.051513961273     1.007825032230
         H           -2.661653128250     2.227337349500     0.462769038727     1.007825032230
         H           -1.013424128250    -1.582033650500    -0.673315961273     1.007825032230
         H            2.422395871750    -2.229436650500     0.238286038727     1.007825032230
         H            5.435674871750    -0.644924650500    -0.607026961273     1.007825032230
         H            5.319766871750    -0.460027650500     1.146203038727     1.007825032230
         H            4.794774871750    -1.965770650500     0.380177038727     1.007825032230
         H           -4.892323128250     1.201325349500     0.709182038727     1.007825032230
         H           -3.244568128250    -2.614728650500    -0.397172961273     1.007825032230
         H           -5.200679128250    -1.242037650500     0.299012038727     1.007825032230

  Basis Set: AUG-CC-PVTZ
    Blend: AUG-CC-PVTZ
  Basis Set: (AUG-CC-PVTZ AUX)
    Blend: AUG-CC-PVTZ-JKFIT
	 Reference Energy          =    -570.4854080199504551 [Eh]
	 Singles Energy            =      -0.0000000000000000 [Eh]
	 Same-Spin Energy          =      -0.6358060539626095 [Eh]
	 Opposite-Spin Energy      =      -1.9717034285825161 [Eh]
	 Correlation Energy        =      -2.6075094825451255 [Eh]
	 Total Energy              =    -573.0929175024955384 [Eh]

	 ================> DF-SCS-MP2 Energies <==================
	-----------------------------------------------------------
	 SCS Same-Spin Scale       =       0.3333333333333333 [-]
	 SCS Opposite-Spin Scale   =       1.2000000000000000 [-]
	 SCS Same-Spin Energy      =      -0.2119353513208698 [Eh]
	 SCS Opposite-Spin Energy  =      -2.3660441142990192 [Eh]
	 SCS Correlation Energy    =      -2.5779794656198889 [Eh]
	 SCS Total Energy          =    -573.0633874855703880 [Eh]
	-----------------------------------------------------------

  Dipole Moment: [D]
     X:     1.8284      Y:     2.0068      Z:     0.1487     Total:     2.7190

*** Psi4 exiting successfully. Buy a developer a beer!
