                               Psi4 1.4a3.dev225

  ==> Input File <==

--------------------------------------------------------------------------
#psi4
#
memory 32 gb

molecule  {
0 1
  N       -0.4914050     1.0723760    -0.3164170
  N        1.1002924    -0.7004937    -0.0094629
  C       -1.7100270     0.3982770    -0.1243180
  C        0.8049200     0.5981430    -0.1551110
  C        3.4026260    -0.3179870     0.1123840
  C        1.8688800     1.5249980    -0.1805650
  C        3.1641670     1.0570110    -0.0435420
  C       -2.8187550     1.1723340     0.2577460
  C       -1.8866400    -0.9712620    -0.3801370
  C        2.2803750    -1.1431010     0.1169750
  C        4.7931030    -0.8701860     0.2621020
  C       -4.0754850     0.5909990     0.4048790
  C       -3.1483220    -1.5428300    -0.2100850
  C       -4.2492880    -0.7746780     0.1720620
  H       -0.5683120     2.0807040    -0.2404560
  H        1.6730390     2.5885970    -0.3025930
  H        3.9969070     1.7590030    -0.0564670
  H       -2.6877930     2.2355590     0.4578160
  H       -1.0395640    -1.5738120    -0.6782690
  H        2.3962560    -2.2212150     0.2333330
  H        5.4095350    -0.6367030    -0.6119800
  H        5.2936270    -0.4518060     1.1412500
  H        4.7686350    -1.9575490     0.3752240
  H       -4.9184630     1.2095470     0.7042290
  H       -3.2707080    -2.6065070    -0.4021260
  H       -5.2268190    -1.2338160     0.2940590
units angstrom
no_reorient  #important for SAPT in psi4, default
symmetry c1  #important for SAPT in psi4, default
}

set PROPERTIES_ORIGIN ["COM"]
properties('MP2/aug-cc-pvtz', properties = ['dipole'])
--------------------------------------------------------------------------

    Molecular point group: c1
  Charge       = 0
  Multiplicity = 1
  Basis Set: AUG-CC-PVTZ
    Blend: AUG-CC-PVTZ
  Basis Set: (AUG-CC-PVTZ AUX)
    Blend: AUG-CC-PVTZ-JKFIT

    Orbital Energies [Eh]
    ---------------------

    Doubly Occupied:

       1A    -15.592163     2A    -15.544885     3A    -11.323852
       4A    -11.282859     5A    -11.263495     6A    -11.253157
       7A    -11.235740     8A    -11.235388     9A    -11.232338
      10A    -11.230771    11A    -11.229946    12A    -11.225912
      13A    -11.222818    14A    -11.220903    15A     -1.299759
      16A     -1.236067    17A     -1.135379    18A     -1.093600
      19A     -1.048633    20A     -1.009835    21A     -0.993576
      22A     -0.937551    23A     -0.864382    24A     -0.843761
      25A     -0.823405    26A     -0.802634    27A     -0.727759
      28A     -0.718198    29A     -0.671948    30A     -0.659615
      31A     -0.635040    32A     -0.622296    33A     -0.599575
      34A     -0.595672    35A     -0.591127    36A     -0.580785
      37A     -0.569210    38A     -0.564638    39A     -0.545459
      40A     -0.519203    41A     -0.515302    42A     -0.506045
      43A     -0.488830    44A     -0.458647    45A     -0.398831
      46A     -0.385314    47A     -0.336139    48A     -0.331941
      49A     -0.274988

  @DF-RHF Final Energy:  -570.49460560025841

   => Energetics <=

    Nuclear Repulsion Energy =            791.7837776127569214
    One-Electron Energy =               -2343.5980214685750980
    Two-Electron Energy =                 981.3196382555597665
    Total Energy =                       -570.4946056002584100
  Basis Set: (AUG-CC-PVTZ AUX)
    Blend: AUG-CC-PVTZ-RI
    Molecular point group: c1

    Geometry (in Angstrom), charge = 0, multiplicity = 1:

       Center              X                  Y                   Z               Mass
    ------------   -----------------  -----------------  -----------------  -----------------
         N           -0.466988247162     1.066651988699    -0.311781107029    14.003074004430
         N            1.124709152838    -0.706217711301    -0.004827007029    14.003074004430
         C           -1.685610247162     0.392552988699    -0.119682107029    12.000000000000
         C            0.829336752838     0.592418988699    -0.150475107029    12.000000000000
         C            3.427042752838    -0.323711011301     0.117019892971    12.000000000000
         C            1.893296752838     1.519273988699    -0.175929107029    12.000000000000
         C            3.188583752838     1.051286988699    -0.038906107029    12.000000000000
         C           -2.794338247162     1.166609988699     0.262381892971    12.000000000000
         C           -1.862223247162    -0.976986011301    -0.375501107029    12.000000000000
         C            2.304791752838    -1.148825011301     0.121610892971    12.000000000000
         C            4.817519752838    -0.875910011301     0.266737892971    12.000000000000
         C           -4.051068247162     0.585274988699     0.409514892971    12.000000000000
         C           -3.123905247162    -1.548554011301    -0.205449107029    12.000000000000
         C           -4.224871247162    -0.780402011301     0.176697892971    12.000000000000
         H           -0.543895247162     2.074979988699    -0.235820107029     1.007825032230
         H            1.697455752838     2.582872988699    -0.297957107029     1.007825032230
         H            4.021323752838     1.753278988699    -0.051831107029     1.007825032230
         H           -2.663376247162     2.229834988699     0.462451892971     1.007825032230
         H           -1.015147247162    -1.579536011301    -0.673633107029     1.007825032230
         H            2.420672752838    -2.226939011301     0.237968892971     1.007825032230
         H            5.433951752838    -0.642427011301    -0.607344107029     1.007825032230
         H            5.318043752838    -0.457530011301     1.145885892971     1.007825032230
         H            4.793051752838    -1.963273011301     0.379859892971     1.007825032230
         H           -4.894046247162     1.203822988699     0.708864892971     1.007825032230
         H           -3.246291247162    -2.612231011301    -0.397490107029     1.007825032230
         H           -5.202402247162    -1.239540011301     0.298694892971     1.007825032230

  Basis Set: AUG-CC-PVTZ
    Blend: AUG-CC-PVTZ
  Basis Set: (AUG-CC-PVTZ AUX)
    Blend: AUG-CC-PVTZ-JKFIT
	 Reference Energy          =    -570.4946056002584100 [Eh]
	 Singles Energy            =      -0.0000000000000000 [Eh]
	 Same-Spin Energy          =      -0.6361596610273554 [Eh]
	 Opposite-Spin Energy      =      -1.9687647981308105 [Eh]
	 Correlation Energy        =      -2.6049244591581662 [Eh]
	 Total Energy              =    -573.0995300594165656 [Eh]

	 ================> DF-SCS-MP2 Energies <==================
	-----------------------------------------------------------
	 SCS Same-Spin Scale       =       0.3333333333333333 [-]
	 SCS Opposite-Spin Scale   =       1.2000000000000000 [-]
	 SCS Same-Spin Energy      =      -0.2120532203424518 [Eh]
	 SCS Opposite-Spin Energy  =      -2.3625177577569727 [Eh]
	 SCS Correlation Energy    =      -2.5745709780994246 [Eh]
	 SCS Total Energy          =    -573.0691765783578830 [Eh]
	-----------------------------------------------------------

  Dipole Moment: [D]
     X:     1.5573      Y:     1.7881      Z:     0.1553     Total:     2.3763

*** Psi4 exiting successfully. Buy a developer a beer!
