                               Psi4 1.4a3.dev225

  ==> Input File <==

--------------------------------------------------------------------------
#psi4
#
memory 32 gb

molecule  {
0 1
  N       -0.4914050     1.0723760    -0.3164170
  N        0.9854993    -0.7219008    -0.0144305
  C       -1.7100270     0.3982770    -0.1243180
  C        0.8049200     0.5981430    -0.1551110
  C        3.4026260    -0.3179870     0.1123840
  C        1.8688800     1.5249980    -0.1805650
  C        3.1641670     1.0570110    -0.0435420
  C       -2.8187550     1.1723340     0.2577460
  C       -1.8866400    -0.9712620    -0.3801370
  C        2.2803750    -1.1431010     0.1169750
  C        4.7931030    -0.8701860     0.2621020
  C       -4.0754850     0.5909990     0.4048790
  C       -3.1483220    -1.5428300    -0.2100850
  C       -4.2492880    -0.7746780     0.1720620
  H       -0.5683120     2.0807040    -0.2404560
  H        1.6730390     2.5885970    -0.3025930
  H        3.9969070     1.7590030    -0.0564670
  H       -2.6877930     2.2355590     0.4578160
  H       -1.0395640    -1.5738120    -0.6782690
  H        2.3962560    -2.2212150     0.2333330
  H        5.4095350    -0.6367030    -0.6119800
  H        5.2936270    -0.4518060     1.1412500
  H        4.7686350    -1.9575490     0.3752240
  H       -4.9184630     1.2095470     0.7042290
  H       -3.2707080    -2.6065070    -0.4021260
  H       -5.2268190    -1.2338160     0.2940590
units angstrom
no_reorient  #important for SAPT in psi4, default
symmetry c1  #important for SAPT in psi4, default
}

set PROPERTIES_ORIGIN ["COM"]
properties('MP2/aug-cc-pvtz', properties = ['dipole'])
--------------------------------------------------------------------------

    Molecular point group: c1
  Charge       = 0
  Multiplicity = 1
  Basis Set: AUG-CC-PVTZ
    Blend: AUG-CC-PVTZ
  Basis Set: (AUG-CC-PVTZ AUX)
    Blend: AUG-CC-PVTZ-JKFIT

    Orbital Energies [Eh]
    ---------------------

    Doubly Occupied:

       1A    -15.588334     2A    -15.555766     3A    -11.322865
       4A    -11.280461     5A    -11.274908     6A    -11.259713
       7A    -11.239675     8A    -11.236426     9A    -11.233321
      10A    -11.229805    11A    -11.229637    12A    -11.228263
      13A    -11.221106    14A    -11.217798    15A     -1.292025
      16A     -1.216140    17A     -1.132155    18A     -1.097733
      19A     -1.045401    20A     -1.007599    21A     -0.992931
      22A     -0.934325    23A     -0.869630    24A     -0.840457
      25A     -0.820725    26A     -0.796593    27A     -0.722768
      28A     -0.714847    29A     -0.670315    30A     -0.651944
      31A     -0.637564    32A     -0.621023    33A     -0.594917
      34A     -0.593004    35A     -0.587979    36A     -0.579248
      37A     -0.569316    38A     -0.562039    39A     -0.546916
      40A     -0.518959    41A     -0.510291    42A     -0.503587
      43A     -0.487057    44A     -0.453100    45A     -0.417614
      46A     -0.380409    47A     -0.336740    48A     -0.330075
      49A     -0.277358

  @DF-RHF Final Energy:  -570.49733272630635

   => Energetics <=

    Nuclear Repulsion Energy =            790.5453450832850422
    One-Electron Energy =               -2341.2236259672631604
    Two-Electron Energy =                 980.1809481576716507
    Total Energy =                       -570.4973327263063538
  Basis Set: (AUG-CC-PVTZ AUX)
    Blend: AUG-CC-PVTZ-RI
    Molecular point group: c1

    Geometry (in Angstrom), charge = 0, multiplicity = 1:

       Center              X                  Y                   Z               Mass
    ------------   -----------------  -----------------  -----------------  -----------------
         N           -0.458256819395     1.068280262066    -0.311403259924    14.003074004430
         N            1.018647480605    -0.725996537934    -0.009416759924    14.003074004430
         C           -1.676878819395     0.394181262066    -0.119304259924    12.000000000000
         C            0.838068180605     0.594047262066    -0.150097259924    12.000000000000
         C            3.435774180605    -0.322082737934     0.117397740076    12.000000000000
         C            1.902028180605     1.520902262066    -0.175551259924    12.000000000000
         C            3.197315180605     1.052915262066    -0.038528259924    12.000000000000
         C           -2.785606819395     1.168238262066     0.262759740076    12.000000000000
         C           -1.853491819395    -0.975357737934    -0.375123259924    12.000000000000
         C            2.313523180605    -1.147196737934     0.121988740076    12.000000000000
         C            4.826251180605    -0.874281737934     0.267115740076    12.000000000000
         C           -4.042336819395     0.586903262066     0.409892740076    12.000000000000
         C           -3.115173819395    -1.546925737934    -0.205071259924    12.000000000000
         C           -4.216139819395    -0.778773737934     0.177075740076    12.000000000000
         H           -0.535163819395     2.076608262066    -0.235442259924     1.007825032230
         H            1.706187180605     2.584501262066    -0.297579259924     1.007825032230
         H            4.030055180605     1.754907262066    -0.051453259924     1.007825032230
         H           -2.654644819395     2.231463262066     0.462829740076     1.007825032230
         H           -1.006415819395    -1.577907737934    -0.673255259924     1.007825032230
         H            2.429404180605    -2.225310737934     0.238346740076     1.007825032230
         H            5.442683180605    -0.640798737934    -0.606966259924     1.007825032230
         H            5.326775180605    -0.455901737934     1.146263740076     1.007825032230
         H            4.801783180605    -1.961644737934     0.380237740076     1.007825032230
         H           -4.885314819395     1.205451262066     0.709242740076     1.007825032230
         H           -3.237559819395    -2.610602737934    -0.397112259924     1.007825032230
         H           -5.193670819395    -1.237911737934     0.299072740076     1.007825032230

  Basis Set: AUG-CC-PVTZ
    Blend: AUG-CC-PVTZ
  Basis Set: (AUG-CC-PVTZ AUX)
    Blend: AUG-CC-PVTZ-JKFIT
	 Reference Energy          =    -570.4973327263063538 [Eh]
	 Singles Energy            =      -0.0000000000000000 [Eh]
	 Same-Spin Energy          =      -0.6365305880856017 [Eh]
	 Opposite-Spin Energy      =      -1.9716023463262515 [Eh]
	 Correlation Energy        =      -2.6081329344118531 [Eh]
	 Total Energy              =    -573.1054656607182096 [Eh]

	 ================> DF-SCS-MP2 Energies <==================
	-----------------------------------------------------------
	 SCS Same-Spin Scale       =       0.3333333333333333 [-]
	 SCS Opposite-Spin Scale   =       1.2000000000000000 [-]
	 SCS Same-Spin Energy      =      -0.2121768626952006 [Eh]
	 SCS Opposite-Spin Energy  =      -2.3659228155915017 [Eh]
	 SCS Correlation Energy    =      -2.5780996782867023 [Eh]
	 SCS Total Energy          =    -573.0754324045930161 [Eh]
	-----------------------------------------------------------

  Dipole Moment: [D]
     X:     1.9408      Y:     1.8692      Z:     0.1647     Total:     2.6996

*** Psi4 exiting successfully. Buy a developer a beer!
