                               Psi4 1.4a3.dev225

  ==> Input File <==

--------------------------------------------------------------------------
#psi4
#
memory 32 gb

molecule  {
0 1
  N       -0.4914050     1.0723760    -0.3164170
  N        1.0085960    -0.7184190    -0.0133500
  C       -1.8833942     0.3023763    -0.0969890
  C        0.8049200     0.5981430    -0.1551110
  C        3.4026260    -0.3179870     0.1123840
  C        1.8688800     1.5249980    -0.1805650
  C        3.1641670     1.0570110    -0.0435420
  C       -2.8187550     1.1723340     0.2577460
  C       -1.8866400    -0.9712620    -0.3801370
  C        2.2803750    -1.1431010     0.1169750
  C        4.7931030    -0.8701860     0.2621020
  C       -4.0754850     0.5909990     0.4048790
  C       -3.1483220    -1.5428300    -0.2100850
  C       -4.2492880    -0.7746780     0.1720620
  H       -0.5683120     2.0807040    -0.2404560
  H        1.6730390     2.5885970    -0.3025930
  H        3.9969070     1.7590030    -0.0564670
  H       -2.6877930     2.2355590     0.4578160
  H       -1.0395640    -1.5738120    -0.6782690
  H        2.3962560    -2.2212150     0.2333330
  H        5.4095350    -0.6367030    -0.6119800
  H        5.2936270    -0.4518060     1.1412500
  H        4.7686350    -1.9575490     0.3752240
  H       -4.9184630     1.2095470     0.7042290
  H       -3.2707080    -2.6065070    -0.4021260
  H       -5.2268190    -1.2338160     0.2940590
units angstrom
no_reorient  #important for SAPT in psi4, default
symmetry c1  #important for SAPT in psi4, default
}

set PROPERTIES_ORIGIN ["COM"]
properties('MP2/aug-cc-pvtz', properties = ['dipole'])
--------------------------------------------------------------------------

    Molecular point group: c1
  Charge       = 0
  Multiplicity = 1
  Basis Set: AUG-CC-PVTZ
    Blend: AUG-CC-PVTZ
  Basis Set: (AUG-CC-PVTZ AUX)
    Blend: AUG-CC-PVTZ-JKFIT

    Orbital Energies [Eh]
    ---------------------

    Doubly Occupied:

       1A    -15.568029     2A    -15.542247     3A    -11.311199
       4A    -11.279308     5A    -11.264768     6A    -11.250018
       7A    -11.242597     8A    -11.239690     9A    -11.233085
      10A    -11.231682    11A    -11.227511    12A    -11.224981
      13A    -11.222478    14A    -11.219492    15A     -1.268194
      16A     -1.199961    17A     -1.150528    18A     -1.087586
      19A     -1.035293    20A     -1.033257    21A     -1.002249
      22A     -0.924466    23A     -0.855655    24A     -0.845892
      25A     -0.820674    26A     -0.799347    27A     -0.716155
      28A     -0.704984    29A     -0.663932    30A     -0.647537
      31A     -0.634537    32A     -0.627978    33A     -0.607056
      34A     -0.584689    35A     -0.579879    36A     -0.579348
      37A     -0.557826    38A     -0.552663    39A     -0.539955
      40A     -0.522134    41A     -0.514686    42A     -0.508721
      43A     -0.487833    44A     -0.440865    45A     -0.404416
      46A     -0.373196    47A     -0.345515    48A     -0.343369
      49A     -0.280324

  @DF-RHF Final Energy:  -570.45820638319105

   => Energetics <=

    Nuclear Repulsion Energy =            790.7585724116577239
    One-Electron Energy =               -2341.8379823507539186
    Two-Electron Energy =                 980.6212035559051401
    Total Energy =                       -570.4582063831910546
  Basis Set: (AUG-CC-PVTZ AUX)
    Blend: AUG-CC-PVTZ-RI
    Molecular point group: c1

    Geometry (in Angstrom), charge = 0, multiplicity = 1:

       Center              X                  Y                   Z               Mass
    ------------   -----------------  -----------------  -----------------  -----------------
         N           -0.448713195610     1.074266422887    -0.313266802733    14.003074004430
         N            1.051287804390    -0.716528577113    -0.010199802733    14.003074004430
         C           -1.840702395610     0.304266722887    -0.093838802733    12.000000000000
         C            0.847611804390     0.600033422887    -0.151960802733    12.000000000000
         C            3.445317804390    -0.316096577113     0.115534197267    12.000000000000
         C            1.911571804390     1.526888422887    -0.177414802733    12.000000000000
         C            3.206858804390     1.058901422887    -0.040391802733    12.000000000000
         C           -2.776063195610     1.174224422887     0.260896197267    12.000000000000
         C           -1.843948195610    -0.969371577113    -0.376986802733    12.000000000000
         C            2.323066804390    -1.141210577113     0.120125197267    12.000000000000
         C            4.835794804390    -0.868295577113     0.265252197267    12.000000000000
         C           -4.032793195610     0.592889422887     0.408029197267    12.000000000000
         C           -3.105630195610    -1.540939577113    -0.206934802733    12.000000000000
         C           -4.206596195610    -0.772787577113     0.175212197267    12.000000000000
         H           -0.525620195610     2.082594422887    -0.237305802733     1.007825032230
         H            1.715730804390     2.590487422887    -0.299442802733     1.007825032230
         H            4.039598804390     1.760893422887    -0.053316802733     1.007825032230
         H           -2.645101195610     2.237449422887     0.460966197267     1.007825032230
         H           -0.996872195610    -1.571921577113    -0.675118802733     1.007825032230
         H            2.438947804390    -2.219324577113     0.236483197267     1.007825032230
         H            5.452226804390    -0.634812577113    -0.608829802733     1.007825032230
         H            5.336318804390    -0.449915577113     1.144400197267     1.007825032230
         H            4.811326804390    -1.955658577113     0.378374197267     1.007825032230
         H           -4.875771195610     1.211437422887     0.707379197267     1.007825032230
         H           -3.228016195610    -2.604616577113    -0.398975802733     1.007825032230
         H           -5.184127195610    -1.231925577113     0.297209197267     1.007825032230

  Basis Set: AUG-CC-PVTZ
    Blend: AUG-CC-PVTZ
  Basis Set: (AUG-CC-PVTZ AUX)
    Blend: AUG-CC-PVTZ-JKFIT
	 Reference Energy          =    -570.4582063831910546 [Eh]
	 Singles Energy            =      -0.0000000000000000 [Eh]
	 Same-Spin Energy          =      -0.6363309798706992 [Eh]
	 Opposite-Spin Energy      =      -1.9719440861090296 [Eh]
	 Correlation Energy        =      -2.6082750659797287 [Eh]
	 Total Energy              =    -573.0664814491707375 [Eh]

	 ================> DF-SCS-MP2 Energies <==================
	-----------------------------------------------------------
	 SCS Same-Spin Scale       =       0.3333333333333333 [-]
	 SCS Opposite-Spin Scale   =       1.2000000000000000 [-]
	 SCS Same-Spin Energy      =      -0.2121103266235664 [Eh]
	 SCS Opposite-Spin Energy  =      -2.3663329033308353 [Eh]
	 SCS Correlation Energy    =      -2.5784432299544018 [Eh]
	 SCS Total Energy          =    -573.0366496131454142 [Eh]
	-----------------------------------------------------------

  Dipole Moment: [D]
     X:     0.2270      Y:     1.5218      Z:     0.2730     Total:     1.5627

*** Psi4 exiting successfully. Buy a developer a beer!
