                               Psi4 1.4a3.dev225

  ==> Input File <==

--------------------------------------------------------------------------
#psi4
#
memory 32 gb

molecule  {
0 1
  N       -0.4914050     1.0723760    -0.3164170
  N        1.0085960    -0.7184190    -0.0133500
  C       -1.7100270     0.3982770    -0.1243180
  C        0.8049200     0.5981430    -0.1551110
  C        3.4026260    -0.3179870     0.1123840
  C        1.8688800     1.5249980    -0.1805650
  C        3.1641670     1.0570110    -0.0435420
  C       -2.8582076     1.1998778     0.2713412
  C       -1.8866400    -0.9712620    -0.3801370
  C        2.2803750    -1.1431010     0.1169750
  C        4.7931030    -0.8701860     0.2621020
  C       -4.0754850     0.5909990     0.4048790
  C       -3.1483220    -1.5428300    -0.2100850
  C       -4.2492880    -0.7746780     0.1720620
  H       -0.5683120     2.0807040    -0.2404560
  H        1.6730390     2.5885970    -0.3025930
  H        3.9969070     1.7590030    -0.0564670
  H       -2.6877930     2.2355590     0.4578160
  H       -1.0395640    -1.5738120    -0.6782690
  H        2.3962560    -2.2212150     0.2333330
  H        5.4095350    -0.6367030    -0.6119800
  H        5.2936270    -0.4518060     1.1412500
  H        4.7686350    -1.9575490     0.3752240
  H       -4.9184630     1.2095470     0.7042290
  H       -3.2707080    -2.6065070    -0.4021260
  H       -5.2268190    -1.2338160     0.2940590
units angstrom
no_reorient  #important for SAPT in psi4, default
symmetry c1  #important for SAPT in psi4, default
}

set PROPERTIES_ORIGIN ["COM"]
properties('MP2/aug-cc-pvtz', properties = ['dipole'])
--------------------------------------------------------------------------

    Molecular point group: c1
  Charge       = 0
  Multiplicity = 1
  Basis Set: AUG-CC-PVTZ
    Blend: AUG-CC-PVTZ
  Basis Set: (AUG-CC-PVTZ AUX)
    Blend: AUG-CC-PVTZ-JKFIT

    Orbital Energies [Eh]
    ---------------------

    Doubly Occupied:

       1A    -15.590770     2A    -15.554204     3A    -11.323453
       4A    -11.285842     5A    -11.273071     6A    -11.258775
       7A    -11.239421     8A    -11.235794     9A    -11.231288
      10A    -11.230772    11A    -11.229219    12A    -11.229078
      13A    -11.220284    14A    -11.216889    15A     -1.293314
      16A     -1.219538    17A     -1.131462    18A     -1.097327
      19A     -1.045511    20A     -1.011583    21A     -0.989211
      22A     -0.935137    23A     -0.869158    24A     -0.840366
      25A     -0.822489    26A     -0.796491    27A     -0.723298
      28A     -0.715359    29A     -0.673842    30A     -0.654110
      31A     -0.638336    32A     -0.618887    33A     -0.596340
      34A     -0.592373    35A     -0.586883    36A     -0.583335
      37A     -0.569456    38A     -0.562460    39A     -0.547159
      40A     -0.519571    41A     -0.510728    42A     -0.506450
      43A     -0.483122    44A     -0.454485    45A     -0.414428
      46A     -0.381703    47A     -0.334805    48A     -0.333781
      49A     -0.274496

  @DF-RHF Final Energy:  -570.49580864772975

   => Energetics <=

    Nuclear Repulsion Energy =            789.9976511302850213
    One-Electron Energy =               -2340.0952078159543817
    Two-Electron Energy =                 979.6017480379396147
    Total Energy =                       -570.4958086477297456
  Basis Set: (AUG-CC-PVTZ AUX)
    Blend: AUG-CC-PVTZ-RI
    Molecular point group: c1

    Geometry (in Angstrom), charge = 0, multiplicity = 1:

       Center              X                  Y                   Z               Mass
    ------------   -----------------  -----------------  -----------------  -----------------
         N           -0.457442010263     1.066220069761    -0.312371606880    14.003074004430
         N            1.042558989737    -0.724574930239    -0.009304606880    14.003074004430
         C           -1.676064010263     0.392121069761    -0.120272606880    12.000000000000
         C            0.838882989737     0.591987069761    -0.151065606880    12.000000000000
         C            3.436588989737    -0.324142930239     0.116429393120    12.000000000000
         C            1.902842989737     1.518842069761    -0.176519606880    12.000000000000
         C            3.198129989737     1.050855069761    -0.039496606880    12.000000000000
         C           -2.824244610263     1.193721869761     0.275386593120    12.000000000000
         C           -1.852677010263    -0.977417930239    -0.376091606880    12.000000000000
         C            2.314337989737    -1.149256930239     0.121020393120    12.000000000000
         C            4.827065989737    -0.876341930239     0.266147393120    12.000000000000
         C           -4.041522010263     0.584843069761     0.408924393120    12.000000000000
         C           -3.114359010263    -1.548985930239    -0.206039606880    12.000000000000
         C           -4.215325010263    -0.780833930239     0.176107393120    12.000000000000
         H           -0.534349010263     2.074548069761    -0.236410606880     1.007825032230
         H            1.707001989737     2.582441069761    -0.298547606880     1.007825032230
         H            4.030869989737     1.752847069761    -0.052421606880     1.007825032230
         H           -2.653830010263     2.229403069761     0.461861393120     1.007825032230
         H           -1.005601010263    -1.579967930239    -0.674223606880     1.007825032230
         H            2.430218989737    -2.227370930239     0.237378393120     1.007825032230
         H            5.443497989737    -0.642858930239    -0.607934606880     1.007825032230
         H            5.327589989737    -0.457961930239     1.145295393120     1.007825032230
         H            4.802597989737    -1.963704930239     0.379269393120     1.007825032230
         H           -4.884500010263     1.203391069761     0.708274393120     1.007825032230
         H           -3.236745010263    -2.612662930239    -0.398080606880     1.007825032230
         H           -5.192856010263    -1.239971930239     0.298104393120     1.007825032230

  Basis Set: AUG-CC-PVTZ
    Blend: AUG-CC-PVTZ
  Basis Set: (AUG-CC-PVTZ AUX)
    Blend: AUG-CC-PVTZ-JKFIT
	 Reference Energy          =    -570.4958086477297456 [Eh]
	 Singles Energy            =      -0.0000000000000000 [Eh]
	 Same-Spin Energy          =      -0.6363565346267764 [Eh]
	 Opposite-Spin Energy      =      -1.9710493078182583 [Eh]
	 Correlation Energy        =      -2.6074058424450346 [Eh]
	 Total Energy              =    -573.1032144901747643 [Eh]

	 ================> DF-SCS-MP2 Energies <==================
	-----------------------------------------------------------
	 SCS Same-Spin Scale       =       0.3333333333333333 [-]
	 SCS Opposite-Spin Scale   =       1.2000000000000000 [-]
	 SCS Same-Spin Energy      =      -0.2121188448755921 [Eh]
	 SCS Opposite-Spin Energy  =      -2.3652591693819098 [Eh]
	 SCS Correlation Energy    =      -2.5773780142575018 [Eh]
	 SCS Total Energy          =    -573.0731866619872790 [Eh]
	-----------------------------------------------------------

  Dipole Moment: [D]
     X:     1.9511      Y:     1.8838      Z:     0.1584     Total:     2.7168

*** Psi4 exiting successfully. Buy a developer a beer!
