                               Psi4 1.4a3.dev225

  ==> Input File <==

--------------------------------------------------------------------------
#psi4
#
memory 32 gb

molecule  {
0 1
  N       -0.4914050     1.0723760    -0.3164170
  N        1.0085960    -0.7184190    -0.0133500
  C       -1.7100270     0.3982770    -0.1243180
  C        0.8049200     0.5981430    -0.1551110
  C        3.4026260    -0.3179870     0.1123840
  C        1.8688800     1.5249980    -0.1805650
  C        3.1641670     1.0570110    -0.0435420
  C       -2.8187550     1.1723340     0.2577460
  C       -1.8866400    -0.9712620    -0.3801370
  C        2.2803750    -1.1431010     0.1169750
  C        4.7931030    -0.8701860     0.2621020
  C       -4.0754850     0.5909990     0.4048790
  C       -3.1483220    -1.5428300    -0.2100850
  C       -4.2492880    -0.7746780     0.1720620
  H       -0.5683120     2.0807040    -0.2404560
  H        1.6730390     2.5885970    -0.3025930
  H        3.9969070     1.7590030    -0.0564670
  H       -2.6877930     2.2355590     0.4578160
  H       -1.0395640    -1.5738120    -0.6782690
  H        2.3962560    -2.2212150     0.2333330
  H        5.4095350    -0.6367030    -0.6119800
  H        5.2936270    -0.4518060     1.1412500
  H        4.7686350    -1.9575490     0.3752240
  H       -4.9029611     1.1981722     0.6987241
  H       -3.2707080    -2.6065070    -0.4021260
  H       -5.2268190    -1.2338160     0.2940590
units angstrom
no_reorient  #important for SAPT in psi4, default
symmetry c1  #important for SAPT in psi4, default
}

set PROPERTIES_ORIGIN ["COM"]
properties('MP2/aug-cc-pvtz', properties = ['dipole'])
--------------------------------------------------------------------------

    Molecular point group: c1
  Charge       = 0
  Multiplicity = 1
  Basis Set: AUG-CC-PVTZ
    Blend: AUG-CC-PVTZ
  Basis Set: (AUG-CC-PVTZ AUX)
    Blend: AUG-CC-PVTZ-JKFIT

    Orbital Energies [Eh]
    ---------------------

    Doubly Occupied:

       1A    -15.589051     2A    -15.553679     3A    -11.322945
       4A    -11.280809     5A    -11.272739     6A    -11.258410
       7A    -11.238815     8A    -11.235262     9A    -11.231415
      10A    -11.230167    11A    -11.228898    12A    -11.228367
      13A    -11.221258    14A    -11.218344    15A     -1.293066
      16A     -1.220061    17A     -1.132835    18A     -1.096908
      19A     -1.045944    20A     -1.008503    21A     -0.993113
      22A     -0.934842    23A     -0.868473    24A     -0.841627
      25A     -0.821402    26A     -0.798497    27A     -0.724330
      28A     -0.715921    29A     -0.670494    30A     -0.653370
      31A     -0.637331    32A     -0.621766    33A     -0.596023
      34A     -0.594281    35A     -0.588415    36A     -0.579911
      37A     -0.569344    38A     -0.562996    39A     -0.546752
      40A     -0.519278    41A     -0.511119    42A     -0.504112
      43A     -0.487991    44A     -0.454035    45A     -0.414335
      46A     -0.381375    47A     -0.336496    48A     -0.330393
      49A     -0.276847

  @DF-RHF Final Energy:  -570.49907041727249

   => Energetics <=

    Nuclear Repulsion Energy =            790.8719743351476836
    One-Electron Energy =               -2341.8573952299293524
    Two-Electron Energy =                 980.4863504775092906
    Total Energy =                       -570.4990704172724918
  Basis Set: (AUG-CC-PVTZ AUX)
    Blend: AUG-CC-PVTZ-RI
    Molecular point group: c1

    Geometry (in Angstrom), charge = 0, multiplicity = 1:

       Center              X                  Y                   Z               Mass
    ------------   -----------------  -----------------  -----------------  -----------------
         N           -0.460098470199     1.068077697779    -0.311455309586    14.003074004430
         N            1.039902529801    -0.722717302221    -0.008388309586    14.003074004430
         C           -1.678720470199     0.393978697779    -0.119356309586    12.000000000000
         C            0.836226529801     0.593844697779    -0.150149309586    12.000000000000
         C            3.433932529801    -0.322285302221     0.117345690414    12.000000000000
         C            1.900186529801     1.520699697779    -0.175603309586    12.000000000000
         C            3.195473529801     1.052712697779    -0.038580309586    12.000000000000
         C           -2.787448470199     1.168035697779     0.262707690414    12.000000000000
         C           -1.855333470199    -0.975560302221    -0.375175309586    12.000000000000
         C            2.311681529801    -1.147399302221     0.121936690414    12.000000000000
         C            4.824409529801    -0.874484302221     0.267063690414    12.000000000000
         C           -4.044178470199     0.586700697779     0.409840690414    12.000000000000
         C           -3.117015470199    -1.547128302221    -0.205123309586    12.000000000000
         C           -4.217981470199    -0.778976302221     0.177023690414    12.000000000000
         H           -0.537005470199     2.076405697779    -0.235494309586     1.007825032230
         H            1.704345529801     2.584298697779    -0.297631309586     1.007825032230
         H            4.028213529801     1.754704697779    -0.051505309586     1.007825032230
         H           -2.656486470199     2.231260697779     0.462777690414     1.007825032230
         H           -1.008257470199    -1.578110302221    -0.673307309586     1.007825032230
         H            2.427562529801    -2.225513302221     0.238294690414     1.007825032230
         H            5.440841529801    -0.641001302221    -0.607018309586     1.007825032230
         H            5.324933529801    -0.456104302221     1.146211690414     1.007825032230
         H            4.799941529801    -1.961847302221     0.380185690414     1.007825032230
         H           -4.871654570199     1.193873897779     0.703685790414     1.007825032230
         H           -3.239401470199    -2.610805302221    -0.397164309586     1.007825032230
         H           -5.195512470199    -1.238114302221     0.299020690414     1.007825032230

  Basis Set: AUG-CC-PVTZ
    Blend: AUG-CC-PVTZ
  Basis Set: (AUG-CC-PVTZ AUX)
    Blend: AUG-CC-PVTZ-JKFIT
	 Reference Energy          =    -570.4990704172724918 [Eh]
	 Singles Energy            =      -0.0000000000000000 [Eh]
	 Same-Spin Energy          =      -0.6363798900591877 [Eh]
	 Opposite-Spin Energy      =      -1.9707512283209419 [Eh]
	 Correlation Energy        =      -2.6071311183801296 [Eh]
	 Total Energy              =    -573.1062015356526445 [Eh]

	 ================> DF-SCS-MP2 Energies <==================
	-----------------------------------------------------------
	 SCS Same-Spin Scale       =       0.3333333333333333 [-]
	 SCS Opposite-Spin Scale   =       1.2000000000000000 [-]
	 SCS Same-Spin Energy      =      -0.2121266300197292 [Eh]
	 SCS Opposite-Spin Energy  =      -2.3649014739851300 [Eh]
	 SCS Correlation Energy    =      -2.5770281040048593 [Eh]
	 SCS Total Energy          =    -573.0760985212773448 [Eh]
	-----------------------------------------------------------

  Dipole Moment: [D]
     X:     1.8617      Y:     1.8582      Z:     0.1652     Total:     2.6355

*** Psi4 exiting successfully. Buy a developer a beer!
