                               Psi4 1.4a3.dev225

  ==> Input File <==

--------------------------------------------------------------------------
#psi4
#
memory 32 gb

molecule  {
0 1
  N       -0.4914050     1.0723760    -0.3164170
  N        1.0085960    -0.7184190    -0.0133500
  C       -1.7100270     0.3982770    -0.1243180
  C        0.8049200     0.5981430    -0.1551110
  C        3.4026260    -0.3179870     0.1123840
  C        1.8688800     1.5249980    -0.1805650
  C        3.1641670     1.0570110    -0.0435420
  C       -2.8187550     1.1723340     0.2577460
  C       -1.8866400    -0.9712620    -0.3801370
  C        2.4691880    -1.2061509     0.1363235
  C        4.7931030    -0.8701860     0.2621020
  C       -4.0754850     0.5909990     0.4048790
  C       -3.1483220    -1.5428300    -0.2100850
  C       -4.2492880    -0.7746780     0.1720620
  H       -0.5683120     2.0807040    -0.2404560
  H        1.6730390     2.5885970    -0.3025930
  H        3.9969070     1.7590030    -0.0564670
  H       -2.6877930     2.2355590     0.4578160
  H       -1.0395640    -1.5738120    -0.6782690
  H        2.3962560    -2.2212150     0.2333330
  H        5.4095350    -0.6367030    -0.6119800
  H        5.2936270    -0.4518060     1.1412500
  H        4.7686350    -1.9575490     0.3752240
  H       -4.9184630     1.2095470     0.7042290
  H       -3.2707080    -2.6065070    -0.4021260
  H       -5.2268190    -1.2338160     0.2940590
units angstrom
no_reorient  #important for SAPT in psi4, default
symmetry c1  #important for SAPT in psi4, default
}

set PROPERTIES_ORIGIN ["COM"]
properties('MP2/aug-cc-pvtz', properties = ['dipole'])
--------------------------------------------------------------------------

    Molecular point group: c1
  Charge       = 0
  Multiplicity = 1
  Basis Set: AUG-CC-PVTZ
    Blend: AUG-CC-PVTZ
  Basis Set: (AUG-CC-PVTZ AUX)
    Blend: AUG-CC-PVTZ-JKFIT

    Orbital Energies [Eh]
    ---------------------

    Doubly Occupied:

       1A    -15.587956     2A    -15.550001     3A    -11.319084
       4A    -11.279081     5A    -11.264722     6A    -11.263758
       7A    -11.249126     8A    -11.232207     9A    -11.231829
      10A    -11.228427    11A    -11.227881    12A    -11.227469
      13A    -11.220297    14A    -11.216407    15A     -1.281381
      16A     -1.194570    17A     -1.131843    18A     -1.094106
      19A     -1.051625    20A     -1.006193    21A     -0.993830
      22A     -0.934640    23A     -0.881790    24A     -0.835114
      25A     -0.820434    26A     -0.791079    27A     -0.726710
      28A     -0.711443    29A     -0.671112    30A     -0.660608
      31A     -0.637038    32A     -0.624869    33A     -0.596531
      34A     -0.594175    35A     -0.588602    36A     -0.577605
      37A     -0.567867    38A     -0.563210    39A     -0.540509
      40A     -0.509200    41A     -0.507008    42A     -0.500183
      43A     -0.486358    44A     -0.452715    45A     -0.402257
      46A     -0.361483    47A     -0.350258    48A     -0.328966
      49A     -0.284755

  @DF-RHF Final Energy:  -570.45576509428474

   => Energetics <=

    Nuclear Repulsion Energy =            788.6510353561241118
    One-Electron Energy =               -2337.4969766746967252
    Two-Electron Energy =                 978.3901762242878704
    Total Energy =                       -570.4557650942847431
  Basis Set: (AUG-CC-PVTZ AUX)
    Blend: AUG-CC-PVTZ-RI
    Molecular point group: c1

    Geometry (in Angstrom), charge = 0, multiplicity = 1:

       Center              X                  Y                   Z               Mass
    ------------   -----------------  -----------------  -----------------  -----------------
         N           -0.472320807003     1.072125143711    -0.312746618188    14.003074004430
         N            1.027680192997    -0.718669856289    -0.009679618188    14.003074004430
         C           -1.690942807003     0.398026143711    -0.120647618188    12.000000000000
         C            0.824004192997     0.597892143711    -0.151440618188    12.000000000000
         C            3.421710192997    -0.318237856289     0.116054381812    12.000000000000
         C            1.887964192997     1.524747143711    -0.176894618188    12.000000000000
         C            3.183251192997     1.056760143711    -0.039871618188    12.000000000000
         C           -2.799670807003     1.172083143711     0.261416381812    12.000000000000
         C           -1.867555807003    -0.971512856289    -0.376466618188    12.000000000000
         C            2.488272192997    -1.206401756289     0.139993881812    12.000000000000
         C            4.812187192997    -0.870436856289     0.265772381812    12.000000000000
         C           -4.056400807003     0.590748143711     0.408549381812    12.000000000000
         C           -3.129237807003    -1.543080856289    -0.206414618188    12.000000000000
         C           -4.230203807003    -0.774928856289     0.175732381812    12.000000000000
         H           -0.549227807003     2.080453143711    -0.236785618188     1.007825032230
         H            1.692123192997     2.588346143711    -0.298922618188     1.007825032230
         H            4.015991192997     1.758752143711    -0.052796618188     1.007825032230
         H           -2.668708807003     2.235308143711     0.461486381812     1.007825032230
         H           -1.020479807003    -1.574062856289    -0.674598618188     1.007825032230
         H            2.415340192997    -2.221465856289     0.237003381812     1.007825032230
         H            5.428619192997    -0.636953856289    -0.608309618188     1.007825032230
         H            5.312711192997    -0.452056856289     1.144920381812     1.007825032230
         H            4.787719192997    -1.957799856289     0.378894381812     1.007825032230
         H           -4.899378807003     1.209296143711     0.707899381812     1.007825032230
         H           -3.251623807003    -2.606757856289    -0.398455618188     1.007825032230
         H           -5.207734807003    -1.234066856289     0.297729381812     1.007825032230

  Basis Set: AUG-CC-PVTZ
    Blend: AUG-CC-PVTZ
  Basis Set: (AUG-CC-PVTZ AUX)
    Blend: AUG-CC-PVTZ-JKFIT
	 Reference Energy          =    -570.4557650942847431 [Eh]
	 Singles Energy            =      -0.0000000000000000 [Eh]
	 Same-Spin Energy          =      -0.6361966775732834 [Eh]
	 Opposite-Spin Energy      =      -1.9758442904667100 [Eh]
	 Correlation Energy        =      -2.6120409680399934 [Eh]
	 Total Energy              =    -573.0678060623247347 [Eh]

	 ================> DF-SCS-MP2 Energies <==================
	-----------------------------------------------------------
	 SCS Same-Spin Scale       =       0.3333333333333333 [-]
	 SCS Opposite-Spin Scale   =       1.2000000000000000 [-]
	 SCS Same-Spin Energy      =      -0.2120655591910944 [Eh]
	 SCS Opposite-Spin Energy  =      -2.3710131485600519 [Eh]
	 SCS Correlation Energy    =      -2.5830787077511461 [Eh]
	 SCS Total Energy          =    -573.0388438020358990 [Eh]
	-----------------------------------------------------------

  Dipole Moment: [D]
     X:     2.0375      Y:     1.8895      Z:     0.1678     Total:     2.7838

*** Psi4 exiting successfully. Buy a developer a beer!
