                               Psi4 1.4a3.dev225

  ==> Input File <==

--------------------------------------------------------------------------
#psi4
#
memory 32 gb

molecule  {
0 1
  N       -0.4914050     1.0723760    -0.3164170
  N        1.0085960    -0.7184190    -0.0133500
  C       -1.7100270     0.3982770    -0.1243180
  C        0.8049200     0.5981430    -0.1551110
  C        3.4026260    -0.3179870     0.1123840
  C        1.8688800     1.5249980    -0.1805650
  C        3.1641670     1.0570110    -0.0435420
  C       -2.8187550     1.1723340     0.2577460
  C       -1.8866400    -0.9712620    -0.3801370
  C        2.2803750    -1.1431010     0.1169750
  C        4.7931030    -0.8701860     0.2621020
  C       -4.0754850     0.5909990     0.4048790
  C       -3.1483220    -1.5428300    -0.2100850
  C       -4.2492880    -0.7746780     0.1720620
  H       -0.5683120     2.0807040    -0.2404560
  H        1.6730390     2.5885970    -0.3025930
  H        3.9969070     1.7590030    -0.0564670
  H       -2.6877930     2.2355590     0.4578160
  H       -1.0395640    -1.5738120    -0.6782690
  H        2.3962560    -2.2212150     0.2333330
  H        5.4095350    -0.6367030    -0.6119800
  H        5.2936270    -0.4518060     1.1412500
  H        4.7686350    -1.9575490     0.3752240
  H       -4.9184630     1.2095470     0.7042290
  H       -3.2707080    -2.6065070    -0.4021260
  H       -5.2268190    -1.2338160     0.2940590
units angstrom
no_reorient  #important for SAPT in psi4, default
symmetry c1  #important for SAPT in psi4, default
}

set PROPERTIES_ORIGIN ["COM"]
properties('MP2/aug-cc-pvtz', properties = ['dipole'])
--------------------------------------------------------------------------

    Molecular point group: c1
  Charge       = 0
  Multiplicity = 1
  Basis Set: AUG-CC-PVTZ
    Blend: AUG-CC-PVTZ
  Basis Set: (AUG-CC-PVTZ AUX)
    Blend: AUG-CC-PVTZ-JKFIT

    Orbital Energies [Eh]
    ---------------------

    Doubly Occupied:

       1A    -15.589123     2A    -15.553722     3A    -11.322991
       4A    -11.280939     5A    -11.272773     6A    -11.258443
       7A    -11.238853     8A    -11.235298     9A    -11.233729
      10A    -11.230305    11A    -11.228923    12A    -11.228596
      13A    -11.221444    14A    -11.218413    15A     -1.293122
      16A     -1.220118    17A     -1.132796    18A     -1.096943
      19A     -1.045955    20A     -1.008043    21A     -0.993071
      22A     -0.934889    23A     -0.868516    24A     -0.841227
      25A     -0.821193    26A     -0.797934    27A     -0.723652
      28A     -0.715550    29A     -0.670570    30A     -0.653291
      31A     -0.637152    32A     -0.621261    33A     -0.595596
      34A     -0.593633    35A     -0.588452    36A     -0.579563
      37A     -0.569365    38A     -0.562714    39A     -0.546777
      40A     -0.519159    41A     -0.511109    42A     -0.504160
      43A     -0.487362    44A     -0.454104    45A     -0.414367
      46A     -0.381409    47A     -0.336577    48A     -0.330482
      49A     -0.276921

  @DF-RHF Final Energy:  -570.49894273011512

   => Energetics <=

    Nuclear Repulsion Energy =            790.7657008726744152
    One-Electron Energy =               -2341.6481163457533512
    Two-Electron Energy =                 980.3834727429638178
    Total Energy =                       -570.4989427301151181
  Basis Set: (AUG-CC-PVTZ AUX)
    Blend: AUG-CC-PVTZ-RI
    Molecular point group: c1

    Geometry (in Angstrom), charge = 0, multiplicity = 1:

       Center              X                  Y                   Z               Mass
    ------------   -----------------  -----------------  -----------------  -----------------
         N           -0.460013607631     1.068015428333    -0.311485445244    14.003074004430
         N            1.039987392369    -0.722779571667    -0.008418445244    14.003074004430
         C           -1.678635607631     0.393916428333    -0.119386445244    12.000000000000
         C            0.836311392369     0.593782428333    -0.150179445244    12.000000000000
         C            3.434017392369    -0.322347571667     0.117315554756    12.000000000000
         C            1.900271392369     1.520637428333    -0.175633445244    12.000000000000
         C            3.195558392369     1.052650428333    -0.038610445244    12.000000000000
         C           -2.787363607631     1.167973428333     0.262677554756    12.000000000000
         C           -1.855248607631    -0.975622571667    -0.375205445244    12.000000000000
         C            2.311766392369    -1.147461571667     0.121906554756    12.000000000000
         C            4.824494392369    -0.874546571667     0.267033554756    12.000000000000
         C           -4.044093607631     0.586638428333     0.409810554756    12.000000000000
         C           -3.116930607631    -1.547190571667    -0.205153445244    12.000000000000
         C           -4.217896607631    -0.779038571667     0.176993554756    12.000000000000
         H           -0.536920607631     2.076343428333    -0.235524445244     1.007825032230
         H            1.704430392369     2.584236428333    -0.297661445244     1.007825032230
         H            4.028298392369     1.754642428333    -0.051535445244     1.007825032230
         H           -2.656401607631     2.231198428333     0.462747554756     1.007825032230
         H           -1.008172607631    -1.578172571667    -0.673337445244     1.007825032230
         H            2.427647392369    -2.225575571667     0.238264554756     1.007825032230
         H            5.440926392369    -0.641063571667    -0.607048445244     1.007825032230
         H            5.325018392369    -0.456166571667     1.146181554756     1.007825032230
         H            4.800026392369    -1.961909571667     0.380155554756     1.007825032230
         H           -4.887071607631     1.205186428333     0.709160554756     1.007825032230
         H           -3.239316607631    -2.610867571667    -0.397194445244     1.007825032230
         H           -5.195427607631    -1.238176571667     0.298990554756     1.007825032230

  Basis Set: AUG-CC-PVTZ
    Blend: AUG-CC-PVTZ
  Basis Set: (AUG-CC-PVTZ AUX)
    Blend: AUG-CC-PVTZ-JKFIT
	 Reference Energy          =    -570.4989427301151181 [Eh]
	 Singles Energy            =      -0.0000000000000000 [Eh]
	 Same-Spin Energy          =      -0.6364132752946567 [Eh]
	 Opposite-Spin Energy      =      -1.9708899202000598 [Eh]
	 Correlation Energy        =      -2.6073031954947163 [Eh]
	 Total Energy              =    -573.1062459256098691 [Eh]

	 ================> DF-SCS-MP2 Energies <==================
	-----------------------------------------------------------
	 SCS Same-Spin Scale       =       0.3333333333333333 [-]
	 SCS Opposite-Spin Scale   =       1.2000000000000000 [-]
	 SCS Same-Spin Energy      =      -0.2121377584315522 [Eh]
	 SCS Opposite-Spin Energy  =      -2.3650679042400715 [Eh]
	 SCS Correlation Energy    =      -2.5772056626716235 [Eh]
	 SCS Total Energy          =    -573.0761483927867630 [Eh]
	-----------------------------------------------------------

  Dipole Moment: [D]
     X:     1.8703      Y:     1.8536      Z:     0.1630     Total:     2.6383

*** Psi4 exiting successfully. Buy a developer a beer!
