                               Psi4 1.4a3.dev225

  ==> Input File <==

--------------------------------------------------------------------------
#psi4
#
memory 32 gb

molecule  {
0 1
  N       -0.4914050     1.0723760    -0.3164170
  N        1.0085960    -0.7184190    -0.0133500
  C       -1.7100270     0.3982770    -0.1243180
  C        0.8049200     0.5981430    -0.1551110
  C        3.4026260    -0.3179870     0.1123840
  C        1.8688800     1.5249980    -0.1805650
  C        3.1641670     1.0570110    -0.0435420
  C       -2.8187550     1.1723340     0.2577460
  C       -1.8866400    -0.9712620    -0.3801370
  C        2.2803750    -1.1431010     0.1169750
  C        4.7931030    -0.8701860     0.2621020
  C       -4.0754850     0.5909990     0.4048790
  C       -3.1483220    -1.5428300    -0.2100850
  C       -4.2492880    -0.7746780     0.1720620
  H       -0.5683120     2.0807040    -0.2404560
  H        1.6730390     2.5885970    -0.3025930
  H        3.9969070     1.7590030    -0.0564670
  H       -2.6877930     2.2355590     0.4578160
  H       -1.0395640    -1.5738120    -0.6782690
  H        2.3962560    -2.2212150     0.2333330
  H        5.4095350    -0.6367030    -0.6119800
  H        5.3164873    -0.4326974     1.1814031
  H        4.7686350    -1.9575490     0.3752240
  H       -4.9184630     1.2095470     0.7042290
  H       -3.2707080    -2.6065070    -0.4021260
  H       -5.2268190    -1.2338160     0.2940590
units angstrom
no_reorient  #important for SAPT in psi4, default
symmetry c1  #important for SAPT in psi4, default
}

set PROPERTIES_ORIGIN ["COM"]
properties('MP2/aug-cc-pvtz', properties = ['dipole'])
--------------------------------------------------------------------------

    Molecular point group: c1
  Charge       = 0
  Multiplicity = 1
  Basis Set: AUG-CC-PVTZ
    Blend: AUG-CC-PVTZ
  Basis Set: (AUG-CC-PVTZ AUX)
    Blend: AUG-CC-PVTZ-JKFIT

    Orbital Energies [Eh]
    ---------------------

    Doubly Occupied:

       1A    -15.589324     2A    -15.553917     3A    -11.323252
       4A    -11.281056     5A    -11.273127     6A    -11.258629
       7A    -11.239028     8A    -11.235800     9A    -11.234783
      10A    -11.233827    11A    -11.230405    12A    -11.228711
      13A    -11.221551    14A    -11.218535    15A     -1.293327
      16A     -1.220320    17A     -1.132912    18A     -1.096779
      19A     -1.045758    20A     -1.008132    21A     -0.992626
      22A     -0.932387    23A     -0.868715    24A     -0.840546
      25A     -0.821219    26A     -0.797897    27A     -0.723795
      28A     -0.715680    29A     -0.670715    30A     -0.653046
      31A     -0.637281    32A     -0.621412    33A     -0.595154
      34A     -0.593519    35A     -0.587346    36A     -0.579492
      37A     -0.566616    38A     -0.562222    39A     -0.543831
      40A     -0.519474    41A     -0.510676    42A     -0.504196
      43A     -0.487474    44A     -0.453960    45A     -0.414527
      46A     -0.381496    47A     -0.336589    48A     -0.330569
      49A     -0.277033

  @DF-RHF Final Energy:  -570.49690048146272

   => Energetics <=

    Nuclear Repulsion Energy =            790.5508017048450711
    One-Electron Energy =               -2341.2180775789565814
    Two-Electron Energy =                 980.1703753926487934
    Total Energy =                       -570.4969004814627169
  Basis Set: (AUG-CC-PVTZ AUX)
    Blend: AUG-CC-PVTZ-RI
    Molecular point group: c1

    Geometry (in Angstrom), charge = 0, multiplicity = 1:

       Center              X                  Y                   Z               Mass
    ------------   -----------------  -----------------  -----------------  -----------------
         N           -0.460138752534     1.067910821487    -0.311705256698    14.003074004430
         N            1.039862247466    -0.722884178513    -0.008638256698    14.003074004430
         C           -1.678760752534     0.393811821487    -0.119606256698    12.000000000000
         C            0.836186247466     0.593677821487    -0.150399256698    12.000000000000
         C            3.433892247466    -0.322452178513     0.117095743302    12.000000000000
         C            1.900146247466     1.520532821487    -0.175853256698    12.000000000000
         C            3.195433247466     1.052545821487    -0.038830256698    12.000000000000
         C           -2.787488752534     1.167868821487     0.262457743302    12.000000000000
         C           -1.855373752534    -0.975727178513    -0.375425256698    12.000000000000
         C            2.311641247466    -1.147566178513     0.121686743302    12.000000000000
         C            4.824369247466    -0.874651178513     0.266813743302    12.000000000000
         C           -4.044218752534     0.586533821487     0.409590743302    12.000000000000
         C           -3.117055752534    -1.547295178513    -0.205373256698    12.000000000000
         C           -4.218021752534    -0.779143178513     0.176773743302    12.000000000000
         H           -0.537045752534     2.076238821487    -0.235744256698     1.007825032230
         H            1.704305247466     2.584131821487    -0.297881256698     1.007825032230
         H            4.028173247466     1.754537821487    -0.051755256698     1.007825032230
         H           -2.656526752534     2.231093821487     0.462527743302     1.007825032230
         H           -1.008297752534    -1.578277178513    -0.673557256698     1.007825032230
         H            2.427522247466    -2.225680178513     0.238044743302     1.007825032230
         H            5.440801247466    -0.641168178513    -0.607268256698     1.007825032230
         H            5.347753547466    -0.437162578513     1.186114843302     1.007825032230
         H            4.799901247466    -1.962014178513     0.379935743302     1.007825032230
         H           -4.887196752534     1.205081821487     0.708940743302     1.007825032230
         H           -3.239441752534    -2.610972178513    -0.397414256698     1.007825032230
         H           -5.195552752534    -1.238281178513     0.298770743302     1.007825032230

  Basis Set: AUG-CC-PVTZ
    Blend: AUG-CC-PVTZ
  Basis Set: (AUG-CC-PVTZ AUX)
    Blend: AUG-CC-PVTZ-JKFIT
	 Reference Energy          =    -570.4969004814627169 [Eh]
	 Singles Energy            =      -0.0000000000000000 [Eh]
	 Same-Spin Energy          =      -0.6363918679909590 [Eh]
	 Opposite-Spin Energy      =      -1.9711875473370200 [Eh]
	 Correlation Energy        =      -2.6075794153279790 [Eh]
	 Total Energy              =    -573.1044798967907354 [Eh]

	 ================> DF-SCS-MP2 Energies <==================
	-----------------------------------------------------------
	 SCS Same-Spin Scale       =       0.3333333333333333 [-]
	 SCS Opposite-Spin Scale   =       1.2000000000000000 [-]
	 SCS Same-Spin Energy      =      -0.2121306226636530 [Eh]
	 SCS Opposite-Spin Energy  =      -2.3654250568044239 [Eh]
	 SCS Correlation Energy    =      -2.5775556794680767 [Eh]
	 SCS Total Energy          =    -573.0744561609308221 [Eh]
	-----------------------------------------------------------

  Dipole Moment: [D]
     X:     1.8374      Y:     1.8523      Z:     0.1449     Total:     2.6130

*** Psi4 exiting successfully. Buy a developer a beer!
