                               Psi4 1.4a3.dev225

  ==> Input File <==

--------------------------------------------------------------------------
#psi4
#
memory 32 gb

molecule  {
0 1
  N       -0.4914050     1.0723760    -0.3164170
  N        1.0085960    -0.7184190    -0.0133500
  C       -1.7100270     0.3982770    -0.1243180
  C        0.8049200     0.5981430    -0.1551110
  C        3.3922785    -0.3773186     0.0264369
  C        1.8688800     1.5249980    -0.1805650
  C        3.1641670     1.0570110    -0.0435420
  C       -2.8187550     1.1723340     0.2577460
  C       -1.8866400    -0.9712620    -0.3801370
  C        2.2803750    -1.1431010     0.1169750
  C        4.7931030    -0.8701860     0.2621020
  C       -4.0754850     0.5909990     0.4048790
  C       -3.1483220    -1.5428300    -0.2100850
  C       -4.2492880    -0.7746780     0.1720620
  H       -0.5683120     2.0807040    -0.2404560
  H        1.6730390     2.5885970    -0.3025930
  H        3.9969070     1.7590030    -0.0564670
  H       -2.6877930     2.2355590     0.4578160
  H       -1.0395640    -1.5738120    -0.6782690
  H        2.3962560    -2.2212150     0.2333330
  H        5.4095350    -0.6367030    -0.6119800
  H        5.2936270    -0.4518060     1.1412500
  H        4.7686350    -1.9575490     0.3752240
  H       -4.9184630     1.2095470     0.7042290
  H       -3.2707080    -2.6065070    -0.4021260
  H       -5.2268190    -1.2338160     0.2940590
units angstrom
no_reorient  #important for SAPT in psi4, default
symmetry c1  #important for SAPT in psi4, default
}

set PROPERTIES_ORIGIN ["COM"]
properties('MP2/aug-cc-pvtz', properties = ['dipole'])
--------------------------------------------------------------------------

    Molecular point group: c1
  Charge       = 0
  Multiplicity = 1
  Basis Set: AUG-CC-PVTZ
    Blend: AUG-CC-PVTZ
  Basis Set: (AUG-CC-PVTZ AUX)
    Blend: AUG-CC-PVTZ-JKFIT

    Orbital Energies [Eh]
    ---------------------

    Doubly Occupied:

       1A    -15.590805     2A    -15.550310     3A    -11.324727
       4A    -11.281383     5A    -11.265052     6A    -11.264698
       7A    -11.241022     8A    -11.234455     9A    -11.234094
      10A    -11.230568    11A    -11.229265    12A    -11.228463
      13A    -11.222018    14A    -11.218898    15A     -1.293421
      16A     -1.220156    17A     -1.133401    18A     -1.091726
      19A     -1.048996    20A     -1.008444    21A     -0.993763
      22A     -0.936146    23A     -0.868301    24A     -0.841029
      25A     -0.819659    26A     -0.799466    27A     -0.723844
      28A     -0.715503    29A     -0.670164    30A     -0.653680
      31A     -0.636429    32A     -0.621567    33A     -0.595734
      34A     -0.594778    35A     -0.588053    36A     -0.579734
      37A     -0.572610    38A     -0.562692    39A     -0.549033
      40A     -0.516177    41A     -0.505914    42A     -0.499987
      43A     -0.487316    44A     -0.454389    45A     -0.415039
      46A     -0.377999    47A     -0.338760    48A     -0.330911
      49A     -0.279490

  @DF-RHF Final Energy:  -570.49363218258907

   => Energetics <=

    Nuclear Repulsion Energy =            790.7053374610698029
    One-Electron Energy =               -2341.5178054187808812
    Two-Electron Energy =                 980.3188357751220110
    Total Energy =                       -570.4936321825890673
  Basis Set: (AUG-CC-PVTZ AUX)
    Blend: AUG-CC-PVTZ-RI
    Molecular point group: c1

    Geometry (in Angstrom), charge = 0, multiplicity = 1:

       Center              X                  Y                   Z               Mass
    ------------   -----------------  -----------------  -----------------  -----------------
         N           -0.459339137412     1.071882777669    -0.305883245739    14.003074004430
         N            1.040661862588    -0.718912222331    -0.002816245739    14.003074004430
         C           -1.677961137412     0.397783777669    -0.113784245739    12.000000000000
         C            0.836985862588     0.597649777669    -0.144577245739    12.000000000000
         C            3.424344362588    -0.377811822331     0.036970654261    12.000000000000
         C            1.900945862588     1.524504777669    -0.170031245739    12.000000000000
         C            3.196232862588     1.056517777669    -0.033008245739    12.000000000000
         C           -2.786689137412     1.171840777669     0.268279754261    12.000000000000
         C           -1.854574137412    -0.971755222331    -0.369603245739    12.000000000000
         C            2.312440862588    -1.143594222331     0.127508754261    12.000000000000
         C            4.825168862588    -0.870679222331     0.272635754261    12.000000000000
         C           -4.043419137412     0.590505777669     0.415412754261    12.000000000000
         C           -3.116256137412    -1.543323222331    -0.199551245739    12.000000000000
         C           -4.217222137412    -0.775171222331     0.182595754261    12.000000000000
         H           -0.536246137412     2.080210777669    -0.229922245739     1.007825032230
         H            1.705104862588     2.588103777669    -0.292059245739     1.007825032230
         H            4.028972862588     1.758509777669    -0.045933245739     1.007825032230
         H           -2.655727137412     2.235065777669     0.468349754261     1.007825032230
         H           -1.007498137412    -1.574305222331    -0.667735245739     1.007825032230
         H            2.428321862588    -2.221708222331     0.243866754261     1.007825032230
         H            5.441600862588    -0.637196222331    -0.601446245739     1.007825032230
         H            5.325692862588    -0.452299222331     1.151783754261     1.007825032230
         H            4.800700862588    -1.958042222331     0.385757754261     1.007825032230
         H           -4.886397137412     1.209053777669     0.714762754261     1.007825032230
         H           -3.238642137412    -2.607000222331    -0.391592245739     1.007825032230
         H           -5.194753137412    -1.234309222331     0.304592754261     1.007825032230

  Basis Set: AUG-CC-PVTZ
    Blend: AUG-CC-PVTZ
  Basis Set: (AUG-CC-PVTZ AUX)
    Blend: AUG-CC-PVTZ-JKFIT
	 Reference Energy          =    -570.4936321825890673 [Eh]
	 Singles Energy            =      -0.0000000000000000 [Eh]
	 Same-Spin Energy          =      -0.6359214026274568 [Eh]
	 Opposite-Spin Energy      =      -1.9708570648897112 [Eh]
	 Correlation Energy        =      -2.6067784675171679 [Eh]
	 Total Energy              =    -573.1004106501062552 [Eh]

	 ================> DF-SCS-MP2 Energies <==================
	-----------------------------------------------------------
	 SCS Same-Spin Scale       =       0.3333333333333333 [-]
	 SCS Opposite-Spin Scale   =       1.2000000000000000 [-]
	 SCS Same-Spin Energy      =      -0.2119738008758189 [Eh]
	 SCS Opposite-Spin Energy  =      -2.3650284778676536 [Eh]
	 SCS Correlation Energy    =      -2.5770022787434725 [Eh]
	 SCS Total Energy          =    -573.0706344613325882 [Eh]
	-----------------------------------------------------------

  Dipole Moment: [D]
     X:     1.7737      Y:     1.9402      Z:     0.1823     Total:     2.6351

*** Psi4 exiting successfully. Buy a developer a beer!
