                               Psi4 1.4a3.dev225

  ==> Input File <==

--------------------------------------------------------------------------
#psi4
#
memory 32 gb

molecule  {
0 1
  N       -0.4914050     1.0723760    -0.3164170
  N        1.0085960    -0.7184190    -0.0133500
  C       -1.7100270     0.3982770    -0.1243180
  C        0.8049200     0.5981430    -0.1551110
  C        3.4026260    -0.3179870     0.1123840
  C        1.8688800     1.5249980    -0.1805650
  C        3.1641670     1.0570110    -0.0435420
  C       -2.8187550     1.1723340     0.2577460
  C       -1.8866400    -0.9712620    -0.3801370
  C        2.2803750    -1.1431010     0.1169750
  C        4.7931030    -0.8701860     0.2621020
  C       -4.0754850     0.5909990     0.4048790
  C       -3.1483220    -1.5428300    -0.2100850
  C       -4.2492880    -0.7746780     0.1720620
  H       -0.5683120     2.0807040    -0.2404560
  H        1.6730390     2.5885970    -0.3025930
  H        3.9969070     1.7590030    -0.0564670
  H       -2.6877930     2.2355590     0.4578160
  H       -1.0395640    -1.5738120    -0.6782690
  H        2.3962560    -2.2212150     0.2333330
  H        5.4095350    -0.6367030    -0.6119800
  H        5.2936270    -0.4518060     1.1412500
  H        4.7686350    -1.9575490     0.3752240
  H       -4.9184630     1.2095470     0.7042290
  H       -3.2763335    -2.6553991    -0.4109532
  H       -5.2268190    -1.2338160     0.2940590
units angstrom
no_reorient  #important for SAPT in psi4, default
symmetry c1  #important for SAPT in psi4, default
}

set PROPERTIES_ORIGIN ["COM"]
properties('MP2/aug-cc-pvtz', properties = ['dipole'])
--------------------------------------------------------------------------

    Molecular point group: c1
  Charge       = 0
  Multiplicity = 1
  Basis Set: AUG-CC-PVTZ
    Blend: AUG-CC-PVTZ
  Basis Set: (AUG-CC-PVTZ AUX)
    Blend: AUG-CC-PVTZ-JKFIT

    Orbital Energies [Eh]
    ---------------------

    Doubly Occupied:

       1A    -15.589321     2A    -15.553816     3A    -11.323094
       4A    -11.281308     5A    -11.272841     6A    -11.258517
       7A    -11.238940     8A    -11.236103     9A    -11.235374
      10A    -11.234103    11A    -11.228971    12A    -11.228811
      13A    -11.221965    14A    -11.218917    15A     -1.293268
      16A     -1.220264    17A     -1.132827    18A     -1.097017
      19A     -1.045959    20A     -1.007143    21A     -0.993108
      22A     -0.934918    23A     -0.868580    24A     -0.841063
      25A     -0.819067    26A     -0.797913    27A     -0.723688
      28A     -0.713318    29A     -0.670789    30A     -0.652667
      31A     -0.636579    32A     -0.620685    33A     -0.595666
      34A     -0.593140    35A     -0.588136    36A     -0.576178
      37A     -0.569486    38A     -0.562800    39A     -0.546831
      40A     -0.519276    41A     -0.511313    42A     -0.503617
      43A     -0.484955    44A     -0.454304    45A     -0.414468
      46A     -0.381483    47A     -0.336772    48A     -0.330780
      49A     -0.277122

  @DF-RHF Final Energy:  -570.49649403143292

   => Energetics <=

    Nuclear Repulsion Energy =            790.5132080301639235
    One-Electron Energy =               -2341.1448827451663419
    Two-Electron Energy =                 980.1351806835695015
    Total Energy =                       -570.4964940314329169
  Basis Set: (AUG-CC-PVTZ AUX)
    Blend: AUG-CC-PVTZ-RI
    Molecular point group: c1

    Geometry (in Angstrom), charge = 0, multiplicity = 1:

       Center              X                  Y                   Z               Mass
    ------------   -----------------  -----------------  -----------------  -----------------
         N           -0.459982811769     1.068283079986    -0.311437122209    14.003074004430
         N            1.040018188231    -0.722511920014    -0.008370122209    14.003074004430
         C           -1.678604811769     0.394184079986    -0.119338122209    12.000000000000
         C            0.836342188231     0.594050079986    -0.150131122209    12.000000000000
         C            3.434048188231    -0.322079920014     0.117363877791    12.000000000000
         C            1.900302188231     1.520905079986    -0.175585122209    12.000000000000
         C            3.195589188231     1.052918079986    -0.038562122209    12.000000000000
         C           -2.787332811769     1.168241079986     0.262725877791    12.000000000000
         C           -1.855217811769    -0.975354920014    -0.375157122209    12.000000000000
         C            2.311797188231    -1.147193920014     0.121954877791    12.000000000000
         C            4.824525188231    -0.874278920014     0.267081877791    12.000000000000
         C           -4.044062811769     0.586906079986     0.409858877791    12.000000000000
         C           -3.116899811769    -1.546922920014    -0.205105122209    12.000000000000
         C           -4.217865811769    -0.778770920014     0.177041877791    12.000000000000
         H           -0.536889811769     2.076611079986    -0.235476122209     1.007825032230
         H            1.704461188231     2.584504079986    -0.297613122209     1.007825032230
         H            4.028329188231     1.754910079986    -0.051487122209     1.007825032230
         H           -2.656370811769     2.231466079986     0.462795877791     1.007825032230
         H           -1.008141811769    -1.577904920014    -0.673289122209     1.007825032230
         H            2.427678188231    -2.225307920014     0.238312877791     1.007825032230
         H            5.440957188231    -0.640795920014    -0.607000122209     1.007825032230
         H            5.325049188231    -0.455898920014     1.146229877791     1.007825032230
         H            4.800057188231    -1.961641920014     0.380203877791     1.007825032230
         H           -4.887040811769     1.205454079986     0.709208877791     1.007825032230
         H           -3.244911311769    -2.659492020014    -0.405973322209     1.007825032230
         H           -5.195396811769    -1.237908920014     0.299038877791     1.007825032230

  Basis Set: AUG-CC-PVTZ
    Blend: AUG-CC-PVTZ
  Basis Set: (AUG-CC-PVTZ AUX)
    Blend: AUG-CC-PVTZ-JKFIT
	 Reference Energy          =    -570.4964940314329169 [Eh]
	 Singles Energy            =      -0.0000000000000000 [Eh]
	 Same-Spin Energy          =      -0.6365080574612513 [Eh]
	 Opposite-Spin Energy      =      -1.9713116194026201 [Eh]
	 Correlation Energy        =      -2.6078196768638713 [Eh]
	 Total Energy              =    -573.1043137082967860 [Eh]

	 ================> DF-SCS-MP2 Energies <==================
	-----------------------------------------------------------
	 SCS Same-Spin Scale       =       0.3333333333333333 [-]
	 SCS Opposite-Spin Scale   =       1.2000000000000000 [-]
	 SCS Same-Spin Energy      =      -0.2121693524870837 [Eh]
	 SCS Opposite-Spin Energy  =      -2.3655739432831440 [Eh]
	 SCS Correlation Energy    =      -2.5777432957702278 [Eh]
	 SCS Total Energy          =    -573.0742373272031500 [Eh]
	-----------------------------------------------------------

  Dipole Moment: [D]
     X:     1.8801      Y:     1.8764      Z:     0.1673     Total:     2.6615

*** Psi4 exiting successfully. Buy a developer a beer!
