                               Psi4 1.4a3.dev225

  ==> Input File <==

--------------------------------------------------------------------------
#psi4
#
memory 32 gb

molecule  {
0 1
  N       -0.4914050     1.0723760    -0.3164170
  N        1.0085960    -0.7184190    -0.0133500
  C       -1.7100270     0.3982770    -0.1243180
  C        0.7883225     0.5530326    -0.1616424
  C        3.4026260    -0.3179870     0.1123840
  C        1.8688800     1.5249980    -0.1805650
  C        3.1641670     1.0570110    -0.0435420
  C       -2.8187550     1.1723340     0.2577460
  C       -1.8866400    -0.9712620    -0.3801370
  C        2.2803750    -1.1431010     0.1169750
  C        4.7931030    -0.8701860     0.2621020
  C       -4.0754850     0.5909990     0.4048790
  C       -3.1483220    -1.5428300    -0.2100850
  C       -4.2492880    -0.7746780     0.1720620
  H       -0.5683120     2.0807040    -0.2404560
  H        1.6730390     2.5885970    -0.3025930
  H        3.9969070     1.7590030    -0.0564670
  H       -2.6877930     2.2355590     0.4578160
  H       -1.0395640    -1.5738120    -0.6782690
  H        2.3962560    -2.2212150     0.2333330
  H        5.4095350    -0.6367030    -0.6119800
  H        5.2936270    -0.4518060     1.1412500
  H        4.7686350    -1.9575490     0.3752240
  H       -4.9184630     1.2095470     0.7042290
  H       -3.2707080    -2.6065070    -0.4021260
  H       -5.2268190    -1.2338160     0.2940590
units angstrom
no_reorient  #important for SAPT in psi4, default
symmetry c1  #important for SAPT in psi4, default
}

set PROPERTIES_ORIGIN ["COM"]
properties('MP2/aug-cc-pvtz', properties = ['dipole'])
--------------------------------------------------------------------------

    Molecular point group: c1
  Charge       = 0
  Multiplicity = 1
  Basis Set: AUG-CC-PVTZ
    Blend: AUG-CC-PVTZ
  Basis Set: (AUG-CC-PVTZ AUX)
    Blend: AUG-CC-PVTZ-JKFIT

    Orbital Energies [Eh]
    ---------------------

    Doubly Occupied:

       1A    -15.589358     2A    -15.550394     3A    -11.323874
       4A    -11.280257     5A    -11.272015     6A    -11.256891
       7A    -11.242718     8A    -11.235577     9A    -11.233920
      10A    -11.230637    11A    -11.228843    12A    -11.228536
      13A    -11.221518    14A    -11.218681    15A     -1.298446
      16A     -1.224941    17A     -1.132662    18A     -1.099042
      19A     -1.040927    20A     -1.008289    21A     -0.992478
      22A     -0.937229    23A     -0.866450    24A     -0.841866
      25A     -0.821783    26A     -0.796761    27A     -0.724673
      28A     -0.716074    29A     -0.670171    30A     -0.658824
      31A     -0.636386    32A     -0.619741    33A     -0.597380
      34A     -0.592249    35A     -0.587114    36A     -0.579857
      37A     -0.570285    38A     -0.562878    39A     -0.547489
      40A     -0.519894    41A     -0.512098    42A     -0.504690
      43A     -0.487894    44A     -0.454133    45A     -0.411247
      46A     -0.383593    47A     -0.334982    48A     -0.330571
      49A     -0.277224

  @DF-RHF Final Energy:  -570.49799438453624

   => Energetics <=

    Nuclear Repulsion Energy =            791.0751450253625308
    One-Electron Energy =               -2342.2392006038157888
    Two-Electron Energy =                 980.6660611939171304
    Total Energy =                       -570.4979943845362413
  Basis Set: (AUG-CC-PVTZ AUX)
    Blend: AUG-CC-PVTZ-RI
    Molecular point group: c1

    Geometry (in Angstrom), charge = 0, multiplicity = 1:

       Center              X                  Y                   Z               Mass
    ------------   -----------------  -----------------  -----------------  -----------------
         N           -0.458931750230     1.070955812133    -0.311059715861    14.003074004430
         N            1.041069249770    -0.719839187867    -0.007992715861    14.003074004430
         C           -1.677553750230     0.396856812133    -0.118960715861    12.000000000000
         C            0.820795749770     0.551612412133    -0.156285115861    12.000000000000
         C            3.435099249770    -0.319407187867     0.117741284139    12.000000000000
         C            1.901353249770     1.523577812133    -0.175207715861    12.000000000000
         C            3.196640249770     1.055590812133    -0.038184715861    12.000000000000
         C           -2.786281750230     1.170913812133     0.263103284139    12.000000000000
         C           -1.854166750230    -0.972682187867    -0.374779715861    12.000000000000
         C            2.312848249770    -1.144521187867     0.122332284139    12.000000000000
         C            4.825576249770    -0.871606187867     0.267459284139    12.000000000000
         C           -4.043011750230     0.589578812133     0.410236284139    12.000000000000
         C           -3.115848750230    -1.544250187867    -0.204727715861    12.000000000000
         C           -4.216814750230    -0.776098187867     0.177419284139    12.000000000000
         H           -0.535838750230     2.079283812133    -0.235098715861     1.007825032230
         H            1.705512249770     2.587176812133    -0.297235715861     1.007825032230
         H            4.029380249770     1.757582812133    -0.051109715861     1.007825032230
         H           -2.655319750230     2.234138812133     0.463173284139     1.007825032230
         H           -1.007090750230    -1.575232187867    -0.672911715861     1.007825032230
         H            2.428729249770    -2.222635187867     0.238690284139     1.007825032230
         H            5.442008249770    -0.638123187867    -0.606622715861     1.007825032230
         H            5.326100249770    -0.453226187867     1.146607284139     1.007825032230
         H            4.801108249770    -1.958969187867     0.380581284139     1.007825032230
         H           -4.885989750230     1.208126812133     0.709586284139     1.007825032230
         H           -3.238234750230    -2.607927187867    -0.396768715861     1.007825032230
         H           -5.194345750230    -1.235236187867     0.299416284139     1.007825032230

  Basis Set: AUG-CC-PVTZ
    Blend: AUG-CC-PVTZ
  Basis Set: (AUG-CC-PVTZ AUX)
    Blend: AUG-CC-PVTZ-JKFIT
	 Reference Energy          =    -570.4979943845362413 [Eh]
	 Singles Energy            =      -0.0000000000000000 [Eh]
	 Same-Spin Energy          =      -0.6357268345605489 [Eh]
	 Opposite-Spin Energy      =      -1.9701334052915220 [Eh]
	 Correlation Energy        =      -2.6058602398520709 [Eh]
	 Total Energy              =    -573.1038546243883047 [Eh]

	 ================> DF-SCS-MP2 Energies <==================
	-----------------------------------------------------------
	 SCS Same-Spin Scale       =       0.3333333333333333 [-]
	 SCS Opposite-Spin Scale   =       1.2000000000000000 [-]
	 SCS Same-Spin Energy      =      -0.2119089448535163 [Eh]
	 SCS Opposite-Spin Energy  =      -2.3641600863498264 [Eh]
	 SCS Correlation Energy    =      -2.5760690312033425 [Eh]
	 SCS Total Energy          =    -573.0740634157396016 [Eh]
	-----------------------------------------------------------

  Dipole Moment: [D]
     X:     1.8333      Y:     1.8492      Z:     0.1536     Total:     2.6085

*** Psi4 exiting successfully. Buy a developer a beer!
