                               Psi4 1.4a3.dev225

  ==> Input File <==

--------------------------------------------------------------------------
#psi4
#
memory 32 gb

molecule  {
0 1
  N       -0.4914050     1.0723760    -0.3164170
  N        1.0085960    -0.7184190    -0.0133500
  C       -1.7100270     0.3982770    -0.1243180
  C        0.8049200     0.5981430    -0.1551110
  C        3.4026260    -0.3179870     0.1123840
  C        1.8688800     1.5249980    -0.1805650
  C        3.1641670     1.0570110    -0.0435420
  C       -2.8187550     1.1723340     0.2577460
  C       -1.8866400    -0.9712620    -0.3801370
  C        2.2803750    -1.1431010     0.1169750
  C        4.7468643    -0.8518232     0.2571233
  C       -4.0754850     0.5909990     0.4048790
  C       -3.1483220    -1.5428300    -0.2100850
  C       -4.2492880    -0.7746780     0.1720620
  H       -0.5683120     2.0807040    -0.2404560
  H        1.6730390     2.5885970    -0.3025930
  H        3.9969070     1.7590030    -0.0564670
  H       -2.6877930     2.2355590     0.4578160
  H       -1.0395640    -1.5738120    -0.6782690
  H        2.3962560    -2.2212150     0.2333330
  H        5.4095350    -0.6367030    -0.6119800
  H        5.2936270    -0.4518060     1.1412500
  H        4.7686350    -1.9575490     0.3752240
  H       -4.9184630     1.2095470     0.7042290
  H       -3.2707080    -2.6065070    -0.4021260
  H       -5.2268190    -1.2338160     0.2940590
units angstrom
no_reorient  #important for SAPT in psi4, default
symmetry c1  #important for SAPT in psi4, default
}

set PROPERTIES_ORIGIN ["COM"]
properties('MP2/aug-cc-pvtz', properties = ['dipole'])
--------------------------------------------------------------------------

    Molecular point group: c1
  Charge       = 0
  Multiplicity = 1
  Basis Set: AUG-CC-PVTZ
    Blend: AUG-CC-PVTZ
  Basis Set: (AUG-CC-PVTZ AUX)
    Blend: AUG-CC-PVTZ-JKFIT

    Orbital Energies [Eh]
    ---------------------

    Doubly Occupied:

       1A    -15.589458     2A    -15.553941     3A    -11.323384
       4A    -11.281116     5A    -11.272998     6A    -11.258682
       7A    -11.239250     8A    -11.233876     9A    -11.232960
      10A    -11.230572    11A    -11.230451    12A    -11.228775
      13A    -11.221606    14A    -11.218593    15A     -1.293468
      16A     -1.220678    17A     -1.133109    18A     -1.101151
      19A     -1.048450    20A     -1.008249    21A     -0.994196
      22A     -0.933474    23A     -0.869378    24A     -0.840221
      25A     -0.821274    26A     -0.798195    27A     -0.723909
      28A     -0.716196    29A     -0.671357    30A     -0.655169
      31A     -0.641339    32A     -0.621525    33A     -0.595981
      34A     -0.594646    35A     -0.587873    36A     -0.579509
      37A     -0.567213    38A     -0.562672    39A     -0.542071
      40A     -0.522223    41A     -0.510192    42A     -0.503908
      43A     -0.487473    44A     -0.453340    45A     -0.414786
      46A     -0.381427    47A     -0.336072    48A     -0.330531
      49A     -0.276770

  @DF-RHF Final Energy:  -570.49562786213926

   => Energetics <=

    Nuclear Repulsion Energy =            791.6838988573440474
    One-Electron Energy =               -2343.4516753195166530
    Two-Electron Energy =                 981.2721486000333471
    Total Energy =                       -570.4956278621392585
  Basis Set: (AUG-CC-PVTZ AUX)
    Blend: AUG-CC-PVTZ-RI
    Molecular point group: c1

    Geometry (in Angstrom), charge = 0, multiplicity = 1:

       Center              X                  Y                   Z               Mass
    ------------   -----------------  -----------------  -----------------  -----------------
         N           -0.456999679037     1.066818505236    -0.311160923873    14.003074004430
         N            1.043001320963    -0.723976494764    -0.008093923873    14.003074004430
         C           -1.675621679037     0.392719505236    -0.119061923873    12.000000000000
         C            0.839325320963     0.592585505236    -0.149854923873    12.000000000000
         C            3.437031320963    -0.323544494764     0.117640076127    12.000000000000
         C            1.903285320963     1.519440505236    -0.175308923873    12.000000000000
         C            3.198572320963     1.051453505236    -0.038285923873    12.000000000000
         C           -2.784349679037     1.166776505236     0.263002076127    12.000000000000
         C           -1.852234679037    -0.976819494764    -0.374880923873    12.000000000000
         C            2.314780320963    -1.148658494764     0.122231076127    12.000000000000
         C            4.781269620963    -0.857380694764     0.262379376127    12.000000000000
         C           -4.041079679037     0.585441505236     0.410135076127    12.000000000000
         C           -3.113916679037    -1.548387494764    -0.204828923873    12.000000000000
         C           -4.214882679037    -0.780235494764     0.177318076127    12.000000000000
         H           -0.533906679037     2.075146505236    -0.235199923873     1.007825032230
         H            1.707444320963     2.583039505236    -0.297336923873     1.007825032230
         H            4.031312320963     1.753445505236    -0.051210923873     1.007825032230
         H           -2.653387679037     2.230001505236     0.463072076127     1.007825032230
         H           -1.005158679037    -1.579369494764    -0.673012923873     1.007825032230
         H            2.430661320963    -2.226772494764     0.238589076127     1.007825032230
         H            5.443940320963    -0.642260494764    -0.606723923873     1.007825032230
         H            5.328032320963    -0.457363494764     1.146506076127     1.007825032230
         H            4.803040320963    -1.963106494764     0.380480076127     1.007825032230
         H           -4.884057679037     1.203989505236     0.709485076127     1.007825032230
         H           -3.236302679037    -2.612064494764    -0.396869923873     1.007825032230
         H           -5.192413679037    -1.239373494764     0.299315076127     1.007825032230

  Basis Set: AUG-CC-PVTZ
    Blend: AUG-CC-PVTZ
  Basis Set: (AUG-CC-PVTZ AUX)
    Blend: AUG-CC-PVTZ-JKFIT
	 Reference Energy          =    -570.4956278621392585 [Eh]
	 Singles Energy            =      -0.0000000000000000 [Eh]
	 Same-Spin Energy          =      -0.6369338046212208 [Eh]
	 Opposite-Spin Energy      =      -1.9714436494939624 [Eh]
	 Correlation Energy        =      -2.6083774541151832 [Eh]
	 Total Energy              =    -573.1040053162544154 [Eh]

	 ================> DF-SCS-MP2 Energies <==================
	-----------------------------------------------------------
	 SCS Same-Spin Scale       =       0.3333333333333333 [-]
	 SCS Opposite-Spin Scale   =       1.2000000000000000 [-]
	 SCS Same-Spin Energy      =      -0.2123112682070736 [Eh]
	 SCS Opposite-Spin Energy  =      -2.3657323793927549 [Eh]
	 SCS Correlation Energy    =      -2.5780436475998285 [Eh]
	 SCS Total Energy          =    -573.0736715097391425 [Eh]
	-----------------------------------------------------------

  Dipole Moment: [D]
     X:     1.8503      Y:     1.8599      Z:     0.1615     Total:     2.6285

*** Psi4 exiting successfully. Buy a developer a beer!
