                               Psi4 1.4a3.dev225

  ==> Input File <==

--------------------------------------------------------------------------
#psi4
#
memory 32 gb

molecule  {
0 1
  N       -0.4914050     1.0723760    -0.3164170
  N        1.0085960    -0.7184190    -0.0133500
  C       -1.7100270     0.3982770    -0.1243180
  C        0.8049200     0.5981430    -0.1551110
  C        3.4026260    -0.3179870     0.1123840
  C        1.8688800     1.5249980    -0.1805650
  C        3.1641670     1.0570110    -0.0435420
  C       -2.8187550     1.1723340     0.2577460
  C       -1.8866400    -0.9712620    -0.3801370
  C        2.2803750    -1.1431010     0.1169750
  C        4.7931030    -0.8701860     0.2621020
  C       -4.0754850     0.5909990     0.4048790
  C       -3.1483220    -1.5428300    -0.2100850
  C       -4.2492880    -0.7746780     0.1720620
  H       -0.5683120     2.0807040    -0.2404560
  H        1.6730390     2.5885970    -0.3025930
  H        3.9969070     1.7590030    -0.0564670
  H       -2.6877930     2.2355590     0.4578160
  H       -1.0395640    -1.5738120    -0.6782690
  H        2.3962560    -2.2212150     0.2333330
  H        5.4095350    -0.6367030    -0.6119800
  H        5.2829333    -0.3824510     1.1110120
  H        4.7686350    -1.9575490     0.3752240
  H       -4.9184630     1.2095470     0.7042290
  H       -3.2707080    -2.6065070    -0.4021260
  H       -5.2268190    -1.2338160     0.2940590
units angstrom
no_reorient  #important for SAPT in psi4, default
symmetry c1  #important for SAPT in psi4, default
}

set PROPERTIES_ORIGIN ["COM"]
properties('MP2/aug-cc-pvtz', properties = ['dipole'])
--------------------------------------------------------------------------

    Molecular point group: c1
  Charge       = 0
  Multiplicity = 1
  Basis Set: AUG-CC-PVTZ
    Blend: AUG-CC-PVTZ
  Basis Set: (AUG-CC-PVTZ AUX)
    Blend: AUG-CC-PVTZ-JKFIT

    Orbital Energies [Eh]
    ---------------------

    Doubly Occupied:

       1A    -15.588976     2A    -15.553625     3A    -11.322755
       4A    -11.280861     5A    -11.272417     6A    -11.258387
       7A    -11.238956     8A    -11.235110     9A    -11.233665
      10A    -11.230240    11A    -11.229291    12A    -11.228519
      13A    -11.221373    14A    -11.218333    15A     -1.292979
      16A     -1.219985    17A     -1.132722    18A     -1.097175
      19A     -1.046004    20A     -1.007977    21A     -0.993088
      22A     -0.934940    23A     -0.868526    24A     -0.840950
      25A     -0.821049    26A     -0.797886    27A     -0.723563
      28A     -0.715612    29A     -0.670525    30A     -0.653439
      31A     -0.636778    32A     -0.621214    33A     -0.595622
      34A     -0.593038    35A     -0.588116    36A     -0.579355
      37A     -0.567683    38A     -0.563228    39A     -0.551258
      40A     -0.518445    41A     -0.511368    42A     -0.503763
      43A     -0.487301    44A     -0.453796    45A     -0.414235
      46A     -0.381265    47A     -0.336261    48A     -0.330370
      49A     -0.276662

  @DF-RHF Final Energy:  -570.49831149562760

   => Energetics <=

    Nuclear Repulsion Energy =            790.8349254610907337
    One-Electron Energy =               -2341.7891088996657345
    Two-Electron Energy =                 980.4558719429473967
    Total Energy =                       -570.4983114956276040
  Basis Set: (AUG-CC-PVTZ AUX)
    Blend: AUG-CC-PVTZ-RI
    Molecular point group: c1

    Geometry (in Angstrom), charge = 0, multiplicity = 1:

       Center              X                  Y                   Z               Mass
    ------------   -----------------  -----------------  -----------------  -----------------
         N           -0.459955066753     1.067635755944    -0.311319912352    14.003074004430
         N            1.040045933247    -0.723159244056    -0.008252912352    14.003074004430
         C           -1.678577066753     0.393536755944    -0.119220912352    12.000000000000
         C            0.836369933247     0.593402755944    -0.150013912352    12.000000000000
         C            3.434075933247    -0.322727244056     0.117481087648    12.000000000000
         C            1.900329933247     1.520257755944    -0.175467912352    12.000000000000
         C            3.195616933247     1.052270755944    -0.038444912352    12.000000000000
         C           -2.787305066753     1.167593755944     0.262843087648    12.000000000000
         C           -1.855190066753    -0.976002244056    -0.375039912352    12.000000000000
         C            2.311824933247    -1.147841244056     0.122072087648    12.000000000000
         C            4.824552933247    -0.874926244056     0.267199087648    12.000000000000
         C           -4.044035066753     0.586258755944     0.409976087648    12.000000000000
         C           -3.116872066753    -1.547570244056    -0.204987912352    12.000000000000
         C           -4.217838066753    -0.779418244056     0.177159087648    12.000000000000
         H           -0.536862066753     2.075963755944    -0.235358912352     1.007825032230
         H            1.704488933247     2.583856755944    -0.297495912352     1.007825032230
         H            4.028356933247     1.754262755944    -0.051369912352     1.007825032230
         H           -2.656343066753     2.230818755944     0.462913087648     1.007825032230
         H           -1.008114066753    -1.578552244056    -0.673171912352     1.007825032230
         H            2.427705933247    -2.225955244056     0.238430087648     1.007825032230
         H            5.440984933247    -0.641443244056    -0.606882912352     1.007825032230
         H            5.314383233247    -0.387191244056     1.116109087648     1.007825032230
         H            4.800084933247    -1.962289244056     0.380321087648     1.007825032230
         H           -4.887013066753     1.204806755944     0.709326087648     1.007825032230
         H           -3.239258066753    -2.611247244056    -0.397028912352     1.007825032230
         H           -5.195369066753    -1.238556244056     0.299156087648     1.007825032230

  Basis Set: AUG-CC-PVTZ
    Blend: AUG-CC-PVTZ
  Basis Set: (AUG-CC-PVTZ AUX)
    Blend: AUG-CC-PVTZ-JKFIT
	 Reference Energy          =    -570.4983114956276040 [Eh]
	 Singles Energy            =      -0.0000000000000000 [Eh]
	 Same-Spin Energy          =      -0.6364884121594410 [Eh]
	 Opposite-Spin Energy      =      -1.9710117630709072 [Eh]
	 Correlation Energy        =      -2.6075001752303484 [Eh]
	 Total Energy              =    -573.1058116708579746 [Eh]

	 ================> DF-SCS-MP2 Energies <==================
	-----------------------------------------------------------
	 SCS Same-Spin Scale       =       0.3333333333333333 [-]
	 SCS Opposite-Spin Scale   =       1.2000000000000000 [-]
	 SCS Same-Spin Energy      =      -0.2121628040531470 [Eh]
	 SCS Opposite-Spin Energy  =      -2.3652141156850885 [Eh]
	 SCS Correlation Energy    =      -2.5773769197382355 [Eh]
	 SCS Total Energy          =    -573.0756884153657893 [Eh]
	-----------------------------------------------------------

  Dipole Moment: [D]
     X:     1.8886      Y:     1.8664      Z:     0.1470     Total:     2.6593

*** Psi4 exiting successfully. Buy a developer a beer!
