                               Psi4 1.4a3.dev225

  ==> Input File <==

--------------------------------------------------------------------------
#psi4
#
memory 32 gb

molecule  {
0 1
  N       -0.4914050     1.0723760    -0.3164170
  N        1.0085960    -0.7184190    -0.0133500
  C       -1.7100270     0.3982770    -0.1243180
  C        0.8049200     0.5981430    -0.1551110
  C        3.4026260    -0.3179870     0.1123840
  C        1.8688800     1.5249980    -0.1805650
  C        3.1641670     1.0570110    -0.0435420
  C       -2.8187550     1.1723340     0.2577460
  C       -1.8866400    -0.9712620    -0.3801370
  C        2.2803750    -1.1431010     0.1169750
  C        4.7931030    -0.8701860     0.2621020
  C       -4.0754850     0.5909990     0.4048790
  C       -3.1483220    -1.5428300    -0.2100850
  C       -4.2492880    -0.7746780     0.1720620
  H       -0.5721039     2.1304191    -0.2367108
  H        1.6730390     2.5885970    -0.3025930
  H        3.9969070     1.7590030    -0.0564670
  H       -2.6877930     2.2355590     0.4578160
  H       -1.0395640    -1.5738120    -0.6782690
  H        2.3962560    -2.2212150     0.2333330
  H        5.4095350    -0.6367030    -0.6119800
  H        5.2936270    -0.4518060     1.1412500
  H        4.7686350    -1.9575490     0.3752240
  H       -4.9184630     1.2095470     0.7042290
  H       -3.2707080    -2.6065070    -0.4021260
  H       -5.2268190    -1.2338160     0.2940590
units angstrom
no_reorient  #important for SAPT in psi4, default
symmetry c1  #important for SAPT in psi4, default
}

set PROPERTIES_ORIGIN ["COM"]
properties('MP2/aug-cc-pvtz', properties = ['dipole'])
--------------------------------------------------------------------------

    Molecular point group: c1
  Charge       = 0
  Multiplicity = 1
  Basis Set: AUG-CC-PVTZ
    Blend: AUG-CC-PVTZ
  Basis Set: (AUG-CC-PVTZ AUX)
    Blend: AUG-CC-PVTZ-JKFIT

    Orbital Energies [Eh]
    ---------------------

    Doubly Occupied:

       1A    -15.593716     2A    -15.553627     3A    -11.323031
       4A    -11.281062     5A    -11.272689     6A    -11.258282
       7A    -11.238654     8A    -11.235116     9A    -11.233647
      10A    -11.230287    11A    -11.228816    12A    -11.228465
      13A    -11.221328    14A    -11.218431    15A     -1.290677
      16A     -1.217437    17A     -1.132056    18A     -1.096682
      19A     -1.045663    20A     -1.007951    21A     -0.992224
      22A     -0.933492    23A     -0.868145    24A     -0.840460
      25A     -0.820826    26A     -0.795967    27A     -0.721976
      28A     -0.711127    29A     -0.670473    30A     -0.650720
      31A     -0.636620    32A     -0.621034    33A     -0.594249
      34A     -0.593070    35A     -0.587804    36A     -0.578965
      37A     -0.568544    38A     -0.562442    39A     -0.546506
      40A     -0.519068    41A     -0.510915    42A     -0.504062
      43A     -0.487210    44A     -0.453718    45A     -0.414264
      46A     -0.381298    47A     -0.336412    48A     -0.330441
      49A     -0.276523

  @DF-RHF Final Energy:  -570.49496440882649

   => Energetics <=

    Nuclear Repulsion Energy =            790.4580196648835226
    One-Electron Energy =               -2341.0736270994138977
    Two-Electron Energy =                 980.1206430257038846
    Total Energy =                       -570.4949644088264904
  Basis Set: (AUG-CC-PVTZ AUX)
    Blend: AUG-CC-PVTZ-RI
    Molecular point group: c1

    Geometry (in Angstrom), charge = 0, multiplicity = 1:

       Center              X                  Y                   Z               Mass
    ------------   -----------------  -----------------  -----------------  -----------------
         N           -0.459992849507     1.067743271303    -0.311505947717    14.003074004430
         N            1.040008150493    -0.723051728697    -0.008438947717    14.003074004430
         C           -1.678614849507     0.393644271303    -0.119406947717    12.000000000000
         C            0.836332150493     0.593510271303    -0.150199947717    12.000000000000
         C            3.434038150493    -0.322619728697     0.117295052283    12.000000000000
         C            1.900292150493     1.520365271303    -0.175653947717    12.000000000000
         C            3.195579150493     1.052378271303    -0.038630947717    12.000000000000
         C           -2.787342849507     1.167701271303     0.262657052283    12.000000000000
         C           -1.855227849507    -0.975894728697    -0.375225947717    12.000000000000
         C            2.311787150493    -1.147733728697     0.121886052283    12.000000000000
         C            4.824515150493    -0.874818728697     0.267013052283    12.000000000000
         C           -4.044072849507     0.586366271303     0.409790052283    12.000000000000
         C           -3.116909849507    -1.547462728697    -0.205173947717    12.000000000000
         C           -4.217875849507    -0.779310728697     0.176973052283    12.000000000000
         H           -0.540691749507     2.125786371303    -0.231799747717     1.007825032230
         H            1.704451150493     2.583964271303    -0.297681947717     1.007825032230
         H            4.028319150493     1.754370271303    -0.051555947717     1.007825032230
         H           -2.656380849507     2.230926271303     0.462727052283     1.007825032230
         H           -1.008151849507    -1.578444728697    -0.673357947717     1.007825032230
         H            2.427668150493    -2.225847728697     0.238244052283     1.007825032230
         H            5.440947150493    -0.641335728697    -0.607068947717     1.007825032230
         H            5.325039150493    -0.456438728697     1.146161052283     1.007825032230
         H            4.800047150493    -1.962181728697     0.380135052283     1.007825032230
         H           -4.887050849507     1.204914271303     0.709140052283     1.007825032230
         H           -3.239295849507    -2.611139728697    -0.397214947717     1.007825032230
         H           -5.195406849507    -1.238448728697     0.298970052283     1.007825032230

  Basis Set: AUG-CC-PVTZ
    Blend: AUG-CC-PVTZ
  Basis Set: (AUG-CC-PVTZ AUX)
    Blend: AUG-CC-PVTZ-JKFIT
	 Reference Energy          =    -570.4949644088264904 [Eh]
	 Singles Energy            =      -0.0000000000000000 [Eh]
	 Same-Spin Energy          =      -0.6368708456724058 [Eh]
	 Opposite-Spin Energy      =      -1.9719792919738790 [Eh]
	 Correlation Energy        =      -2.6088501376462849 [Eh]
	 Total Energy              =    -573.1038145464727904 [Eh]

	 ================> DF-SCS-MP2 Energies <==================
	-----------------------------------------------------------
	 SCS Same-Spin Scale       =       0.3333333333333333 [-]
	 SCS Opposite-Spin Scale   =       1.2000000000000000 [-]
	 SCS Same-Spin Energy      =      -0.2122902818908019 [Eh]
	 SCS Opposite-Spin Energy  =      -2.3663751503686545 [Eh]
	 SCS Correlation Energy    =      -2.5786654322594567 [Eh]
	 SCS Total Energy          =    -573.0736298410859035 [Eh]
	-----------------------------------------------------------

  Dipole Moment: [D]
     X:     1.8584      Y:     1.8869      Z:     0.1635     Total:     2.6534

*** Psi4 exiting successfully. Buy a developer a beer!
