                               Psi4 1.4a3.dev225

  ==> Input File <==

--------------------------------------------------------------------------
#psi4
#
memory 32 gb

molecule  {
0 1
  N       -0.4914050     1.0723760    -0.3164170
  N        1.0085960    -0.7184190    -0.0133500
  C       -1.7100270     0.3982770    -0.1243180
  C        0.8049200     0.5981430    -0.1551110
  C        3.4026260    -0.3179870     0.1123840
  C        1.8688800     1.5249980    -0.1805650
  C        3.1641670     1.0570110    -0.0435420
  C       -2.8187550     1.1723340     0.2577460
  C       -1.8866400    -0.9712620    -0.3801370
  C        2.2803750    -1.1431010     0.1169750
  C        4.7931030    -0.8701860     0.2621020
  C       -4.0754850     0.5909990     0.4048790
  C       -3.1483220    -1.5428300    -0.2100850
  C       -4.2492880    -0.7746780     0.1720620
  H       -0.5683120     2.0807040    -0.2404560
  H        1.6730390     2.5885970    -0.3025930
  H        3.9969070     1.7590030    -0.0564670
  H       -2.6877930     2.2355590     0.4578160
  H       -1.0395640    -1.5738120    -0.6782690
  H        2.3962560    -2.2212150     0.2333330
  H        5.4064167    -0.6180894    -0.6089983
  H        5.2936270    -0.4518060     1.1412500
  H        4.7686350    -1.9575490     0.3752240
  H       -4.9184630     1.2095470     0.7042290
  H       -3.2707080    -2.6065070    -0.4021260
  H       -5.2268190    -1.2338160     0.2940590
units angstrom
no_reorient  #important for SAPT in psi4, default
symmetry c1  #important for SAPT in psi4, default
}

set PROPERTIES_ORIGIN ["COM"]
properties('MP2/aug-cc-pvtz', properties = ['dipole'])
--------------------------------------------------------------------------

    Molecular point group: c1
  Charge       = 0
  Multiplicity = 1
  Basis Set: AUG-CC-PVTZ
    Blend: AUG-CC-PVTZ
  Basis Set: (AUG-CC-PVTZ AUX)
    Blend: AUG-CC-PVTZ-JKFIT

    Orbital Energies [Eh]
    ---------------------

    Doubly Occupied:

       1A    -15.589085     2A    -15.553696     3A    -11.322933
       4A    -11.280920     5A    -11.272684     6A    -11.258427
       7A    -11.238878     8A    -11.235246     9A    -11.233713
      10A    -11.230288    11A    -11.229011    12A    -11.228576
      13A    -11.221425    14A    -11.218392    15A     -1.293086
      16A     -1.220084    17A     -1.132777    18A     -1.096995
      19A     -1.045964    20A     -1.008025    21A     -0.993071
      22A     -0.934891    23A     -0.868515    24A     -0.841154
      25A     -0.821156    26A     -0.797920    27A     -0.723629
      28A     -0.715562    29A     -0.670552    30A     -0.653324
      31A     -0.637027    32A     -0.621237    33A     -0.595563
      34A     -0.593695    35A     -0.588128    36A     -0.579527
      37A     -0.569218    38A     -0.562526    39A     -0.548018
      40A     -0.519162    41A     -0.510904    42A     -0.504203
      43A     -0.487348    44A     -0.454029    45A     -0.414336
      46A     -0.381373    47A     -0.336502    48A     -0.330458
      49A     -0.276856

  @DF-RHF Final Energy:  -570.49888944090890

   => Energetics <=

    Nuclear Repulsion Energy =            790.7823270815223395
    One-Electron Energy =               -2341.6822541437704785
    Two-Electron Energy =                 980.4010376213391282
    Total Energy =                       -570.4988894409088971
  Basis Set: (AUG-CC-PVTZ AUX)
    Blend: AUG-CC-PVTZ-RI
    Molecular point group: c1

    Geometry (in Angstrom), charge = 0, multiplicity = 1:

       Center              X                  Y                   Z               Mass
    ------------   -----------------  -----------------  -----------------  -----------------
         N           -0.459996537018     1.067913531282    -0.311501768064    14.003074004430
         N            1.040004462982    -0.722881468718    -0.008434768064    14.003074004430
         C           -1.678618537018     0.393814531282    -0.119402768064    12.000000000000
         C            0.836328462982     0.593680531282    -0.150195768064    12.000000000000
         C            3.434034462982    -0.322449468718     0.117299231936    12.000000000000
         C            1.900288462982     1.520535531282    -0.175649768064    12.000000000000
         C            3.195575462982     1.052548531282    -0.038626768064    12.000000000000
         C           -2.787346537018     1.167871531282     0.262661231936    12.000000000000
         C           -1.855231537018    -0.975724468718    -0.375221768064    12.000000000000
         C            2.311783462982    -1.147563468718     0.121890231936    12.000000000000
         C            4.824511462982    -0.874648468718     0.267017231936    12.000000000000
         C           -4.044076537018     0.586536531282     0.409794231936    12.000000000000
         C           -3.116913537018    -1.547292468718    -0.205169768064    12.000000000000
         C           -4.217879537018    -0.779140468718     0.176977231936    12.000000000000
         H           -0.536903537018     2.076241531282    -0.235540768064     1.007825032230
         H            1.704447462982     2.584134531282    -0.297677768064     1.007825032230
         H            4.028315462982     1.754540531282    -0.051551768064     1.007825032230
         H           -2.656384537018     2.231096531282     0.462731231936     1.007825032230
         H           -1.008155537018    -1.578274468718    -0.673353768064     1.007825032230
         H            2.427664462982    -2.225677468718     0.238248231936     1.007825032230
         H            5.437825162982    -0.622551868718    -0.604083068064     1.007825032230
         H            5.325035462982    -0.456268468718     1.146165231936     1.007825032230
         H            4.800043462982    -1.962011468718     0.380139231936     1.007825032230
         H           -4.887054537018     1.205084531282     0.709144231936     1.007825032230
         H           -3.239299537018    -2.610969468718    -0.397210768064     1.007825032230
         H           -5.195410537018    -1.238278468718     0.298974231936     1.007825032230

  Basis Set: AUG-CC-PVTZ
    Blend: AUG-CC-PVTZ
  Basis Set: (AUG-CC-PVTZ AUX)
    Blend: AUG-CC-PVTZ-JKFIT
	 Reference Energy          =    -570.4988894409088971 [Eh]
	 Singles Energy            =      -0.0000000000000000 [Eh]
	 Same-Spin Energy          =      -0.6364263581653624 [Eh]
	 Opposite-Spin Energy      =      -1.9709132650584538 [Eh]
	 Correlation Energy        =      -2.6073396232238162 [Eh]
	 Total Energy              =    -573.1062290641326626 [Eh]

	 ================> DF-SCS-MP2 Energies <==================
	-----------------------------------------------------------
	 SCS Same-Spin Scale       =       0.3333333333333333 [-]
	 SCS Opposite-Spin Scale   =       1.2000000000000000 [-]
	 SCS Same-Spin Energy      =      -0.2121421193884541 [Eh]
	 SCS Opposite-Spin Energy  =      -2.3650959180701445 [Eh]
	 SCS Correlation Energy    =      -2.5772380374585988 [Eh]
	 SCS Total Energy          =    -573.0761274783675390 [Eh]
	-----------------------------------------------------------

  Dipole Moment: [D]
     X:     1.8747      Y:     1.8579      Z:     0.1665     Total:     2.6446

*** Psi4 exiting successfully. Buy a developer a beer!
