                               Psi4 1.4a3.dev225

  ==> Input File <==

--------------------------------------------------------------------------
#psi4
#
memory 32 gb

molecule  {
0 1
  N       -0.4914050     1.0723760    -0.3164170
  N        1.0085960    -0.7184190    -0.0133500
  C       -1.6985063     0.3768988    -0.1278199
  C        0.8049200     0.5981430    -0.1551110
  C        3.4026260    -0.3179870     0.1123840
  C        1.8688800     1.5249980    -0.1805650
  C        3.1641670     1.0570110    -0.0435420
  C       -2.8187550     1.1723340     0.2577460
  C       -1.8866400    -0.9712620    -0.3801370
  C        2.2803750    -1.1431010     0.1169750
  C        4.7931030    -0.8701860     0.2621020
  C       -4.0754850     0.5909990     0.4048790
  C       -3.1483220    -1.5428300    -0.2100850
  C       -4.2492880    -0.7746780     0.1720620
  H       -0.5683120     2.0807040    -0.2404560
  H        1.6730390     2.5885970    -0.3025930
  H        3.9969070     1.7590030    -0.0564670
  H       -2.6877930     2.2355590     0.4578160
  H       -1.0395640    -1.5738120    -0.6782690
  H        2.3962560    -2.2212150     0.2333330
  H        5.4095350    -0.6367030    -0.6119800
  H        5.2936270    -0.4518060     1.1412500
  H        4.7686350    -1.9575490     0.3752240
  H       -4.9184630     1.2095470     0.7042290
  H       -3.2707080    -2.6065070    -0.4021260
  H       -5.2268190    -1.2338160     0.2940590
units angstrom
no_reorient  #important for SAPT in psi4, default
symmetry c1  #important for SAPT in psi4, default
}

set PROPERTIES_ORIGIN ["COM"]
properties('MP2/aug-cc-pvtz', properties = ['dipole'])
--------------------------------------------------------------------------

    Molecular point group: c1
  Charge       = 0
  Multiplicity = 1
  Basis Set: AUG-CC-PVTZ
    Blend: AUG-CC-PVTZ
  Basis Set: (AUG-CC-PVTZ AUX)
    Blend: AUG-CC-PVTZ-JKFIT

    Orbital Energies [Eh]
    ---------------------

    Doubly Occupied:

       1A    -15.589334     2A    -15.553609     3A    -11.322435
       4A    -11.280948     5A    -11.272711     6A    -11.258346
       7A    -11.238668     8A    -11.235190     9A    -11.233696
      10A    -11.230774    11A    -11.230696    12A    -11.228859
      13A    -11.221414    14A    -11.216017    15A     -1.293228
      16A     -1.219827    17A     -1.132661    18A     -1.096841
      19A     -1.045617    20A     -1.008609    21A     -0.992671
      22A     -0.934824    23A     -0.868540    24A     -0.840623
      25A     -0.822462    26A     -0.796937    27A     -0.722795
      28A     -0.716410    29A     -0.670748    30A     -0.653278
      31A     -0.637211    32A     -0.620847    33A     -0.597201
      34A     -0.593783    35A     -0.587437    36A     -0.578795
      37A     -0.569535    38A     -0.562676    39A     -0.546721
      40A     -0.519017    41A     -0.510912    42A     -0.504519
      43A     -0.486926    44A     -0.453984    45A     -0.414045
      46A     -0.381322    47A     -0.335702    48A     -0.331405
      49A     -0.276887

  @DF-RHF Final Energy:  -570.49816268007248

   => Energetics <=

    Nuclear Repulsion Energy =            790.8609799578609909
    One-Electron Energy =               -2341.8428996825737158
    Two-Electron Energy =                 980.4837570446402424
    Total Energy =                       -570.4981626800724825
  Basis Set: (AUG-CC-PVTZ AUX)
    Blend: AUG-CC-PVTZ-RI
    Molecular point group: c1

    Geometry (in Angstrom), charge = 0, multiplicity = 1:

       Center              X                  Y                   Z               Mass
    ------------   -----------------  -----------------  -----------------  -----------------
         N           -0.460764549313     1.069408901079    -0.311257184576    14.003074004430
         N            1.039236450687    -0.721386098921    -0.008190184576    14.003074004430
         C           -1.667865849313     0.373931701079    -0.122660084576    12.000000000000
         C            0.835560450687     0.595175901079    -0.149951184576    12.000000000000
         C            3.433266450687    -0.320954098921     0.117543815424    12.000000000000
         C            1.899520450687     1.522030901079    -0.175405184576    12.000000000000
         C            3.194807450687     1.054043901079    -0.038382184576    12.000000000000
         C           -2.788114549313     1.169366901079     0.262905815424    12.000000000000
         C           -1.855999549313    -0.974229098921    -0.374977184576    12.000000000000
         C            2.311015450687    -1.146068098921     0.122134815424    12.000000000000
         C            4.823743450687    -0.873153098921     0.267261815424    12.000000000000
         C           -4.044844549313     0.588031901079     0.410038815424    12.000000000000
         C           -3.117681549313    -1.545797098921    -0.204925184576    12.000000000000
         C           -4.218647549313    -0.777645098921     0.177221815424    12.000000000000
         H           -0.537671549313     2.077736901079    -0.235296184576     1.007825032230
         H            1.703679450687     2.585629901079    -0.297433184576     1.007825032230
         H            4.027547450687     1.756035901079    -0.051307184576     1.007825032230
         H           -2.657152549313     2.232591901079     0.462975815424     1.007825032230
         H           -1.008923549313    -1.576779098921    -0.673109184576     1.007825032230
         H            2.426896450687    -2.224182098921     0.238492815424     1.007825032230
         H            5.440175450687    -0.639670098921    -0.606820184576     1.007825032230
         H            5.324267450687    -0.454773098921     1.146409815424     1.007825032230
         H            4.799275450687    -1.960516098921     0.380383815424     1.007825032230
         H           -4.887822549313     1.206579901079     0.709388815424     1.007825032230
         H           -3.240067549313    -2.609474098921    -0.396966184576     1.007825032230
         H           -5.196178549313    -1.236783098921     0.299218815424     1.007825032230

  Basis Set: AUG-CC-PVTZ
    Blend: AUG-CC-PVTZ
  Basis Set: (AUG-CC-PVTZ AUX)
    Blend: AUG-CC-PVTZ-JKFIT
	 Reference Energy          =    -570.4981626800724825 [Eh]
	 Singles Energy            =      -0.0000000000000000 [Eh]
	 Same-Spin Energy          =      -0.6363985171031477 [Eh]
	 Opposite-Spin Energy      =      -1.9709434303008082 [Eh]
	 Correlation Energy        =      -2.6073419474039561 [Eh]
	 Total Energy              =    -573.1055046274764209 [Eh]

	 ================> DF-SCS-MP2 Energies <==================
	-----------------------------------------------------------
	 SCS Same-Spin Scale       =       0.3333333333333333 [-]
	 SCS Opposite-Spin Scale   =       1.2000000000000000 [-]
	 SCS Same-Spin Energy      =      -0.2121328390343825 [Eh]
	 SCS Opposite-Spin Energy  =      -2.3651321163609698 [Eh]
	 SCS Correlation Energy    =      -2.5772649553953522 [Eh]
	 SCS Total Energy          =    -573.0754276354678041 [Eh]
	-----------------------------------------------------------

  Dipole Moment: [D]
     X:     1.8610      Y:     1.8575      Z:     0.1592     Total:     2.6342

*** Psi4 exiting successfully. Buy a developer a beer!
