                               Psi4 1.4a3.dev225

  ==> Input File <==

--------------------------------------------------------------------------
#psi4
#
memory 32 gb

molecule  {
0 1
  N       -0.4914050     1.0723760    -0.3164170
  N        1.0085960    -0.7184190    -0.0133500
  C       -1.5366598     0.4941777    -0.1516470
  C        0.8049200     0.5981430    -0.1551110
  C        3.4026260    -0.3179870     0.1123840
  C        1.8688800     1.5249980    -0.1805650
  C        3.1641670     1.0570110    -0.0435420
  C       -2.8187550     1.1723340     0.2577460
  C       -1.8866400    -0.9712620    -0.3801370
  C        2.2803750    -1.1431010     0.1169750
  C        4.7931030    -0.8701860     0.2621020
  C       -4.0754850     0.5909990     0.4048790
  C       -3.1483220    -1.5428300    -0.2100850
  C       -4.2492880    -0.7746780     0.1720620
  H       -0.5683120     2.0807040    -0.2404560
  H        1.6730390     2.5885970    -0.3025930
  H        3.9969070     1.7590030    -0.0564670
  H       -2.6877930     2.2355590     0.4578160
  H       -1.0395640    -1.5738120    -0.6782690
  H        2.3962560    -2.2212150     0.2333330
  H        5.4095350    -0.6367030    -0.6119800
  H        5.2936270    -0.4518060     1.1412500
  H        4.7686350    -1.9575490     0.3752240
  H       -4.9184630     1.2095470     0.7042290
  H       -3.2707080    -2.6065070    -0.4021260
  H       -5.2268190    -1.2338160     0.2940590
units angstrom
no_reorient  #important for SAPT in psi4, default
symmetry c1  #important for SAPT in psi4, default
}

set PROPERTIES_ORIGIN ["COM"]
properties('MP2/aug-cc-pvtz', properties = ['dipole'])
--------------------------------------------------------------------------

    Molecular point group: c1
  Charge       = 0
  Multiplicity = 1
  Basis Set: AUG-CC-PVTZ
    Blend: AUG-CC-PVTZ
  Basis Set: (AUG-CC-PVTZ AUX)
    Blend: AUG-CC-PVTZ-JKFIT

    Orbital Energies [Eh]
    ---------------------

    Doubly Occupied:

       1A    -15.609988     2A    -15.569303     3A    -11.335975
       4A    -11.290328     5A    -11.283232     6A    -11.269028
       7A    -11.253938     8A    -11.249523     9A    -11.237614
      10A    -11.225516    11A    -11.222812    12A    -11.221857
      13A    -11.215617    14A    -11.203295    15A     -1.354613
      16A     -1.254169    17A     -1.109589    18A     -1.107724
      19A     -1.064839    20A     -0.989963    21A     -0.983596
      22A     -0.940443    23A     -0.887571    24A     -0.858519
      25A     -0.820006    26A     -0.797712    27A     -0.739145
      28A     -0.730795    29A     -0.672947    30A     -0.663576
      31A     -0.650800    32A     -0.629596    33A     -0.621388
      34A     -0.590922    35A     -0.589342    36A     -0.576850
      37A     -0.570008    38A     -0.555951    39A     -0.553309
      40A     -0.528408    41A     -0.518944    42A     -0.502767
      43A     -0.455896    44A     -0.444984    45A     -0.420985
      46A     -0.391836    47A     -0.342328    48A     -0.320158
      49A     -0.253091

  @DF-RHF Final Energy:  -570.43462414484975

   => Energetics <=

    Nuclear Repulsion Energy =            791.6241366279721206
    One-Electron Energy =               -2342.7559284992435096
    Two-Electron Energy =                 980.6971677264216396
    Total Energy =                       -570.4346241448497494
  Basis Set: (AUG-CC-PVTZ AUX)
    Blend: AUG-CC-PVTZ-RI
    Molecular point group: c1

    Geometry (in Angstrom), charge = 0, multiplicity = 1:

       Center              X                  Y                   Z               Mass
    ------------   -----------------  -----------------  -----------------  -----------------
         N           -0.471314019652     1.061764433778    -0.309704087755    14.003074004430
         N            1.028686980348    -0.729030566222    -0.006637087755    14.003074004430
         C           -1.516568819652     0.483566133778    -0.144934087755    12.000000000000
         C            0.825010980348     0.587531433778    -0.148398087755    12.000000000000
         C            3.422716980348    -0.328598566222     0.119096912245    12.000000000000
         C            1.888970980348     1.514386433778    -0.173852087755    12.000000000000
         C            3.184257980348     1.046399433778    -0.036829087755    12.000000000000
         C           -2.798664019652     1.161722433778     0.264458912245    12.000000000000
         C           -1.866549019652    -0.981873566222    -0.373424087755    12.000000000000
         C            2.300465980348    -1.153712566222     0.123687912245    12.000000000000
         C            4.813193980348    -0.880797566222     0.268814912245    12.000000000000
         C           -4.055394019652     0.580387433778     0.411591912245    12.000000000000
         C           -3.128231019652    -1.553441566222    -0.203372087755    12.000000000000
         C           -4.229197019652    -0.785289566222     0.178774912245    12.000000000000
         H           -0.548221019652     2.070092433778    -0.233743087755     1.007825032230
         H            1.693129980348     2.577985433778    -0.295880087755     1.007825032230
         H            4.016997980348     1.748391433778    -0.049754087755     1.007825032230
         H           -2.667702019652     2.224947433778     0.464528912245     1.007825032230
         H           -1.019473019652    -1.584423566222    -0.671556087755     1.007825032230
         H            2.416346980348    -2.231826566222     0.240045912245     1.007825032230
         H            5.429625980348    -0.647314566222    -0.605267087755     1.007825032230
         H            5.313717980348    -0.462417566222     1.147962912245     1.007825032230
         H            4.788725980348    -1.968160566222     0.381936912245     1.007825032230
         H           -4.898372019652     1.198935433778     0.710941912245     1.007825032230
         H           -3.250617019652    -2.617118566222    -0.395413087755     1.007825032230
         H           -5.206728019652    -1.244427566222     0.300771912245     1.007825032230

  Basis Set: AUG-CC-PVTZ
    Blend: AUG-CC-PVTZ
  Basis Set: (AUG-CC-PVTZ AUX)
    Blend: AUG-CC-PVTZ-JKFIT
	 Reference Energy          =    -570.4346241448497494 [Eh]
	 Singles Energy            =      -0.0000000000000000 [Eh]
	 Same-Spin Energy          =      -0.6396794875584958 [Eh]
	 Opposite-Spin Energy      =      -1.9755080619375927 [Eh]
	 Correlation Energy        =      -2.6151875494960883 [Eh]
	 Total Energy              =    -573.0498116943458626 [Eh]

	 ================> DF-SCS-MP2 Energies <==================
	-----------------------------------------------------------
	 SCS Same-Spin Scale       =       0.3333333333333333 [-]
	 SCS Opposite-Spin Scale   =       1.2000000000000000 [-]
	 SCS Same-Spin Energy      =      -0.2132264958528319 [Eh]
	 SCS Opposite-Spin Energy  =      -2.3706096743251113 [Eh]
	 SCS Correlation Energy    =      -2.5838361701779431 [Eh]
	 SCS Total Energy          =    -573.0184603150277098 [Eh]
	-----------------------------------------------------------

  Dipole Moment: [D]
     X:     3.7949      Y:     2.2131      Z:     0.0212     Total:     4.3931

*** Psi4 exiting successfully. Buy a developer a beer!
