                               Psi4 1.4a3.dev225

  ==> Input File <==

--------------------------------------------------------------------------
#psi4
#
memory 32 gb

molecule  {
0 1
  N       -0.4914050     1.0723760    -0.3164170
  N        1.0085960    -0.7184190    -0.0133500
  C       -1.7100270     0.3982770    -0.1243180
  C        0.8049200     0.5981430    -0.1551110
  C        3.4026260    -0.3179870     0.1123840
  C        1.8688800     1.5249980    -0.1805650
  C        3.1607706     1.0765950    -0.0457628
  C       -2.8187550     1.1723340     0.2577460
  C       -1.8866400    -0.9712620    -0.3801370
  C        2.2803750    -1.1431010     0.1169750
  C        4.7931030    -0.8701860     0.2621020
  C       -4.0754850     0.5909990     0.4048790
  C       -3.1483220    -1.5428300    -0.2100850
  C       -4.2492880    -0.7746780     0.1720620
  H       -0.5683120     2.0807040    -0.2404560
  H        1.6730390     2.5885970    -0.3025930
  H        3.9969070     1.7590030    -0.0564670
  H       -2.6877930     2.2355590     0.4578160
  H       -1.0395640    -1.5738120    -0.6782690
  H        2.3962560    -2.2212150     0.2333330
  H        5.4095350    -0.6367030    -0.6119800
  H        5.2936270    -0.4518060     1.1412500
  H        4.7686350    -1.9575490     0.3752240
  H       -4.9184630     1.2095470     0.7042290
  H       -3.2707080    -2.6065070    -0.4021260
  H       -5.2268190    -1.2338160     0.2940590
units angstrom
no_reorient  #important for SAPT in psi4, default
symmetry c1  #important for SAPT in psi4, default
}

set PROPERTIES_ORIGIN ["COM"]
properties('MP2/aug-cc-pvtz', properties = ['dipole'])
--------------------------------------------------------------------------

    Molecular point group: c1
  Charge       = 0
  Multiplicity = 1
  Basis Set: AUG-CC-PVTZ
    Blend: AUG-CC-PVTZ
  Basis Set: (AUG-CC-PVTZ AUX)
    Blend: AUG-CC-PVTZ-JKFIT

    Orbital Energies [Eh]
    ---------------------

    Doubly Occupied:

       1A    -15.589700     2A    -15.553032     3A    -11.323593
       4A    -11.281119     5A    -11.271362     6A    -11.258746
       7A    -11.238855     8A    -11.236651     9A    -11.233861
      10A    -11.230407    11A    -11.228823    12A    -11.228685
      13A    -11.221635    14A    -11.218577    15A     -1.293141
      16A     -1.219643    17A     -1.132895    18A     -1.095336
      19A     -1.046642    20A     -1.008184    21A     -0.993711
      22A     -0.934266    23A     -0.868023    24A     -0.840778
      25A     -0.820861    26A     -0.798602    27A     -0.724368
      28A     -0.715438    29A     -0.670685    30A     -0.653108
      31A     -0.636711    32A     -0.621834    33A     -0.595919
      34A     -0.593595    35A     -0.588119    36A     -0.579809
      37A     -0.569973    38A     -0.565242    39A     -0.546390
      40A     -0.517499    41A     -0.510307    42A     -0.503859
      43A     -0.487405    44A     -0.453768    45A     -0.414009
      46A     -0.382092    47A     -0.336022    48A     -0.330437
      49A     -0.276850

  @DF-RHF Final Energy:  -570.49848484140409

   => Energetics <=

    Nuclear Repulsion Energy =            790.5602251768764290
    One-Electron Energy =               -2341.2362828569494013
    Two-Electron Energy =                 980.1775728386688797
    Total Energy =                       -570.4984848414040925
  Basis Set: (AUG-CC-PVTZ AUX)
    Blend: AUG-CC-PVTZ-RI
    Molecular point group: c1

    Geometry (in Angstrom), charge = 0, multiplicity = 1:

       Center              X                  Y                   Z               Mass
    ------------   -----------------  -----------------  -----------------  -----------------
         N           -0.459792223659     1.066738905040    -0.311340689171    14.003074004430
         N            1.040208776341    -0.724056094960    -0.008273689171    14.003074004430
         C           -1.678414223659     0.392639905040    -0.119241689171    12.000000000000
         C            0.836532776341     0.592505905040    -0.150034689171    12.000000000000
         C            3.434238776341    -0.323624094960     0.117460310829    12.000000000000
         C            1.900492776341     1.519360905040    -0.175488689171    12.000000000000
         C            3.192383376341     1.070957905040    -0.040686489171    12.000000000000
         C           -2.787142223659     1.166696905040     0.262822310829    12.000000000000
         C           -1.855027223659    -0.976899094960    -0.375060689171    12.000000000000
         C            2.311987776341    -1.148738094960     0.122051310829    12.000000000000
         C            4.824715776341    -0.875823094960     0.267178310829    12.000000000000
         C           -4.043872223659     0.585361905040     0.409955310829    12.000000000000
         C           -3.116709223659    -1.548467094960    -0.205008689171    12.000000000000
         C           -4.217675223659    -0.780315094960     0.177138310829    12.000000000000
         H           -0.536699223659     2.075066905040    -0.235379689171     1.007825032230
         H            1.704651776341     2.582959905040    -0.297516689171     1.007825032230
         H            4.028519776341     1.753365905040    -0.051390689171     1.007825032230
         H           -2.656180223659     2.229921905040     0.462892310829     1.007825032230
         H           -1.007951223659    -1.579449094960    -0.673192689171     1.007825032230
         H            2.427868776341    -2.226852094960     0.238409310829     1.007825032230
         H            5.441147776341    -0.642340094960    -0.606903689171     1.007825032230
         H            5.325239776341    -0.457443094960     1.146326310829     1.007825032230
         H            4.800247776341    -1.963186094960     0.380300310829     1.007825032230
         H           -4.886850223659     1.203909905040     0.709305310829     1.007825032230
         H           -3.239095223659    -2.612144094960    -0.397049689171     1.007825032230
         H           -5.195206223659    -1.239453094960     0.299135310829     1.007825032230

  Basis Set: AUG-CC-PVTZ
    Blend: AUG-CC-PVTZ
  Basis Set: (AUG-CC-PVTZ AUX)
    Blend: AUG-CC-PVTZ-JKFIT
	 Reference Energy          =    -570.4984848414040925 [Eh]
	 Singles Energy            =      -0.0000000000000000 [Eh]
	 Same-Spin Energy          =      -0.6363081544448964 [Eh]
	 Opposite-Spin Energy      =      -1.9709192433933564 [Eh]
	 Correlation Energy        =      -2.6072273978382530 [Eh]
	 Total Energy              =    -573.1057122392423935 [Eh]

	 ================> DF-SCS-MP2 Energies <==================
	-----------------------------------------------------------
	 SCS Same-Spin Scale       =       0.3333333333333333 [-]
	 SCS Opposite-Spin Scale   =       1.2000000000000000 [-]
	 SCS Same-Spin Energy      =      -0.2121027181482988 [Eh]
	 SCS Opposite-Spin Energy  =      -2.3651030920720277 [Eh]
	 SCS Correlation Energy    =      -2.5772058102203266 [Eh]
	 SCS Total Energy          =    -573.0756906516244271 [Eh]
	-----------------------------------------------------------

  Dipole Moment: [D]
     X:     1.8574      Y:     1.8712      Z:     0.1615     Total:     2.6415

*** Psi4 exiting successfully. Buy a developer a beer!
