                               Psi4 1.4a3.dev225

  ==> Input File <==

--------------------------------------------------------------------------
#psi4
#
memory 32 gb

molecule  {
0 1
  N       -0.4914050     1.0723760    -0.3164170
  N        1.0085960    -0.7184190    -0.0133500
  C       -1.7100270     0.3982770    -0.1243180
  C        0.8049200     0.5981430    -0.1551110
  C        3.4026260    -0.3179870     0.1123840
  C        1.8688800     1.5249980    -0.1805650
  C        3.1641670     1.0570110    -0.0435420
  C       -2.8187550     1.1723340     0.2577460
  C       -1.8866400    -0.9712620    -0.3801370
  C        2.2803750    -1.1431010     0.1169750
  C        4.7931030    -0.8701860     0.2621020
  C       -4.0754850     0.5909990     0.4048790
  C       -3.1483220    -1.5428300    -0.2100850
  C       -4.2492880    -0.7746780     0.1720620
  H       -0.5683120     2.0807040    -0.2404560
  H        1.6730390     2.5885970    -0.3025930
  H        3.9969070     1.7590030    -0.0564670
  H       -2.6877930     2.2355590     0.4578160
  H       -1.0395640    -1.5738120    -0.6782690
  H        2.3962560    -2.2212150     0.2333330
  H        5.4095350    -0.6367030    -0.6119800
  H        5.2980622    -0.4872694     1.1547713
  H        4.7686350    -1.9575490     0.3752240
  H       -4.9184630     1.2095470     0.7042290
  H       -3.2707080    -2.6065070    -0.4021260
  H       -5.2268190    -1.2338160     0.2940590
units angstrom
no_reorient  #important for SAPT in psi4, default
symmetry c1  #important for SAPT in psi4, default
}

set PROPERTIES_ORIGIN ["COM"]
properties('MP2/aug-cc-pvtz', properties = ['dipole'])
--------------------------------------------------------------------------

    Molecular point group: c1
  Charge       = 0
  Multiplicity = 1
  Basis Set: AUG-CC-PVTZ
    Blend: AUG-CC-PVTZ
  Basis Set: (AUG-CC-PVTZ AUX)
    Blend: AUG-CC-PVTZ-JKFIT

    Orbital Energies [Eh]
    ---------------------

    Doubly Occupied:

       1A    -15.589195     2A    -15.553773     3A    -11.323106
       4A    -11.280978     5A    -11.272945     6A    -11.258475
       7A    -11.238807     8A    -11.235412     9A    -11.233761
      10A    -11.230337    11A    -11.228754    12A    -11.228634
      13A    -11.221480    14A    -11.218453    15A     -1.293194
      16A     -1.220185    17A     -1.132834    18A     -1.096850
      19A     -1.045943    20A     -1.008075    21A     -0.993074
      22A     -0.934906    23A     -0.868520    24A     -0.841377
      25A     -0.821268    26A     -0.797963    27A     -0.723698
      28A     -0.715531    29A     -0.670619    30A     -0.653231
      31A     -0.637440    32A     -0.621290    33A     -0.595684
      34A     -0.593973    35A     -0.588571    36A     -0.579673
      37A     -0.570210    38A     -0.562530    39A     -0.544305
      40A     -0.519468    41A     -0.510856    42A     -0.504328
      43A     -0.487392    44A     -0.454235    45A     -0.414428
      46A     -0.381479    47A     -0.336723    48A     -0.330534
      49A     -0.277042

  @DF-RHF Final Energy:  -570.49884214864448

   => Energetics <=

    Nuclear Repulsion Energy =            790.7339000293915205
    One-Electron Energy =               -2341.5824091907497859
    Two-Electron Energy =                 980.3496670127138941
    Total Energy =                       -570.4988421486444850
  Basis Set: (AUG-CC-PVTZ AUX)
    Blend: AUG-CC-PVTZ-RI
    Molecular point group: c1

    Geometry (in Angstrom), charge = 0, multiplicity = 1:

       Center              X                  Y                   Z               Mass
    ------------   -----------------  -----------------  -----------------  -----------------
         N           -0.460037887394     1.068209566805    -0.311559465347    14.003074004430
         N            1.039963112606    -0.722585433195    -0.008492465347    14.003074004430
         C           -1.678659887394     0.394110566805    -0.119460465347    12.000000000000
         C            0.836287112606     0.593976566805    -0.150253465347    12.000000000000
         C            3.433993112606    -0.322153433195     0.117241534653    12.000000000000
         C            1.900247112606     1.520831566805    -0.175707465347    12.000000000000
         C            3.195534112606     1.052844566805    -0.038684465347    12.000000000000
         C           -2.787387887394     1.168167566805     0.262603534653    12.000000000000
         C           -1.855272887394    -0.975428433195    -0.375279465347    12.000000000000
         C            2.311742112606    -1.147267433195     0.121832534653    12.000000000000
         C            4.824470112606    -0.874352433195     0.266959534653    12.000000000000
         C           -4.044117887394     0.586832566805     0.409736534653    12.000000000000
         C           -3.116954887394    -1.546996433195    -0.205227465347    12.000000000000
         C           -4.217920887394    -0.778844433195     0.176919534653    12.000000000000
         H           -0.536944887394     2.076537566805    -0.235598465347     1.007825032230
         H            1.704406112606     2.584430566805    -0.297735465347     1.007825032230
         H            4.028274112606     1.754836566805    -0.051609465347     1.007825032230
         H           -2.656425887394     2.231392566805     0.462673534653     1.007825032230
         H           -1.008196887394    -1.577978433195    -0.673411465347     1.007825032230
         H            2.427623112606    -2.225381433195     0.238190534653     1.007825032230
         H            5.440902112606    -0.640869433195    -0.607122465347     1.007825032230
         H            5.329429312606    -0.491435833195     1.159628834653     1.007825032230
         H            4.800002112606    -1.961715433195     0.380081534653     1.007825032230
         H           -4.887095887394     1.205380566805     0.709086534653     1.007825032230
         H           -3.239340887394    -2.610673433195    -0.397268465347     1.007825032230
         H           -5.195451887394    -1.237982433195     0.298916534653     1.007825032230

  Basis Set: AUG-CC-PVTZ
    Blend: AUG-CC-PVTZ
  Basis Set: (AUG-CC-PVTZ AUX)
    Blend: AUG-CC-PVTZ-JKFIT
	 Reference Energy          =    -570.4988421486444850 [Eh]
	 Singles Energy            =      -0.0000000000000000 [Eh]
	 Same-Spin Energy          =      -0.6363973173845892 [Eh]
	 Opposite-Spin Energy      =      -1.9708561802908557 [Eh]
	 Correlation Energy        =      -2.6072534976754449 [Eh]
	 Total Energy              =    -573.1060956463198863 [Eh]

	 ================> DF-SCS-MP2 Energies <==================
	-----------------------------------------------------------
	 SCS Same-Spin Scale       =       0.3333333333333333 [-]
	 SCS Opposite-Spin Scale   =       1.2000000000000000 [-]
	 SCS Same-Spin Energy      =      -0.2121324391281964 [Eh]
	 SCS Opposite-Spin Energy  =      -2.3650274163490268 [Eh]
	 SCS Correlation Energy    =      -2.5771598554772233 [Eh]
	 SCS Total Energy          =    -573.0760020041217331 [Eh]
	-----------------------------------------------------------

  Dipole Moment: [D]
     X:     1.8609      Y:     1.8460      Z:     0.1705     Total:     2.6267

*** Psi4 exiting successfully. Buy a developer a beer!
