                               Psi4 1.4a3.dev225

  ==> Input File <==

--------------------------------------------------------------------------
#psi4
#
memory 32 gb

molecule  {
0 1
  N       -0.4914050     1.0723760    -0.3164170
  N        1.0085960    -0.7184190    -0.0133500
  C       -1.7100270     0.3982770    -0.1243180
  C        0.8049200     0.5981430    -0.1551110
  C        3.4026260    -0.3179870     0.1123840
  C        1.8688800     1.5249980    -0.1805650
  C        3.2610558     1.0708996    -0.0384370
  C       -2.8187550     1.1723340     0.2577460
  C       -1.8866400    -0.9712620    -0.3801370
  C        2.2803750    -1.1431010     0.1169750
  C        4.7931030    -0.8701860     0.2621020
  C       -4.0754850     0.5909990     0.4048790
  C       -3.1483220    -1.5428300    -0.2100850
  C       -4.2492880    -0.7746780     0.1720620
  H       -0.5683120     2.0807040    -0.2404560
  H        1.6730390     2.5885970    -0.3025930
  H        3.9969070     1.7590030    -0.0564670
  H       -2.6877930     2.2355590     0.4578160
  H       -1.0395640    -1.5738120    -0.6782690
  H        2.3962560    -2.2212150     0.2333330
  H        5.4095350    -0.6367030    -0.6119800
  H        5.2936270    -0.4518060     1.1412500
  H        4.7686350    -1.9575490     0.3752240
  H       -4.9184630     1.2095470     0.7042290
  H       -3.2707080    -2.6065070    -0.4021260
  H       -5.2268190    -1.2338160     0.2940590
units angstrom
no_reorient  #important for SAPT in psi4, default
symmetry c1  #important for SAPT in psi4, default
}

set PROPERTIES_ORIGIN ["COM"]
properties('MP2/aug-cc-pvtz', properties = ['dipole'])
--------------------------------------------------------------------------

    Molecular point group: c1
  Charge       = 0
  Multiplicity = 1
  Basis Set: AUG-CC-PVTZ
    Blend: AUG-CC-PVTZ
  Basis Set: (AUG-CC-PVTZ AUX)
    Blend: AUG-CC-PVTZ-JKFIT

    Orbital Energies [Eh]
    ---------------------

    Doubly Occupied:

       1A    -15.587195     2A    -15.557238     3A    -11.321760
       4A    -11.280445     5A    -11.276416     6A    -11.262690
       7A    -11.245997     8A    -11.239352     9A    -11.233200
      10A    -11.229867    11A    -11.227742    12A    -11.227669
      13A    -11.220686    14A    -11.217766    15A     -1.291895
      16A     -1.219173    17A     -1.132190    18A     -1.094839
      19A     -1.039225    20A     -1.007438    21A     -0.988859
      22A     -0.934611    23A     -0.877492    24A     -0.838155
      25A     -0.819213    26A     -0.801627    27A     -0.729024
      28A     -0.713281    29A     -0.668117    30A     -0.654386
      31A     -0.633518    32A     -0.624885    33A     -0.601104
      34A     -0.593967    35A     -0.588135    36A     -0.579706
      37A     -0.574865    38A     -0.567403    39A     -0.547456
      40A     -0.512776    41A     -0.506740    42A     -0.498737
      43A     -0.486974    44A     -0.453216    45A     -0.418388
      46A     -0.371894    47A     -0.336983    48A     -0.330204
      49A     -0.275795

  @DF-RHF Final Energy:  -570.48369337100326

   => Energetics <=

    Nuclear Repulsion Energy =            789.1448861022802248
    One-Electron Energy =               -2338.3765769324290886
    Two-Electron Energy =                 978.7479974591456084
    Total Energy =                       -570.4836933710032554
  Basis Set: (AUG-CC-PVTZ AUX)
    Blend: AUG-CC-PVTZ-RI
    Molecular point group: c1

    Geometry (in Angstrom), charge = 0, multiplicity = 1:

       Center              X                  Y                   Z               Mass
    ------------   -----------------  -----------------  -----------------  -----------------
         N           -0.466329008470     1.067110142313    -0.311818199095    14.003074004430
         N            1.033671991530    -0.723684857687    -0.008751199095    14.003074004430
         C           -1.684951008470     0.393011142313    -0.119719199095    12.000000000000
         C            0.829995991530     0.592877142313    -0.150512199095    12.000000000000
         C            3.427701991530    -0.323252857687     0.116982800905    12.000000000000
         C            1.893955991530     1.519732142313    -0.175966199095    12.000000000000
         C            3.286131791530     1.065633742313    -0.033838199095    12.000000000000
         C           -2.793679008470     1.167068142313     0.262344800905    12.000000000000
         C           -1.861564008470    -0.976527857687    -0.375538199095    12.000000000000
         C            2.305450991530    -1.148366857687     0.121573800905    12.000000000000
         C            4.818178991530    -0.875451857687     0.266700800905    12.000000000000
         C           -4.050409008470     0.585733142313     0.409477800905    12.000000000000
         C           -3.123246008470    -1.548095857687    -0.205486199095    12.000000000000
         C           -4.224212008470    -0.779943857687     0.176660800905    12.000000000000
         H           -0.543236008470     2.075438142313    -0.235857199095     1.007825032230
         H            1.698114991530     2.583331142313    -0.297994199095     1.007825032230
         H            4.021982991530     1.753737142313    -0.051868199095     1.007825032230
         H           -2.662717008470     2.230293142313     0.462414800905     1.007825032230
         H           -1.014488008470    -1.579077857687    -0.673670199095     1.007825032230
         H            2.421331991530    -2.226480857687     0.237931800905     1.007825032230
         H            5.434610991530    -0.641968857687    -0.607381199095     1.007825032230
         H            5.318702991530    -0.457071857687     1.145848800905     1.007825032230
         H            4.793710991530    -1.962814857687     0.379822800905     1.007825032230
         H           -4.893387008470     1.204281142313     0.708827800905     1.007825032230
         H           -3.245632008470    -2.611772857687    -0.397527199095     1.007825032230
         H           -5.201743008470    -1.239081857687     0.298657800905     1.007825032230

  Basis Set: AUG-CC-PVTZ
    Blend: AUG-CC-PVTZ
  Basis Set: (AUG-CC-PVTZ AUX)
    Blend: AUG-CC-PVTZ-JKFIT
	 Reference Energy          =    -570.4836933710032554 [Eh]
	 Singles Energy            =      -0.0000000000000000 [Eh]
	 Same-Spin Energy          =      -0.6371297404632389 [Eh]
	 Opposite-Spin Energy      =      -1.9726286540663107 [Eh]
	 Correlation Energy        =      -2.6097583945295497 [Eh]
	 Total Energy              =    -573.0934517655327909 [Eh]

	 ================> DF-SCS-MP2 Energies <==================
	-----------------------------------------------------------
	 SCS Same-Spin Scale       =       0.3333333333333333 [-]
	 SCS Opposite-Spin Scale   =       1.2000000000000000 [-]
	 SCS Same-Spin Energy      =      -0.2123765801544130 [Eh]
	 SCS Opposite-Spin Energy  =      -2.3671543848795729 [Eh]
	 SCS Correlation Energy    =      -2.5795309650339857 [Eh]
	 SCS Total Energy          =    -573.0632243360372513 [Eh]
	-----------------------------------------------------------

  Dipole Moment: [D]
     X:     1.9467      Y:     1.8461      Z:     0.1673     Total:     2.6880

*** Psi4 exiting successfully. Buy a developer a beer!
