                               Psi4 1.4a3.dev225

  ==> Input File <==

--------------------------------------------------------------------------
#psi4
#
memory 32 gb

molecule  {
0 1
  N       -0.4914050     1.0723760    -0.3164170
  N        1.0085960    -0.7184190    -0.0133500
  C       -1.7100270     0.3982770    -0.1243180
  C        0.8049200     0.5981430    -0.1551110
  C        3.4026260    -0.3179870     0.1123840
  C        1.8688800     1.5249980    -0.1805650
  C        3.1641670     1.0570110    -0.0435420
  C       -2.8187550     1.1723340     0.2577460
  C       -1.8866400    -0.9712620    -0.3801370
  C        2.4415092    -1.0246301     0.1163158
  C        4.7931030    -0.8701860     0.2621020
  C       -4.0754850     0.5909990     0.4048790
  C       -3.1483220    -1.5428300    -0.2100850
  C       -4.2492880    -0.7746780     0.1720620
  H       -0.5683120     2.0807040    -0.2404560
  H        1.6730390     2.5885970    -0.3025930
  H        3.9969070     1.7590030    -0.0564670
  H       -2.6877930     2.2355590     0.4578160
  H       -1.0395640    -1.5738120    -0.6782690
  H        2.3962560    -2.2212150     0.2333330
  H        5.4095350    -0.6367030    -0.6119800
  H        5.2936270    -0.4518060     1.1412500
  H        4.7686350    -1.9575490     0.3752240
  H       -4.9184630     1.2095470     0.7042290
  H       -3.2707080    -2.6065070    -0.4021260
  H       -5.2268190    -1.2338160     0.2940590
units angstrom
no_reorient  #important for SAPT in psi4, default
symmetry c1  #important for SAPT in psi4, default
}

set PROPERTIES_ORIGIN ["COM"]
properties('MP2/aug-cc-pvtz', properties = ['dipole'])
--------------------------------------------------------------------------

    Molecular point group: c1
  Charge       = 0
  Multiplicity = 1
  Basis Set: AUG-CC-PVTZ
    Blend: AUG-CC-PVTZ
  Basis Set: (AUG-CC-PVTZ AUX)
    Blend: AUG-CC-PVTZ-JKFIT

    Orbital Energies [Eh]
    ---------------------

    Doubly Occupied:

       1A    -15.590808     2A    -15.551748     3A    -11.322195
       4A    -11.281090     5A    -11.266856     6A    -11.253511
       7A    -11.245955     8A    -11.233887     9A    -11.230204
      10A    -11.230176    11A    -11.229345    12A    -11.222073
      13A    -11.218716    14A    -11.212414    15A     -1.288317
      16A     -1.213404    17A     -1.136303    18A     -1.108403
      19A     -1.052093    20A     -1.008147    21A     -0.995726
      22A     -0.943224    23A     -0.880786    24A     -0.839157
      25A     -0.819142    26A     -0.791110    27A     -0.717718
      28A     -0.716097    29A     -0.671573    30A     -0.654016
      31A     -0.639492    32A     -0.616992    33A     -0.598127
      34A     -0.593628    35A     -0.592186    36A     -0.579506
      37A     -0.569274    38A     -0.562374    39A     -0.539296
      40A     -0.513169    41A     -0.506539    42A     -0.489569
      43A     -0.472569    44A     -0.460561    45A     -0.425304
      46A     -0.367728    47A     -0.359275    48A     -0.330954
      49A     -0.288533

  @DF-RHF Final Energy:  -570.43647171777025

   => Energetics <=

    Nuclear Repulsion Energy =            792.1863364476771494
    One-Electron Energy =               -2344.3870812881273196
    Two-Electron Energy =                 981.7642731226799242
    Total Energy =                       -570.4364717177702460
  Basis Set: (AUG-CC-PVTZ AUX)
    Blend: AUG-CC-PVTZ-RI
    Molecular point group: c1

    Geometry (in Angstrom), charge = 0, multiplicity = 1:

       Center              X                  Y                   Z               Mass
    ------------   -----------------  -----------------  -----------------  -----------------
         N           -0.470516648868     1.060293264149    -0.311442477303    14.003074004430
         N            1.029484351132    -0.730501735851    -0.008375477303    14.003074004430
         C           -1.689138648868     0.386194264149    -0.119343477303    12.000000000000
         C            0.825808351132     0.586060264149    -0.150136477303    12.000000000000
         C            3.423514351132    -0.330069735851     0.117358522697    12.000000000000
         C            1.889768351132     1.512915264149    -0.175590477303    12.000000000000
         C            3.185055351132     1.044928264149    -0.038567477303    12.000000000000
         C           -2.797866648868     1.160251264149     0.262720522697    12.000000000000
         C           -1.865751648868    -0.983344735851    -0.375162477303    12.000000000000
         C            2.462397551132    -1.036712835851     0.121290322697    12.000000000000
         C            4.813991351132    -0.882268735851     0.267076522697    12.000000000000
         C           -4.054596648868     0.578916264149     0.409853522697    12.000000000000
         C           -3.127433648868    -1.554912735851    -0.205110477303    12.000000000000
         C           -4.228399648868    -0.786760735851     0.177036522697    12.000000000000
         H           -0.547423648868     2.068621264149    -0.235481477303     1.007825032230
         H            1.693927351132     2.576514264149    -0.297618477303     1.007825032230
         H            4.017795351132     1.746920264149    -0.051492477303     1.007825032230
         H           -2.666904648868     2.223476264149     0.462790522697     1.007825032230
         H           -1.018675648868    -1.585894735851    -0.673294477303     1.007825032230
         H            2.417144351132    -2.233297735851     0.238307522697     1.007825032230
         H            5.430423351132    -0.648785735851    -0.607005477303     1.007825032230
         H            5.314515351132    -0.463888735851     1.146224522697     1.007825032230
         H            4.789523351132    -1.969631735851     0.380198522697     1.007825032230
         H           -4.897574648868     1.197464264149     0.709203522697     1.007825032230
         H           -3.249819648868    -2.618589735851    -0.397151477303     1.007825032230
         H           -5.205930648868    -1.245898735851     0.299033522697     1.007825032230

  Basis Set: AUG-CC-PVTZ
    Blend: AUG-CC-PVTZ
  Basis Set: (AUG-CC-PVTZ AUX)
    Blend: AUG-CC-PVTZ-JKFIT
	 Reference Energy          =    -570.4364717177702460 [Eh]
	 Singles Energy            =      -0.0000000000000000 [Eh]
	 Same-Spin Energy          =      -0.6353068511284485 [Eh]
	 Opposite-Spin Energy      =      -1.9734604106726918 [Eh]
	 Correlation Energy        =      -2.6087672618011402 [Eh]
	 Total Energy              =    -573.0452389795714225 [Eh]

	 ================> DF-SCS-MP2 Energies <==================
	-----------------------------------------------------------
	 SCS Same-Spin Scale       =       0.3333333333333333 [-]
	 SCS Opposite-Spin Scale   =       1.2000000000000000 [-]
	 SCS Same-Spin Energy      =      -0.2117689503761495 [Eh]
	 SCS Opposite-Spin Energy  =      -2.3681524928072299 [Eh]
	 SCS Correlation Energy    =      -2.5799214431833795 [Eh]
	 SCS Total Energy          =    -573.0163931609536121 [Eh]
	-----------------------------------------------------------

  Dipole Moment: [D]
     X:     1.7746      Y:     2.1678      Z:     0.1328     Total:     2.8047

*** Psi4 exiting successfully. Buy a developer a beer!
