                               Psi4 1.4a3.dev225

  ==> Input File <==

--------------------------------------------------------------------------
#psi4
#
memory 32 gb

molecule  {
0 1
  N       -0.4914050     1.0723760    -0.3164170
  N        1.0085960    -0.7184190    -0.0133500
  C       -1.6926903     0.4078671    -0.1270509
  C        0.8049200     0.5981430    -0.1551110
  C        3.4026260    -0.3179870     0.1123840
  C        1.8688800     1.5249980    -0.1805650
  C        3.1641670     1.0570110    -0.0435420
  C       -2.8187550     1.1723340     0.2577460
  C       -1.8866400    -0.9712620    -0.3801370
  C        2.2803750    -1.1431010     0.1169750
  C        4.7931030    -0.8701860     0.2621020
  C       -4.0754850     0.5909990     0.4048790
  C       -3.1483220    -1.5428300    -0.2100850
  C       -4.2492880    -0.7746780     0.1720620
  H       -0.5683120     2.0807040    -0.2404560
  H        1.6730390     2.5885970    -0.3025930
  H        3.9969070     1.7590030    -0.0564670
  H       -2.6877930     2.2355590     0.4578160
  H       -1.0395640    -1.5738120    -0.6782690
  H        2.3962560    -2.2212150     0.2333330
  H        5.4095350    -0.6367030    -0.6119800
  H        5.2936270    -0.4518060     1.1412500
  H        4.7686350    -1.9575490     0.3752240
  H       -4.9184630     1.2095470     0.7042290
  H       -3.2707080    -2.6065070    -0.4021260
  H       -5.2268190    -1.2338160     0.2940590
units angstrom
no_reorient  #important for SAPT in psi4, default
symmetry c1  #important for SAPT in psi4, default
}

set PROPERTIES_ORIGIN ["COM"]
properties('MP2/aug-cc-pvtz', properties = ['dipole'])
--------------------------------------------------------------------------

    Molecular point group: c1
  Charge       = 0
  Multiplicity = 1
  Basis Set: AUG-CC-PVTZ
    Blend: AUG-CC-PVTZ
  Basis Set: (AUG-CC-PVTZ AUX)
    Blend: AUG-CC-PVTZ-JKFIT

    Orbital Energies [Eh]
    ---------------------

    Doubly Occupied:

       1A    -15.591011     2A    -15.555004     3A    -11.324155
       4A    -11.281734     5A    -11.273645     6A    -11.259337
       7A    -11.240099     8A    -11.236459     9A    -11.232950
      10A    -11.229638    11A    -11.229494    12A    -11.228222
      13A    -11.220129    14A    -11.218354    15A     -1.296952
      16A     -1.223473    17A     -1.130372    18A     -1.097967
      19A     -1.047465    20A     -1.005970    21A     -0.991827
      22A     -0.935881    23A     -0.870131    24A     -0.842268
      25A     -0.820418    26A     -0.797822    27A     -0.725131
      28A     -0.717197    29A     -0.670515    30A     -0.654977
      31A     -0.638437    32A     -0.621020    33A     -0.596458
      34A     -0.593997    35A     -0.587947    36A     -0.578113
      37A     -0.570630    38A     -0.563617    39A     -0.547537
      40A     -0.519799    41A     -0.511133    42A     -0.504493
      43A     -0.484128    44A     -0.454613    45A     -0.415289
      46A     -0.382292    47A     -0.336398    48A     -0.329436
      49A     -0.275403

  @DF-RHF Final Energy:  -570.49810631915807

   => Energetics <=

    Nuclear Repulsion Energy =            790.8055714461642083
    One-Electron Energy =               -2341.6886840612023661
    Two-Electron Energy =                 980.3850062958799754
    Total Energy =                       -570.4981063191580688
  Basis Set: (AUG-CC-PVTZ AUX)
    Blend: AUG-CC-PVTZ-RI
    Molecular point group: c1

    Geometry (in Angstrom), charge = 0, multiplicity = 1:

       Center              X                  Y                   Z               Mass
    ------------   -----------------  -----------------  -----------------  -----------------
         N           -0.461143647530     1.067390326922    -0.311307309495    14.003074004430
         N            1.038857352470    -0.723404673078    -0.008240309495    14.003074004430
         C           -1.662428947530     0.402881426922    -0.121941209495    12.000000000000
         C            0.835181352470     0.593157326922    -0.150001309495    12.000000000000
         C            3.432887352470    -0.322972673078     0.117493690505    12.000000000000
         C            1.899141352470     1.520012326922    -0.175455309495    12.000000000000
         C            3.194428352470     1.052025326922    -0.038432309495    12.000000000000
         C           -2.788493647530     1.167348326922     0.262855690505    12.000000000000
         C           -1.856378647530    -0.976247673078    -0.375027309495    12.000000000000
         C            2.310636352470    -1.148086673078     0.122084690505    12.000000000000
         C            4.823364352470    -0.875171673078     0.267211690505    12.000000000000
         C           -4.045223647530     0.586013326922     0.409988690505    12.000000000000
         C           -3.118060647530    -1.547815673078    -0.204975309495    12.000000000000
         C           -4.219026647530    -0.779663673078     0.177171690505    12.000000000000
         H           -0.538050647530     2.075718326922    -0.235346309495     1.007825032230
         H            1.703300352470     2.583611326922    -0.297483309495     1.007825032230
         H            4.027168352470     1.754017326922    -0.051357309495     1.007825032230
         H           -2.657531647530     2.230573326922     0.462925690505     1.007825032230
         H           -1.009302647530    -1.578797673078    -0.673159309495     1.007825032230
         H            2.426517352470    -2.226200673078     0.238442690505     1.007825032230
         H            5.439796352470    -0.641688673078    -0.606870309495     1.007825032230
         H            5.323888352470    -0.456791673078     1.146359690505     1.007825032230
         H            4.798896352470    -1.962534673078     0.380333690505     1.007825032230
         H           -4.888201647530     1.204561326922     0.709338690505     1.007825032230
         H           -3.240446647530    -2.611492673078    -0.397016309495     1.007825032230
         H           -5.196557647530    -1.238801673078     0.299168690505     1.007825032230

  Basis Set: AUG-CC-PVTZ
    Blend: AUG-CC-PVTZ
  Basis Set: (AUG-CC-PVTZ AUX)
    Blend: AUG-CC-PVTZ-JKFIT
	 Reference Energy          =    -570.4981063191580688 [Eh]
	 Singles Energy            =      -0.0000000000000000 [Eh]
	 Same-Spin Energy          =      -0.6366288331855472 [Eh]
	 Opposite-Spin Energy      =      -1.9711334039153263 [Eh]
	 Correlation Energy        =      -2.6077622371008733 [Eh]
	 Total Energy              =    -573.1058685562589972 [Eh]

	 ================> DF-SCS-MP2 Energies <==================
	-----------------------------------------------------------
	 SCS Same-Spin Scale       =       0.3333333333333333 [-]
	 SCS Opposite-Spin Scale   =       1.2000000000000000 [-]
	 SCS Same-Spin Energy      =      -0.2122096110618490 [Eh]
	 SCS Opposite-Spin Energy  =      -2.3653600846983913 [Eh]
	 SCS Correlation Energy    =      -2.5775696957602405 [Eh]
	 SCS Total Energy          =    -573.0756760149182583 [Eh]
	-----------------------------------------------------------

  Dipole Moment: [D]
     X:     2.0475      Y:     1.8878      Z:     0.1505     Total:     2.7890

*** Psi4 exiting successfully. Buy a developer a beer!
