                               Psi4 1.4a3.dev225

  ==> Input File <==

--------------------------------------------------------------------------
#psi4
#
memory 32 gb

molecule  {
0 1
  N       -0.4914050     1.0723760    -0.3164170
  N        1.0085960    -0.7184190    -0.0133500
  C       -1.7100270     0.3982770    -0.1243180
  C        0.8049200     0.5981430    -0.1551110
  C        3.4026260    -0.3179870     0.1123840
  C        1.8688800     1.5249980    -0.1805650
  C        3.2577547     1.0231978    -0.0336418
  C       -2.8187550     1.1723340     0.2577460
  C       -1.8866400    -0.9712620    -0.3801370
  C        2.2803750    -1.1431010     0.1169750
  C        4.7931030    -0.8701860     0.2621020
  C       -4.0754850     0.5909990     0.4048790
  C       -3.1483220    -1.5428300    -0.2100850
  C       -4.2492880    -0.7746780     0.1720620
  H       -0.5683120     2.0807040    -0.2404560
  H        1.6730390     2.5885970    -0.3025930
  H        3.9969070     1.7590030    -0.0564670
  H       -2.6877930     2.2355590     0.4578160
  H       -1.0395640    -1.5738120    -0.6782690
  H        2.3962560    -2.2212150     0.2333330
  H        5.4095350    -0.6367030    -0.6119800
  H        5.2936270    -0.4518060     1.1412500
  H        4.7686350    -1.9575490     0.3752240
  H       -4.9184630     1.2095470     0.7042290
  H       -3.2707080    -2.6065070    -0.4021260
  H       -5.2268190    -1.2338160     0.2940590
units angstrom
no_reorient  #important for SAPT in psi4, default
symmetry c1  #important for SAPT in psi4, default
}

set PROPERTIES_ORIGIN ["COM"]
properties('MP2/aug-cc-pvtz', properties = ['dipole'])
--------------------------------------------------------------------------

    Molecular point group: c1
  Charge       = 0
  Multiplicity = 1
  Basis Set: AUG-CC-PVTZ
    Blend: AUG-CC-PVTZ
  Basis Set: (AUG-CC-PVTZ AUX)
    Blend: AUG-CC-PVTZ-JKFIT

    Orbital Energies [Eh]
    ---------------------

    Doubly Occupied:

       1A    -15.586081     2A    -15.558516     3A    -11.320391
       4A    -11.280064     5A    -11.279268     6A    -11.260424
       7A    -11.244142     8A    -11.234881     9A    -11.232944
      10A    -11.229671    11A    -11.228302    12A    -11.227298
      13A    -11.220319    14A    -11.217450    15A     -1.291975
      16A     -1.220334    17A     -1.132089    18A     -1.101153
      19A     -1.037573    20A     -1.007162    21A     -0.987527
      22A     -0.935975    23A     -0.877152    24A     -0.838935
      25A     -0.819979    26A     -0.799417    27A     -0.726436
      28A     -0.713986    29A     -0.668611    30A     -0.654869
      31A     -0.634399    32A     -0.622932    33A     -0.598640
      34A     -0.594209    35A     -0.589222    36A     -0.578910
      37A     -0.571289    38A     -0.566576    39A     -0.548303
      40A     -0.512786    41A     -0.508309    42A     -0.500533
      43A     -0.486877    44A     -0.454188    45A     -0.418494
      46A     -0.373956    47A     -0.337630    48A     -0.330135
      49A     -0.275722

  @DF-RHF Final Energy:  -570.48526023878389

   => Energetics <=

    Nuclear Repulsion Energy =            789.8494321775719982
    One-Electron Energy =               -2339.7973188035284693
    Two-Electron Energy =                 979.4626263871725769
    Total Energy =                       -570.4852602387838942
  Basis Set: (AUG-CC-PVTZ AUX)
    Blend: AUG-CC-PVTZ-RI
    Molecular point group: c1

    Geometry (in Angstrom), charge = 0, multiplicity = 1:

       Center              X                  Y                   Z               Mass
    ------------   -----------------  -----------------  -----------------  -----------------
         N           -0.466113836337     1.070219438617    -0.312130759577    14.003074004430
         N            1.033887163663    -0.720575561383    -0.009063759577    14.003074004430
         C           -1.684735836337     0.396120438617    -0.120031759577    12.000000000000
         C            0.830211163663     0.595986438617    -0.150824759577    12.000000000000
         C            3.427917163663    -0.320143561383     0.116670240423    12.000000000000
         C            1.894171163663     1.522841438617    -0.176278759577    12.000000000000
         C            3.283045863663     1.021041238617    -0.029355559577    12.000000000000
         C           -2.793463836337     1.170177438617     0.262032240423    12.000000000000
         C           -1.861348836337    -0.973418561383    -0.375850759577    12.000000000000
         C            2.305666163663    -1.145257561383     0.121261240423    12.000000000000
         C            4.818394163663    -0.872342561383     0.266388240423    12.000000000000
         C           -4.050193836337     0.588842438617     0.409165240423    12.000000000000
         C           -3.123030836337    -1.544986561383    -0.205798759577    12.000000000000
         C           -4.223996836337    -0.776834561383     0.176348240423    12.000000000000
         H           -0.543020836337     2.078547438617    -0.236169759577     1.007825032230
         H            1.698330163663     2.586440438617    -0.298306759577     1.007825032230
         H            4.022198163663     1.756846438617    -0.052180759577     1.007825032230
         H           -2.662501836337     2.233402438617     0.462102240423     1.007825032230
         H           -1.014272836337    -1.575968561383    -0.673982759577     1.007825032230
         H            2.421547163663    -2.223371561383     0.237619240423     1.007825032230
         H            5.434826163663    -0.638859561383    -0.607693759577     1.007825032230
         H            5.318918163663    -0.453962561383     1.145536240423     1.007825032230
         H            4.793926163663    -1.959705561383     0.379510240423     1.007825032230
         H           -4.893171836337     1.207390438617     0.708515240423     1.007825032230
         H           -3.245416836337    -2.608663561383    -0.397839759577     1.007825032230
         H           -5.201527836337    -1.235972561383     0.298345240423     1.007825032230

  Basis Set: AUG-CC-PVTZ
    Blend: AUG-CC-PVTZ
  Basis Set: (AUG-CC-PVTZ AUX)
    Blend: AUG-CC-PVTZ-JKFIT
	 Reference Energy          =    -570.4852602387838942 [Eh]
	 Singles Energy            =      -0.0000000000000000 [Eh]
	 Same-Spin Energy          =      -0.6370755661069214 [Eh]
	 Opposite-Spin Energy      =      -1.9722873898151494 [Eh]
	 Correlation Energy        =      -2.6093629559220708 [Eh]
	 Total Energy              =    -573.0946231947059459 [Eh]

	 ================> DF-SCS-MP2 Energies <==================
	-----------------------------------------------------------
	 SCS Same-Spin Scale       =       0.3333333333333333 [-]
	 SCS Opposite-Spin Scale   =       1.2000000000000000 [-]
	 SCS Same-Spin Energy      =      -0.2123585220356405 [Eh]
	 SCS Opposite-Spin Energy  =      -2.3667448677781793 [Eh]
	 SCS Correlation Energy    =      -2.5791033898138198 [Eh]
	 SCS Total Energy          =    -573.0643636285976754 [Eh]
	-----------------------------------------------------------

  Dipole Moment: [D]
     X:     1.9775      Y:     1.8158      Z:     0.1699     Total:     2.6901

*** Psi4 exiting successfully. Buy a developer a beer!
