                               Psi4 1.4a3.dev225

  ==> Input File <==

--------------------------------------------------------------------------
#psi4
#
memory 32 gb

molecule  {
0 1
  N       -0.4914050     1.0723760    -0.3164170
  N        1.0085960    -0.7184190    -0.0133500
  C       -1.7100270     0.3982770    -0.1243180
  C        0.8049200     0.5981430    -0.1551110
  C        3.4026260    -0.3179870     0.1123840
  C        1.8688800     1.5249980    -0.1805650
  C        3.1641670     1.0570110    -0.0435420
  C       -2.7793024     1.1447902     0.2441508
  C       -1.8866400    -0.9712620    -0.3801370
  C        2.2803750    -1.1431010     0.1169750
  C        4.7931030    -0.8701860     0.2621020
  C       -4.0754850     0.5909990     0.4048790
  C       -3.1483220    -1.5428300    -0.2100850
  C       -4.2492880    -0.7746780     0.1720620
  H       -0.5683120     2.0807040    -0.2404560
  H        1.6730390     2.5885970    -0.3025930
  H        3.9969070     1.7590030    -0.0564670
  H       -2.6877930     2.2355590     0.4578160
  H       -1.0395640    -1.5738120    -0.6782690
  H        2.3962560    -2.2212150     0.2333330
  H        5.4095350    -0.6367030    -0.6119800
  H        5.2936270    -0.4518060     1.1412500
  H        4.7686350    -1.9575490     0.3752240
  H       -4.9184630     1.2095470     0.7042290
  H       -3.2707080    -2.6065070    -0.4021260
  H       -5.2268190    -1.2338160     0.2940590
units angstrom
no_reorient  #important for SAPT in psi4, default
symmetry c1  #important for SAPT in psi4, default
}

set PROPERTIES_ORIGIN ["COM"]
properties('MP2/aug-cc-pvtz', properties = ['dipole'])
--------------------------------------------------------------------------

    Molecular point group: c1
  Charge       = 0
  Multiplicity = 1
  Basis Set: AUG-CC-PVTZ
    Blend: AUG-CC-PVTZ
  Basis Set: (AUG-CC-PVTZ AUX)
    Blend: AUG-CC-PVTZ-JKFIT

    Orbital Energies [Eh]
    ---------------------

    Doubly Occupied:

       1A    -15.587327     2A    -15.553184     3A    -11.322455
       4A    -11.275132     5A    -11.272436     6A    -11.258071
       7A    -11.238226     8A    -11.236379     9A    -11.234753
      10A    -11.229926    11A    -11.228596    12A    -11.227800
      13A    -11.222703    14A    -11.219974    15A     -1.292953
      16A     -1.220901    17A     -1.134520    18A     -1.096517
      19A     -1.046706    20A     -1.005194    21A     -0.996760
      22A     -0.934619    23A     -0.867879    24A     -0.842508
      25A     -0.820112    26A     -0.798728    27A     -0.724358
      28A     -0.715147    29A     -0.668087    30A     -0.652566
      31A     -0.636014    32A     -0.624225    33A     -0.595887
      34A     -0.595235    35A     -0.589337    36A     -0.575138
      37A     -0.568941    38A     -0.562390    39A     -0.546344
      40A     -0.518958    41A     -0.512558    42A     -0.502097
      43A     -0.488014    44A     -0.453582    45A     -0.414188
      46A     -0.381078    47A     -0.340064    48A     -0.326426
      49A     -0.279377

  @DF-RHF Final Energy:  -570.49596707102319

   => Energetics <=

    Nuclear Repulsion Energy =            791.5726562134432243
    One-Electron Energy =               -2343.2685086787796536
    Two-Electron Energy =                 981.1998853943132417
    Total Energy =                       -570.4959670710231876
  Basis Set: (AUG-CC-PVTZ AUX)
    Blend: AUG-CC-PVTZ-RI
    Molecular point group: c1

    Geometry (in Angstrom), charge = 0, multiplicity = 1:

       Center              X                  Y                   Z               Mass
    ------------   -----------------  -----------------  -----------------  -----------------
         N           -0.462585205000     1.069810786905    -0.310599283608    14.003074004430
         N            1.037415795000    -0.720984213095    -0.007532283608    14.003074004430
         C           -1.681207205000     0.395711786905    -0.118500283608    12.000000000000
         C            0.833739795000     0.595577786905    -0.149293283608    12.000000000000
         C            3.431445795000    -0.320552213095     0.118201716392    12.000000000000
         C            1.897699795000     1.522432786905    -0.174747283608    12.000000000000
         C            3.192986795000     1.054445786905    -0.037724283608    12.000000000000
         C           -2.750482605000     1.142224986905     0.249968516392    12.000000000000
         C           -1.857820205000    -0.973827213095    -0.374319283608    12.000000000000
         C            2.309194795000    -1.145666213095     0.122792716392    12.000000000000
         C            4.821922795000    -0.872751213095     0.267919716392    12.000000000000
         C           -4.046665205000     0.588433786905     0.410696716392    12.000000000000
         C           -3.119502205000    -1.545395213095    -0.204267283608    12.000000000000
         C           -4.220468205000    -0.777243213095     0.177879716392    12.000000000000
         H           -0.539492205000     2.078138786905    -0.234638283608     1.007825032230
         H            1.701858795000     2.586031786905    -0.296775283608     1.007825032230
         H            4.025726795000     1.756437786905    -0.050649283608     1.007825032230
         H           -2.658973205000     2.232993786905     0.463633716392     1.007825032230
         H           -1.010744205000    -1.576377213095    -0.672451283608     1.007825032230
         H            2.425075795000    -2.223780213095     0.239150716392     1.007825032230
         H            5.438354795000    -0.639268213095    -0.606162283608     1.007825032230
         H            5.322446795000    -0.454371213095     1.147067716392     1.007825032230
         H            4.797454795000    -1.960114213095     0.381041716392     1.007825032230
         H           -4.889643205000     1.206981786905     0.710046716392     1.007825032230
         H           -3.241888205000    -2.609072213095    -0.396308283608     1.007825032230
         H           -5.197999205000    -1.236381213095     0.299876716392     1.007825032230

  Basis Set: AUG-CC-PVTZ
    Blend: AUG-CC-PVTZ
  Basis Set: (AUG-CC-PVTZ AUX)
    Blend: AUG-CC-PVTZ-JKFIT
	 Reference Energy          =    -570.4959670710231876 [Eh]
	 Singles Energy            =      -0.0000000000000000 [Eh]
	 Same-Spin Energy          =      -0.6363846181525600 [Eh]
	 Opposite-Spin Energy      =      -1.9709699654030526 [Eh]
	 Correlation Energy        =      -2.6073545835556127 [Eh]
	 Total Energy              =    -573.1033216545788491 [Eh]

	 ================> DF-SCS-MP2 Energies <==================
	-----------------------------------------------------------
	 SCS Same-Spin Scale       =       0.3333333333333333 [-]
	 SCS Opposite-Spin Scale   =       1.2000000000000000 [-]
	 SCS Same-Spin Energy      =      -0.2121282060508533 [Eh]
	 SCS Opposite-Spin Energy  =      -2.3651639584836630 [Eh]
	 SCS Correlation Energy    =      -2.5772921645345162 [Eh]
	 SCS Total Energy          =    -573.0732592355576571 [Eh]
	-----------------------------------------------------------

  Dipole Moment: [D]
     X:     1.7761      Y:     1.8201      Z:     0.1691     Total:     2.5486

*** Psi4 exiting successfully. Buy a developer a beer!
