                               Psi4 1.4a3.dev225

  ==> Input File <==

--------------------------------------------------------------------------
#psi4
#
memory 32 gb

molecule  {
0 1
  N       -0.4914050     1.0723760    -0.3164170
  N        1.0085960    -0.7184190    -0.0133500
  C       -1.7100270     0.3982770    -0.1243180
  C        0.8049200     0.5981430    -0.1551110
  C        3.4026260    -0.3179870     0.1123840
  C        1.8688800     1.5249980    -0.1805650
  C        3.1641670     1.0570110    -0.0435420
  C       -2.8187550     1.1723340     0.2577460
  C       -1.8866400    -0.9712620    -0.3801370
  C        2.2803750    -1.1431010     0.1169750
  C        4.7931030    -0.8701860     0.2621020
  C       -3.9852331     0.6327475     0.3943127
  C       -3.1483220    -1.5428300    -0.2100850
  C       -4.2492880    -0.7746780     0.1720620
  H       -0.5683120     2.0807040    -0.2404560
  H        1.6730390     2.5885970    -0.3025930
  H        3.9969070     1.7590030    -0.0564670
  H       -2.6877930     2.2355590     0.4578160
  H       -1.0395640    -1.5738120    -0.6782690
  H        2.3962560    -2.2212150     0.2333330
  H        5.4095350    -0.6367030    -0.6119800
  H        5.2936270    -0.4518060     1.1412500
  H        4.7686350    -1.9575490     0.3752240
  H       -4.9184630     1.2095470     0.7042290
  H       -3.2707080    -2.6065070    -0.4021260
  H       -5.2268190    -1.2338160     0.2940590
units angstrom
no_reorient  #important for SAPT in psi4, default
symmetry c1  #important for SAPT in psi4, default
}

set PROPERTIES_ORIGIN ["COM"]
properties('MP2/aug-cc-pvtz', properties = ['dipole'])
--------------------------------------------------------------------------

    Molecular point group: c1
  Charge       = 0
  Multiplicity = 1
  Basis Set: AUG-CC-PVTZ
    Blend: AUG-CC-PVTZ
  Basis Set: (AUG-CC-PVTZ AUX)
    Blend: AUG-CC-PVTZ-JKFIT

    Orbital Energies [Eh]
    ---------------------

    Doubly Occupied:

       1A    -15.590301     2A    -15.553942     3A    -11.323137
       4A    -11.281221     5A    -11.272833     6A    -11.258572
       7A    -11.239245     8A    -11.235621     9A    -11.231642
      10A    -11.229148    11A    -11.229094    12A    -11.224255
      13A    -11.219126    14A    -11.215168    15A     -1.293626
      16A     -1.221077    17A     -1.138933    18A     -1.097134
      19A     -1.044928    20A     -1.020986    21A     -0.987123
      22A     -0.935472    23A     -0.868785    24A     -0.842705
      25A     -0.815864    26A     -0.799197    27A     -0.722094
      28A     -0.716013    29A     -0.672292    30A     -0.653493
      31A     -0.636715    32A     -0.623087    33A     -0.596398
      34A     -0.588988    35A     -0.588249    36A     -0.581966
      37A     -0.569446    38A     -0.560283    39A     -0.547135
      40A     -0.523214    41A     -0.514296    42A     -0.509847
      43A     -0.470060    44A     -0.454228    45A     -0.414305
      46A     -0.381523    47A     -0.345506    48A     -0.331364
      49A     -0.273554

  @DF-RHF Final Energy:  -570.48538701252528

   => Energetics <=

    Nuclear Repulsion Energy =            792.1207666802940821
    One-Electron Energy =               -2344.3259294465556195
    Two-Electron Energy =                 981.7197757537362577
    Total Energy =                       -570.4853870125252797
  Basis Set: (AUG-CC-PVTZ AUX)
    Blend: AUG-CC-PVTZ-RI
    Molecular point group: c1

    Geometry (in Angstrom), charge = 0, multiplicity = 1:

       Center              X                  Y                   Z               Mass
    ------------   -----------------  -----------------  -----------------  -----------------
         N           -0.465896402391     1.065294179727    -0.310796713214    14.003074004430
         N            1.034104597609    -0.725500820273    -0.007729713214    14.003074004430
         C           -1.684518402391     0.391195179727    -0.118697713214    12.000000000000
         C            0.830428597609     0.591061179727    -0.149490713214    12.000000000000
         C            3.428134597609    -0.325068820273     0.118004286786    12.000000000000
         C            1.894388597609     1.517916179727    -0.174944713214    12.000000000000
         C            3.189675597609     1.049929179727    -0.037921713214    12.000000000000
         C           -2.793246402391     1.165252179727     0.263366286786    12.000000000000
         C           -1.861131402391    -0.978343820273    -0.374516713214    12.000000000000
         C            2.305883597609    -1.150182820273     0.122595286786    12.000000000000
         C            4.818611597609    -0.877267820273     0.267722286786    12.000000000000
         C           -3.959724502391     0.625665679727     0.399932986786    12.000000000000
         C           -3.122813402391    -1.549911820273    -0.204464713214    12.000000000000
         C           -4.223779402391    -0.781759820273     0.177682286786    12.000000000000
         H           -0.542803402391     2.073622179727    -0.234835713214     1.007825032230
         H            1.698547597609     2.581515179727    -0.296972713214     1.007825032230
         H            4.022415597609     1.751921179727    -0.050846713214     1.007825032230
         H           -2.662284402391     2.228477179727     0.463436286786     1.007825032230
         H           -1.014055402391    -1.580893820273    -0.672648713214     1.007825032230
         H            2.421764597609    -2.228296820273     0.238953286786     1.007825032230
         H            5.435043597609    -0.643784820273    -0.606359713214     1.007825032230
         H            5.319135597609    -0.458887820273     1.146870286786     1.007825032230
         H            4.794143597609    -1.964630820273     0.380844286786     1.007825032230
         H           -4.892954402391     1.202465179727     0.709849286786     1.007825032230
         H           -3.245199402391    -2.613588820273    -0.396505713214     1.007825032230
         H           -5.201310402391    -1.240897820273     0.299679286786     1.007825032230

  Basis Set: AUG-CC-PVTZ
    Blend: AUG-CC-PVTZ
  Basis Set: (AUG-CC-PVTZ AUX)
    Blend: AUG-CC-PVTZ-JKFIT
	 Reference Energy          =    -570.4853870125252797 [Eh]
	 Singles Energy            =      -0.0000000000000000 [Eh]
	 Same-Spin Energy          =      -0.6363298569288404 [Eh]
	 Opposite-Spin Energy      =      -1.9711723708397348 [Eh]
	 Correlation Energy        =      -2.6075022277685753 [Eh]
	 Total Energy              =    -573.0928892402938573 [Eh]

	 ================> DF-SCS-MP2 Energies <==================
	-----------------------------------------------------------
	 SCS Same-Spin Scale       =       0.3333333333333333 [-]
	 SCS Opposite-Spin Scale   =       1.2000000000000000 [-]
	 SCS Same-Spin Energy      =      -0.2121099523096134 [Eh]
	 SCS Opposite-Spin Energy  =      -2.3654068450076817 [Eh]
	 SCS Correlation Energy    =      -2.5775167973172950 [Eh]
	 SCS Total Energy          =    -573.0629038098426236 [Eh]
	-----------------------------------------------------------

  Dipole Moment: [D]
     X:     1.9138      Y:     1.8781      Z:     0.1629     Total:     2.6863

*** Psi4 exiting successfully. Buy a developer a beer!
