                               Psi4 1.4a3.dev225

  ==> Input File <==

--------------------------------------------------------------------------
#psi4
#
memory 32 gb

molecule  {
0 1
  N       -0.4914050     1.0723760    -0.3164170
  N        1.0085960    -0.7184190    -0.0133500
  C       -1.7100270     0.3982770    -0.1243180
  C        0.8049200     0.5981430    -0.1551110
  C        3.4026260    -0.3179870     0.1123840
  C        1.8688800     1.5249980    -0.1805650
  C        3.1641670     1.0570110    -0.0435420
  C       -2.8187550     1.1723340     0.2577460
  C       -1.8866400    -0.9712620    -0.3801370
  C        2.2803750    -1.1431010     0.1169750
  C        4.7931030    -0.8701860     0.2621020
  C       -4.0754850     0.5909990     0.4048790
  C       -3.1483220    -1.5428300    -0.2100850
  C       -4.2492880    -0.7746780     0.1720620
  H       -0.5683120     2.0807040    -0.2404560
  H        1.6820362     2.5397337    -0.2969869
  H        3.9969070     1.7590030    -0.0564670
  H       -2.6877930     2.2355590     0.4578160
  H       -1.0395640    -1.5738120    -0.6782690
  H        2.3962560    -2.2212150     0.2333330
  H        5.4095350    -0.6367030    -0.6119800
  H        5.2936270    -0.4518060     1.1412500
  H        4.7686350    -1.9575490     0.3752240
  H       -4.9184630     1.2095470     0.7042290
  H       -3.2707080    -2.6065070    -0.4021260
  H       -5.2268190    -1.2338160     0.2940590
units angstrom
no_reorient  #important for SAPT in psi4, default
symmetry c1  #important for SAPT in psi4, default
}

set PROPERTIES_ORIGIN ["COM"]
properties('MP2/aug-cc-pvtz', properties = ['dipole'])
--------------------------------------------------------------------------

    Molecular point group: c1
  Charge       = 0
  Multiplicity = 1
  Basis Set: AUG-CC-PVTZ
    Blend: AUG-CC-PVTZ
  Basis Set: (AUG-CC-PVTZ AUX)
    Blend: AUG-CC-PVTZ-JKFIT

    Orbital Energies [Eh]
    ---------------------

    Doubly Occupied:

       1A    -15.589221     2A    -15.553295     3A    -11.322495
       4A    -11.280976     5A    -11.272561     6A    -11.257984
       7A    -11.234938     8A    -11.233745     9A    -11.232889
      10A    -11.230311    11A    -11.228707    12A    -11.228624
      13A    -11.221460    14A    -11.218418    15A     -1.293044
      16A     -1.219945    17A     -1.132830    18A     -1.097143
      19A     -1.047107    20A     -1.008059    21A     -0.993231
      22A     -0.934724    23A     -0.869848    24A     -0.842196
      25A     -0.822121    26A     -0.797931    27A     -0.723894
      28A     -0.715879    29A     -0.670651    30A     -0.655681
      31A     -0.643064    32A     -0.621987    33A     -0.595903
      34A     -0.593650    35A     -0.588445    36A     -0.579618
      37A     -0.569266    38A     -0.562440    39A     -0.546718
      40A     -0.519822    41A     -0.511295    42A     -0.504333
      43A     -0.487393    44A     -0.454062    45A     -0.414345
      46A     -0.381095    47A     -0.336464    48A     -0.330471
      49A     -0.276864

  @DF-RHF Final Energy:  -570.49823898838054

   => Energetics <=

    Nuclear Repulsion Energy =            791.0386204585947780
    One-Electron Energy =               -2342.1794325370701699
    Two-Electron Energy =                 980.6425730900948565
    Total Energy =                       -570.4982389883805354
  Basis Set: (AUG-CC-PVTZ AUX)
    Blend: AUG-CC-PVTZ-RI
    Molecular point group: c1

    Geometry (in Angstrom), charge = 0, multiplicity = 1:

       Center              X                  Y                   Z               Mass
    ------------   -----------------  -----------------  -----------------  -----------------
         N           -0.460062861303     1.068282922325    -0.311516134904    14.003074004430
         N            1.039938138697    -0.722512077675    -0.008449134904    14.003074004430
         C           -1.678684861303     0.394183922325    -0.119417134904    12.000000000000
         C            0.836262138697     0.594049922325    -0.150210134904    12.000000000000
         C            3.433968138697    -0.322080077675     0.117284865096    12.000000000000
         C            1.900222138697     1.520904922325    -0.175664134904    12.000000000000
         C            3.195509138697     1.052917922325    -0.038641134904    12.000000000000
         C           -2.787412861303     1.168240922325     0.262646865096    12.000000000000
         C           -1.855297861303    -0.975355077675    -0.375236134904    12.000000000000
         C            2.311717138697    -1.147194077675     0.121875865096    12.000000000000
         C            4.824445138697    -0.874279077675     0.267002865096    12.000000000000
         C           -4.044142861303     0.586905922325     0.409779865096    12.000000000000
         C           -3.116979861303    -1.546923077675    -0.205184134904    12.000000000000
         C           -4.217945861303    -0.778771077675     0.176962865096    12.000000000000
         H           -0.536969861303     2.076610922325    -0.235555134904     1.007825032230
         H            1.713378338697     2.535640622325    -0.292086034904     1.007825032230
         H            4.028249138697     1.754909922325    -0.051566134904     1.007825032230
         H           -2.656450861303     2.231465922325     0.462716865096     1.007825032230
         H           -1.008221861303    -1.577905077675    -0.673368134904     1.007825032230
         H            2.427598138697    -2.225308077675     0.238233865096     1.007825032230
         H            5.440877138697    -0.640796077675    -0.607079134904     1.007825032230
         H            5.324969138697    -0.455899077675     1.146150865096     1.007825032230
         H            4.799977138697    -1.961642077675     0.380124865096     1.007825032230
         H           -4.887120861303     1.205453922325     0.709129865096     1.007825032230
         H           -3.239365861303    -2.610600077675    -0.397225134904     1.007825032230
         H           -5.195476861303    -1.237909077675     0.298959865096     1.007825032230

  Basis Set: AUG-CC-PVTZ
    Blend: AUG-CC-PVTZ
  Basis Set: (AUG-CC-PVTZ AUX)
    Blend: AUG-CC-PVTZ-JKFIT
	 Reference Energy          =    -570.4982389883805354 [Eh]
	 Singles Energy            =      -0.0000000000000000 [Eh]
	 Same-Spin Energy          =      -0.6362967100731570 [Eh]
	 Opposite-Spin Energy      =      -1.9705186761724887 [Eh]
	 Correlation Energy        =      -2.6068153862456458 [Eh]
	 Total Energy              =    -573.1050543746262065 [Eh]

	 ================> DF-SCS-MP2 Energies <==================
	-----------------------------------------------------------
	 SCS Same-Spin Scale       =       0.3333333333333333 [-]
	 SCS Opposite-Spin Scale   =       1.2000000000000000 [-]
	 SCS Same-Spin Energy      =      -0.2120989033577190 [Eh]
	 SCS Opposite-Spin Energy  =      -2.3646224114069865 [Eh]
	 SCS Correlation Energy    =      -2.5767213147647055 [Eh]
	 SCS Total Energy          =    -573.0749603031451898 [Eh]
	-----------------------------------------------------------

  Dipole Moment: [D]
     X:     1.8626      Y:     1.8687      Z:     0.1612     Total:     2.6433

*** Psi4 exiting successfully. Buy a developer a beer!
