                               Psi4 1.4a3.dev225

  ==> Input File <==

--------------------------------------------------------------------------
#psi4
#
memory 32 gb

molecule  {
0 1
  N       -0.4914050     1.0723760    -0.3164170
  N        1.0085960    -0.7184190    -0.0133500
  C       -1.7100270     0.3982770    -0.1243180
  C        0.8049200     0.5981430    -0.1551110
  C        3.4026260    -0.3179870     0.1123840
  C        1.8688800     1.5249980    -0.1805650
  C        3.2124956     1.0647977    -0.0410830
  C       -2.8187550     1.1723340     0.2577460
  C       -1.8866400    -0.9712620    -0.3801370
  C        2.2803750    -1.1431010     0.1169750
  C        4.7931030    -0.8701860     0.2621020
  C       -4.0754850     0.5909990     0.4048790
  C       -3.1483220    -1.5428300    -0.2100850
  C       -4.2492880    -0.7746780     0.1720620
  H       -0.5683120     2.0807040    -0.2404560
  H        1.6730390     2.5885970    -0.3025930
  H        3.9969070     1.7590030    -0.0564670
  H       -2.6877930     2.2355590     0.4578160
  H       -1.0395640    -1.5738120    -0.6782690
  H        2.3962560    -2.2212150     0.2333330
  H        5.4095350    -0.6367030    -0.6119800
  H        5.2936270    -0.4518060     1.1412500
  H        4.7686350    -1.9575490     0.3752240
  H       -4.9184630     1.2095470     0.7042290
  H       -3.2707080    -2.6065070    -0.4021260
  H       -5.2268190    -1.2338160     0.2940590
units angstrom
no_reorient  #important for SAPT in psi4, default
symmetry c1  #important for SAPT in psi4, default
}

set PROPERTIES_ORIGIN ["COM"]
properties('MP2/aug-cc-pvtz', properties = ['dipole'])
--------------------------------------------------------------------------

    Molecular point group: c1
  Charge       = 0
  Multiplicity = 1
  Basis Set: AUG-CC-PVTZ
    Blend: AUG-CC-PVTZ
  Basis Set: (AUG-CC-PVTZ AUX)
    Blend: AUG-CC-PVTZ-JKFIT

    Orbital Energies [Eh]
    ---------------------

    Doubly Occupied:

       1A    -15.588136     2A    -15.555416     3A    -11.322351
       4A    -11.280680     5A    -11.274519     6A    -11.260525
       7A    -11.242553     8A    -11.237127     9A    -11.233451
      10A    -11.230071    11A    -11.228266    12A    -11.228155
      13A    -11.221051    14A    -11.218072    15A     -1.292424
      16A     -1.219535    17A     -1.132474    18A     -1.095470
      19A     -1.042458    20A     -1.007725    21A     -0.990984
      22A     -0.934717    23A     -0.872776    24A     -0.839493
      25A     -0.820220    26A     -0.799633    27A     -0.726116
      28A     -0.714370    29A     -0.669260    30A     -0.653344
      31A     -0.633874    32A     -0.623921    33A     -0.598222
      34A     -0.593777    35A     -0.588288    36A     -0.579564
      37A     -0.571780    38A     -0.566886    39A     -0.547113
      40A     -0.514978    41A     -0.509407    42A     -0.502578
      43A     -0.487181    44A     -0.453587    45A     -0.416455
      46A     -0.376390    47A     -0.336778    48A     -0.330335
      49A     -0.276348

  @DF-RHF Final Energy:  -570.49457821213582

   => Energetics <=

    Nuclear Repulsion Energy =            789.9333070790323745
    One-Electron Energy =               -2339.9781044270484927
    Two-Electron Energy =                 979.5502191358802975
    Total Energy =                       -570.4945782121358206
  Basis Set: (AUG-CC-PVTZ AUX)
    Blend: AUG-CC-PVTZ-RI
    Molecular point group: c1

    Geometry (in Angstrom), charge = 0, multiplicity = 1:

       Center              X                  Y                   Z               Mass
    ------------   -----------------  -----------------  -----------------  -----------------
         N           -0.463163759981     1.067507876049    -0.311645727657    14.003074004430
         N            1.036837240019    -0.723287123951    -0.008578727657    14.003074004430
         C           -1.681785759981     0.393408876049    -0.119546727657    12.000000000000
         C            0.833161240019     0.593274876049    -0.150339727657    12.000000000000
         C            3.430867240019    -0.322855123951     0.117155272343    12.000000000000
         C            1.897121240019     1.520129876049    -0.175793727657    12.000000000000
         C            3.240736840019     1.059929576049    -0.036311727657    12.000000000000
         C           -2.790513759981     1.167465876049     0.262517272343    12.000000000000
         C           -1.858398759981    -0.976130123951    -0.375365727657    12.000000000000
         C            2.308616240019    -1.147969123951     0.121746272343    12.000000000000
         C            4.821344240019    -0.875054123951     0.266873272343    12.000000000000
         C           -4.047243759981     0.586130876049     0.409650272343    12.000000000000
         C           -3.120080759981    -1.547698123951    -0.205313727657    12.000000000000
         C           -4.221046759981    -0.779546123951     0.176833272343    12.000000000000
         H           -0.540070759981     2.075835876049    -0.235684727657     1.007825032230
         H            1.701280240019     2.583728876049    -0.297821727657     1.007825032230
         H            4.025148240019     1.754134876049    -0.051695727657     1.007825032230
         H           -2.659551759981     2.230690876049     0.462587272343     1.007825032230
         H           -1.011322759981    -1.578680123951    -0.673497727657     1.007825032230
         H            2.424497240019    -2.226083123951     0.238104272343     1.007825032230
         H            5.437776240019    -0.641571123951    -0.607208727657     1.007825032230
         H            5.321868240019    -0.456674123951     1.146021272343     1.007825032230
         H            4.796876240019    -1.962417123951     0.379995272343     1.007825032230
         H           -4.890221759981     1.204678876049     0.709000272343     1.007825032230
         H           -3.242466759981    -2.611375123951    -0.397354727657     1.007825032230
         H           -5.198577759981    -1.238684123951     0.298830272343     1.007825032230

  Basis Set: AUG-CC-PVTZ
    Blend: AUG-CC-PVTZ
  Basis Set: (AUG-CC-PVTZ AUX)
    Blend: AUG-CC-PVTZ-JKFIT
	 Reference Energy          =    -570.4945782121358206 [Eh]
	 Singles Energy            =      -0.0000000000000000 [Eh]
	 Same-Spin Energy          =      -0.6367209066594769 [Eh]
	 Opposite-Spin Energy      =      -1.9715827078488188 [Eh]
	 Correlation Energy        =      -2.6083036145082956 [Eh]
	 Total Energy              =    -573.1028818266440794 [Eh]

	 ================> DF-SCS-MP2 Energies <==================
	-----------------------------------------------------------
	 SCS Same-Spin Scale       =       0.3333333333333333 [-]
	 SCS Opposite-Spin Scale   =       1.2000000000000000 [-]
	 SCS Same-Spin Energy      =      -0.2122403022198256 [Eh]
	 SCS Opposite-Spin Energy  =      -2.3658992494185824 [Eh]
	 SCS Correlation Energy    =      -2.5781395516384080 [Eh]
	 SCS Total Energy          =    -573.0727177637742216 [Eh]
	-----------------------------------------------------------

  Dipole Moment: [D]
     X:     1.9138      Y:     1.8533      Z:     0.1651     Total:     2.6692

*** Psi4 exiting successfully. Buy a developer a beer!
