                               Psi4 1.4a3.dev225

  ==> Input File <==

--------------------------------------------------------------------------
#psi4
#
memory 32 gb

molecule  {
0 1
  N       -0.4914050     1.0723760    -0.3164170
  N        1.0085960    -0.7184190    -0.0133500
  C       -1.7100270     0.3982770    -0.1243180
  C        0.8049200     0.5981430    -0.1551110
  C        3.3057546    -0.3319013     0.1070257
  C        1.8688800     1.5249980    -0.1805650
  C        3.1641670     1.0570110    -0.0435420
  C       -2.8187550     1.1723340     0.2577460
  C       -1.8866400    -0.9712620    -0.3801370
  C        2.2803750    -1.1431010     0.1169750
  C        4.7931030    -0.8701860     0.2621020
  C       -4.0754850     0.5909990     0.4048790
  C       -3.1483220    -1.5428300    -0.2100850
  C       -4.2492880    -0.7746780     0.1720620
  H       -0.5683120     2.0807040    -0.2404560
  H        1.6730390     2.5885970    -0.3025930
  H        3.9969070     1.7590030    -0.0564670
  H       -2.6877930     2.2355590     0.4578160
  H       -1.0395640    -1.5738120    -0.6782690
  H        2.3962560    -2.2212150     0.2333330
  H        5.4095350    -0.6367030    -0.6119800
  H        5.2936270    -0.4518060     1.1412500
  H        4.7686350    -1.9575490     0.3752240
  H       -4.9184630     1.2095470     0.7042290
  H       -3.2707080    -2.6065070    -0.4021260
  H       -5.2268190    -1.2338160     0.2940590
units angstrom
no_reorient  #important for SAPT in psi4, default
symmetry c1  #important for SAPT in psi4, default
}

set PROPERTIES_ORIGIN ["COM"]
properties('MP2/aug-cc-pvtz', properties = ['dipole'])
--------------------------------------------------------------------------

    Molecular point group: c1
  Charge       = 0
  Multiplicity = 1
  Basis Set: AUG-CC-PVTZ
    Blend: AUG-CC-PVTZ
  Basis Set: (AUG-CC-PVTZ AUX)
    Blend: AUG-CC-PVTZ-JKFIT

    Orbital Energies [Eh]
    ---------------------

    Doubly Occupied:

       1A    -15.589275     2A    -15.549507     3A    -11.322913
       4A    -11.280809     5A    -11.261072     6A    -11.258988
       7A    -11.241625     8A    -11.233624     9A    -11.230587
      10A    -11.230097    11A    -11.229223    12A    -11.228632
      13A    -11.221439    14A    -11.218215    15A     -1.294045
      16A     -1.223343    17A     -1.133165    18A     -1.094822
      19A     -1.047681    20A     -1.007793    21A     -0.990827
      22A     -0.932116    23A     -0.873810    24A     -0.842287
      25A     -0.820480    26A     -0.800585    27A     -0.725973
      28A     -0.716338    29A     -0.670380    30A     -0.655370
      31A     -0.631081    32A     -0.623744    33A     -0.596915
      34A     -0.596031    35A     -0.587616    36A     -0.580030
      37A     -0.571976    38A     -0.563765    39A     -0.544741
      40A     -0.514232    41A     -0.506693    42A     -0.489969
      43A     -0.487033    44A     -0.457719    45A     -0.414804
      46A     -0.380302    47A     -0.343038    48A     -0.330595
      49A     -0.280593

  @DF-RHF Final Energy:  -570.48887172135153

   => Energetics <=

    Nuclear Repulsion Energy =            792.0645327973898020
    One-Electron Energy =               -2344.2550152557787442
    Two-Electron Energy =                 981.7016107370374129
    Total Energy =                       -570.4888717213515292
  Basis Set: (AUG-CC-PVTZ AUX)
    Blend: AUG-CC-PVTZ-RI
    Molecular point group: c1

    Geometry (in Angstrom), charge = 0, multiplicity = 1:

       Center              X                  Y                   Z               Mass
    ------------   -----------------  -----------------  -----------------  -----------------
         N           -0.453699340959     1.068922389528    -0.311136180806    14.003074004430
         N            1.046301659041    -0.721872610472    -0.008069180806    14.003074004430
         C           -1.672321340959     0.394823389528    -0.119037180806    12.000000000000
         C            0.842625659041     0.594689389528    -0.149830180806    12.000000000000
         C            3.343460259041    -0.335354910472     0.112306519194    12.000000000000
         C            1.906585659041     1.521544389528    -0.175284180806    12.000000000000
         C            3.201872659041     1.053557389528    -0.038261180806    12.000000000000
         C           -2.781049340959     1.168880389528     0.263026819194    12.000000000000
         C           -1.848934340959    -0.974715610472    -0.374856180806    12.000000000000
         C            2.318080659041    -1.146554610472     0.122255819194    12.000000000000
         C            4.830808659041    -0.873639610472     0.267382819194    12.000000000000
         C           -4.037779340959     0.587545389528     0.410159819194    12.000000000000
         C           -3.110616340959    -1.546283610472    -0.204804180806    12.000000000000
         C           -4.211582340959    -0.778131610472     0.177342819194    12.000000000000
         H           -0.530606340959     2.077250389528    -0.235175180806     1.007825032230
         H            1.710744659041     2.585143389528    -0.297312180806     1.007825032230
         H            4.034612659041     1.755549389528    -0.051186180806     1.007825032230
         H           -2.650087340959     2.232105389528     0.463096819194     1.007825032230
         H           -1.001858340959    -1.577265610472    -0.672988180806     1.007825032230
         H            2.433961659041    -2.224668610472     0.238613819194     1.007825032230
         H            5.447240659041    -0.640156610472    -0.606699180806     1.007825032230
         H            5.331332659041    -0.455259610472     1.146530819194     1.007825032230
         H            4.806340659041    -1.961002610472     0.380504819194     1.007825032230
         H           -4.880757340959     1.206093389528     0.709509819194     1.007825032230
         H           -3.233002340959    -2.609960610472    -0.396845180806     1.007825032230
         H           -5.189113340959    -1.237269610472     0.299339819194     1.007825032230

  Basis Set: AUG-CC-PVTZ
    Blend: AUG-CC-PVTZ
  Basis Set: (AUG-CC-PVTZ AUX)
    Blend: AUG-CC-PVTZ-JKFIT
	 Reference Energy          =    -570.4888717213515292 [Eh]
	 Singles Energy            =      -0.0000000000000000 [Eh]
	 Same-Spin Energy          =      -0.6356483226251201 [Eh]
	 Opposite-Spin Energy      =      -1.9702822676186320 [Eh]
	 Correlation Energy        =      -2.6059305902437520 [Eh]
	 Total Energy              =    -573.0948023115952310 [Eh]

	 ================> DF-SCS-MP2 Energies <==================
	-----------------------------------------------------------
	 SCS Same-Spin Scale       =       0.3333333333333333 [-]
	 SCS Opposite-Spin Scale   =       1.2000000000000000 [-]
	 SCS Same-Spin Energy      =      -0.2118827742083733 [Eh]
	 SCS Opposite-Spin Energy  =      -2.3643387211423583 [Eh]
	 SCS Correlation Energy    =      -2.5762214953507319 [Eh]
	 SCS Total Energy          =    -573.0650932167022802 [Eh]
	-----------------------------------------------------------

  Dipole Moment: [D]
     X:     1.7716      Y:     1.9649      Z:     0.1457     Total:     2.6497

*** Psi4 exiting successfully. Buy a developer a beer!
