                               Psi4 1.4a3.dev225

  ==> Input File <==

--------------------------------------------------------------------------
#psi4
#
memory 32 gb

molecule  {
0 1
  N       -0.4914050     1.0723760    -0.3164170
  N        1.0085960    -0.7184190    -0.0133500
  C       -1.7100270     0.3982770    -0.1243180
  C        0.8049200     0.5981430    -0.1551110
  C        3.4026260    -0.3179870     0.1123840
  C        1.8688800     1.5249980    -0.1805650
  C        3.1641670     1.0570110    -0.0435420
  C       -2.8187550     1.1723340     0.2577460
  C       -1.8866400    -0.9712620    -0.3801370
  C        2.2803750    -1.1431010     0.1169750
  C        4.7931030    -0.8701860     0.2621020
  C       -4.0754850     0.5909990     0.4048790
  C       -3.1483220    -1.5428300    -0.2100850
  C       -4.2335124    -0.7856847     0.1665863
  H       -0.5683120     2.0807040    -0.2404560
  H        1.6730390     2.5885970    -0.3025930
  H        3.9969070     1.7590030    -0.0564670
  H       -2.6877930     2.2355590     0.4578160
  H       -1.0395640    -1.5738120    -0.6782690
  H        2.3962560    -2.2212150     0.2333330
  H        5.4095350    -0.6367030    -0.6119800
  H        5.2936270    -0.4518060     1.1412500
  H        4.7686350    -1.9575490     0.3752240
  H       -4.9184630     1.2095470     0.7042290
  H       -3.2707080    -2.6065070    -0.4021260
  H       -5.2268190    -1.2338160     0.2940590
units angstrom
no_reorient  #important for SAPT in psi4, default
symmetry c1  #important for SAPT in psi4, default
}

set PROPERTIES_ORIGIN ["COM"]
properties('MP2/aug-cc-pvtz', properties = ['dipole'])
--------------------------------------------------------------------------

    Molecular point group: c1
  Charge       = 0
  Multiplicity = 1
  Basis Set: AUG-CC-PVTZ
    Blend: AUG-CC-PVTZ
  Basis Set: (AUG-CC-PVTZ AUX)
    Blend: AUG-CC-PVTZ-JKFIT

    Orbital Energies [Eh]
    ---------------------

    Doubly Occupied:

       1A    -15.588959     2A    -15.553591     3A    -11.322864
       4A    -11.280505     5A    -11.272657     6A    -11.258338
       7A    -11.238758     8A    -11.235198     9A    -11.234817
      10A    -11.229112    11A    -11.228853    12A    -11.227906
      13A    -11.221249    14A    -11.218077    15A     -1.292974
      16A     -1.220021    17A     -1.133826    18A     -1.096843
      19A     -1.046123    20A     -1.008759    21A     -0.992877
      22A     -0.934950    23A     -0.868167    24A     -0.841949
      25A     -0.820439    26A     -0.798027    27A     -0.723770
      28A     -0.715676    29A     -0.669162    30A     -0.653291
      31A     -0.636853    32A     -0.621546    33A     -0.595690
      34A     -0.593260    35A     -0.589069    36A     -0.580181
      37A     -0.569362    38A     -0.562574    39A     -0.546684
      40A     -0.518997    41A     -0.511224    42A     -0.502076
      43A     -0.487901    44A     -0.454634    45A     -0.414277
      46A     -0.381305    47A     -0.337882    48A     -0.329763
      49A     -0.276970

  @DF-RHF Final Energy:  -570.49849354122409

   => Energetics <=

    Nuclear Repulsion Energy =            790.9925059420936577
    One-Electron Energy =               -2342.1060276414777945
    Two-Electron Energy =                 980.6150281581600439
    Total Energy =                       -570.4984935412240930
  Basis Set: (AUG-CC-PVTZ AUX)
    Blend: AUG-CC-PVTZ-RI
    Molecular point group: c1

    Geometry (in Angstrom), charge = 0, multiplicity = 1:

       Center              X                  Y                   Z               Mass
    ------------   -----------------  -----------------  -----------------  -----------------
         N           -0.461041891989     1.068732866493    -0.311128528445    14.003074004430
         N            1.038959108011    -0.722062133507    -0.008061528445    14.003074004430
         C           -1.679663891989     0.394633866493    -0.119029528445    12.000000000000
         C            0.835283108011     0.594499866493    -0.149822528445    12.000000000000
         C            3.432989108011    -0.321630133507     0.117672471555    12.000000000000
         C            1.899243108011     1.521354866493    -0.175276528445    12.000000000000
         C            3.194530108011     1.053367866493    -0.038253528445    12.000000000000
         C           -2.788391891989     1.168690866493     0.263034471555    12.000000000000
         C           -1.856276891989    -0.974905133507    -0.374848528445    12.000000000000
         C            2.310738108011    -1.146744133507     0.122263471555    12.000000000000
         C            4.823466108011    -0.873829133507     0.267390471555    12.000000000000
         C           -4.045121891989     0.587355866493     0.410167471555    12.000000000000
         C           -3.117958891989    -1.546473133507    -0.204796528445    12.000000000000
         C           -4.203149291989    -0.789327833507     0.171874771555    12.000000000000
         H           -0.537948891989     2.077060866493    -0.235167528445     1.007825032230
         H            1.703402108011     2.584953866493    -0.297304528445     1.007825032230
         H            4.027270108011     1.755359866493    -0.051178528445     1.007825032230
         H           -2.657429891989     2.231915866493     0.463104471555     1.007825032230
         H           -1.009200891989    -1.577455133507    -0.672980528445     1.007825032230
         H            2.426619108011    -2.224858133507     0.238621471555     1.007825032230
         H            5.439898108011    -0.640346133507    -0.606691528445     1.007825032230
         H            5.323990108011    -0.455449133507     1.146538471555     1.007825032230
         H            4.798998108011    -1.961192133507     0.380512471555     1.007825032230
         H           -4.888099891989     1.205903866493     0.709517471555     1.007825032230
         H           -3.240344891989    -2.610150133507    -0.396837528445     1.007825032230
         H           -5.196455891989    -1.237459133507     0.299347471555     1.007825032230

  Basis Set: AUG-CC-PVTZ
    Blend: AUG-CC-PVTZ
  Basis Set: (AUG-CC-PVTZ AUX)
    Blend: AUG-CC-PVTZ-JKFIT
	 Reference Energy          =    -570.4984935412240930 [Eh]
	 Singles Energy            =      -0.0000000000000000 [Eh]
	 Same-Spin Energy          =      -0.6364364847557398 [Eh]
	 Opposite-Spin Energy      =      -1.9708829094375500 [Eh]
	 Correlation Energy        =      -2.6073193941932900 [Eh]
	 Total Energy              =    -573.1058129354173616 [Eh]

	 ================> DF-SCS-MP2 Energies <==================
	-----------------------------------------------------------
	 SCS Same-Spin Scale       =       0.3333333333333333 [-]
	 SCS Opposite-Spin Scale   =       1.2000000000000000 [-]
	 SCS Same-Spin Energy      =      -0.2121454949185799 [Eh]
	 SCS Opposite-Spin Energy  =      -2.3650594913250598 [Eh]
	 SCS Correlation Energy    =      -2.5772049862436397 [Eh]
	 SCS Total Energy          =    -573.0756985274676936 [Eh]
	-----------------------------------------------------------

  Dipole Moment: [D]
     X:     1.8601      Y:     1.8623      Z:     0.1654     Total:     2.6374

*** Psi4 exiting successfully. Buy a developer a beer!
