                               Psi4 1.4a3.dev225

  ==> Input File <==

--------------------------------------------------------------------------
#psi4
#
memory 32 gb

molecule  {
0 1
  N       -0.4914050     1.0723760    -0.3164170
  N        1.0085960    -0.7184190    -0.0133500
  C       -1.7100270     0.3982770    -0.1243180
  C        0.8049200     0.5981430    -0.1551110
  C        3.4026260    -0.3179870     0.1123840
  C        1.8688800     1.5249980    -0.1805650
  C        3.1641670     1.0570110    -0.0435420
  C       -2.8187550     1.1723340     0.2577460
  C       -1.8866400    -0.9712620    -0.3801370
  C        2.2803750    -1.1431010     0.1169750
  C        4.7931030    -0.8701860     0.2621020
  C       -4.0754850     0.5909990     0.4048790
  C       -3.1483220    -1.5428300    -0.2100850
  C       -4.2492880    -0.7746780     0.1720620
  H       -0.5683120     2.0807040    -0.2404560
  H        1.6730390     2.5885970    -0.3025930
  H        3.9969070     1.7590030    -0.0564670
  H       -2.6877930     2.2355590     0.4578160
  H       -1.0395640    -1.5738120    -0.6782690
  H        2.3962560    -2.2212150     0.2333330
  H        5.3880437    -0.5262857    -0.5901305
  H        5.2936270    -0.4518060     1.1412500
  H        4.7686350    -1.9575490     0.3752240
  H       -4.9184630     1.2095470     0.7042290
  H       -3.2707080    -2.6065070    -0.4021260
  H       -5.2268190    -1.2338160     0.2940590
units angstrom
no_reorient  #important for SAPT in psi4, default
symmetry c1  #important for SAPT in psi4, default
}

set PROPERTIES_ORIGIN ["COM"]
properties('MP2/aug-cc-pvtz', properties = ['dipole'])
--------------------------------------------------------------------------

    Molecular point group: c1
  Charge       = 0
  Multiplicity = 1
  Basis Set: AUG-CC-PVTZ
    Blend: AUG-CC-PVTZ
  Basis Set: (AUG-CC-PVTZ AUX)
    Blend: AUG-CC-PVTZ-JKFIT

    Orbital Energies [Eh]
    ---------------------

    Doubly Occupied:

       1A    -15.588898     2A    -15.553573     3A    -11.322637
       4A    -11.280823     5A    -11.272229     6A    -11.258363
       7A    -11.239017     8A    -11.235041     9A    -11.233632
      10A    -11.230204    11A    -11.229490    12A    -11.228476
      13A    -11.221331    14A    -11.218284    15A     -1.292905
      16A     -1.219917    17A     -1.132682    18A     -1.097316
      19A     -1.046041    20A     -1.007941    21A     -0.993107
      22A     -0.935006    23A     -0.868539    24A     -0.840823
      25A     -0.820977    26A     -0.797864    27A     -0.723519
      28A     -0.715650    29A     -0.670527    30A     -0.653529
      31A     -0.636653    32A     -0.621126    33A     -0.595446
      34A     -0.594164    35A     -0.586568    36A     -0.579362
      37A     -0.568979    38A     -0.561165    39A     -0.553650
      40A     -0.519021    41A     -0.509723    42A     -0.504316
      43A     -0.487272    44A     -0.453584    45A     -0.414171
      46A     -0.381190    47A     -0.336095    48A     -0.330330
      49A     -0.276505

  @DF-RHF Final Energy:  -570.49758090456942

   => Energetics <=

    Nuclear Repulsion Energy =            790.8725588059465963
    One-Electron Energy =               -2341.8649605053697087
    Two-Electron Energy =                 980.4948207948538084
    Total Energy =                       -570.4975809045694177
  Basis Set: (AUG-CC-PVTZ AUX)
    Blend: AUG-CC-PVTZ-RI
    Molecular point group: c1

    Geometry (in Angstrom), charge = 0, multiplicity = 1:

       Center              X                  Y                   Z               Mass
    ------------   -----------------  -----------------  -----------------  -----------------
         N           -0.459895957091     1.067410967226    -0.311605056690    14.003074004430
         N            1.040105042909    -0.723384032774    -0.008538056690    14.003074004430
         C           -1.678517957091     0.393311967226    -0.119506056690    12.000000000000
         C            0.836429042909     0.593177967226    -0.150299056690    12.000000000000
         C            3.434135042909    -0.322952032774     0.117195943310    12.000000000000
         C            1.900389042909     1.520032967226    -0.175753056690    12.000000000000
         C            3.195676042909     1.052045967226    -0.038730056690    12.000000000000
         C           -2.787245957091     1.167368967226     0.262557943310    12.000000000000
         C           -1.855130957091    -0.976227032774    -0.375325056690    12.000000000000
         C            2.311884042909    -1.148066032774     0.121786943310    12.000000000000
         C            4.824612042909    -0.875151032774     0.266913943310    12.000000000000
         C           -4.043975957091     0.586033967226     0.409690943310    12.000000000000
         C           -3.116812957091    -1.547795032774    -0.205273056690    12.000000000000
         C           -4.217778957091    -0.779643032774     0.176873943310    12.000000000000
         H           -0.536802957091     2.075738967226    -0.235644056690     1.007825032230
         H            1.704548042909     2.583631967226    -0.297781056690     1.007825032230
         H            4.028416042909     1.754037967226    -0.051655056690     1.007825032230
         H           -2.656283957091     2.230593967226     0.462627943310     1.007825032230
         H           -1.008054957091    -1.578777032774    -0.673457056690     1.007825032230
         H            2.427765042909    -2.226180032774     0.238144943310     1.007825032230
         H            5.419552742909    -0.531250732774    -0.585318556690     1.007825032230
         H            5.325136042909    -0.456771032774     1.146061943310     1.007825032230
         H            4.800144042909    -1.962514032774     0.380035943310     1.007825032230
         H           -4.886953957091     1.204581967226     0.709040943310     1.007825032230
         H           -3.239198957091    -2.611472032774    -0.397314056690     1.007825032230
         H           -5.195309957091    -1.238781032774     0.298870943310     1.007825032230

  Basis Set: AUG-CC-PVTZ
    Blend: AUG-CC-PVTZ
  Basis Set: (AUG-CC-PVTZ AUX)
    Blend: AUG-CC-PVTZ-JKFIT
	 Reference Energy          =    -570.4975809045694177 [Eh]
	 Singles Energy            =      -0.0000000000000000 [Eh]
	 Same-Spin Energy          =      -0.6365454922115572 [Eh]
	 Opposite-Spin Energy      =      -1.9710962879190868 [Eh]
	 Correlation Energy        =      -2.6076417801306437 [Eh]
	 Total Energy              =    -573.1052226847000384 [Eh]

	 ================> DF-SCS-MP2 Energies <==================
	-----------------------------------------------------------
	 SCS Same-Spin Scale       =       0.3333333333333333 [-]
	 SCS Opposite-Spin Scale   =       1.2000000000000000 [-]
	 SCS Same-Spin Energy      =      -0.2121818307371857 [Eh]
	 SCS Opposite-Spin Energy  =      -2.3653155455029040 [Eh]
	 SCS Correlation Energy    =      -2.5774973762400899 [Eh]
	 SCS Total Energy          =    -573.0750782808095209 [Eh]
	-----------------------------------------------------------

  Dipole Moment: [D]
     X:     1.8957      Y:     1.8766      Z:     0.1855     Total:     2.6738

*** Psi4 exiting successfully. Buy a developer a beer!
