                               Psi4 1.4a3.dev225

  ==> Input File <==

--------------------------------------------------------------------------
#psi4
#
memory 32 gb

molecule  {
0 1
  N       -0.4914050     1.0723760    -0.3164170
  N        1.0085960    -0.7184190    -0.0133500
  C       -1.7100270     0.3982770    -0.1243180
  C        0.8049200     0.5981430    -0.1551110
  C        3.4026260    -0.3179870     0.1123840
  C        1.8688800     1.5249980    -0.1805650
  C        3.1641670     1.0570110    -0.0435420
  C       -2.8187550     1.1723340     0.2577460
  C       -1.8891552    -0.9907659    -0.3837802
  C        2.2803750    -1.1431010     0.1169750
  C        4.7931030    -0.8701860     0.2621020
  C       -4.0754850     0.5909990     0.4048790
  C       -3.1483220    -1.5428300    -0.2100850
  C       -4.2492880    -0.7746780     0.1720620
  H       -0.5683120     2.0807040    -0.2404560
  H        1.6730390     2.5885970    -0.3025930
  H        3.9969070     1.7590030    -0.0564670
  H       -2.6877930     2.2355590     0.4578160
  H       -1.0395640    -1.5738120    -0.6782690
  H        2.3962560    -2.2212150     0.2333330
  H        5.4095350    -0.6367030    -0.6119800
  H        5.2936270    -0.4518060     1.1412500
  H        4.7686350    -1.9575490     0.3752240
  H       -4.9184630     1.2095470     0.7042290
  H       -3.2707080    -2.6065070    -0.4021260
  H       -5.2268190    -1.2338160     0.2940590
units angstrom
no_reorient  #important for SAPT in psi4, default
symmetry c1  #important for SAPT in psi4, default
}

set PROPERTIES_ORIGIN ["COM"]
properties('MP2/aug-cc-pvtz', properties = ['dipole'])
--------------------------------------------------------------------------

    Molecular point group: c1
  Charge       = 0
  Multiplicity = 1
  Basis Set: AUG-CC-PVTZ
    Blend: AUG-CC-PVTZ
  Basis Set: (AUG-CC-PVTZ AUX)
    Blend: AUG-CC-PVTZ-JKFIT

    Orbital Energies [Eh]
    ---------------------

    Doubly Occupied:

       1A    -15.589769     2A    -15.554123     3A    -11.323265
       4A    -11.283249     5A    -11.273049     6A    -11.258687
       7A    -11.239127     8A    -11.235566     9A    -11.233740
      10A    -11.229145    11A    -11.229101    12A    -11.228079
      13A    -11.221103    14A    -11.219050    15A     -1.293309
      16A     -1.220101    17A     -1.132201    18A     -1.097203
      19A     -1.046015    20A     -1.009226    21A     -0.991583
      22A     -0.934867    23A     -0.868886    24A     -0.841388
      25A     -0.819854    26A     -0.798709    27A     -0.724066
      28A     -0.715099    29A     -0.671616    30A     -0.653413
      31A     -0.637512    32A     -0.621726    33A     -0.595212
      34A     -0.592269    35A     -0.588471    36A     -0.581034
      37A     -0.569347    38A     -0.563154    39A     -0.546977
      40A     -0.519792    41A     -0.511303    42A     -0.504421
      43A     -0.485691    44A     -0.454342    45A     -0.415184
      46A     -0.381687    47A     -0.336916    48A     -0.330661
      49A     -0.275982

  @DF-RHF Final Energy:  -570.49834170904774

   => Energetics <=

    Nuclear Repulsion Energy =            790.4894980059450518
    One-Electron Energy =               -2341.0831365096551053
    Two-Electron Energy =                 980.0952967946623176
    Total Energy =                       -570.4983417090477360
  Basis Set: (AUG-CC-PVTZ AUX)
    Blend: AUG-CC-PVTZ-RI
    Molecular point group: c1

    Geometry (in Angstrom), charge = 0, multiplicity = 1:

       Center              X                  Y                   Z               Mass
    ------------   -----------------  -----------------  -----------------  -----------------
         N           -0.459849661993     1.069286730551    -0.311247974367    14.003074004430
         N            1.040151338007    -0.721508269449    -0.008180974367    14.003074004430
         C           -1.678471661993     0.395187730551    -0.119148974367    12.000000000000
         C            0.836475338007     0.595053730551    -0.149941974367    12.000000000000
         C            3.434181338007    -0.321076269449     0.117553025633    12.000000000000
         C            1.900435338007     1.521908730551    -0.175395974367    12.000000000000
         C            3.195722338007     1.053921730551    -0.038372974367    12.000000000000
         C           -2.787199661993     1.169244730551     0.262915025633    12.000000000000
         C           -1.857599861993    -0.993855169449    -0.378611174367    12.000000000000
         C            2.311930338007    -1.146190269449     0.122144025633    12.000000000000
         C            4.824658338007    -0.873275269449     0.267271025633    12.000000000000
         C           -4.043929661993     0.587909730551     0.410048025633    12.000000000000
         C           -3.116766661993    -1.545919269449    -0.204915974367    12.000000000000
         C           -4.217732661993    -0.777767269449     0.177231025633    12.000000000000
         H           -0.536756661993     2.077614730551    -0.235286974367     1.007825032230
         H            1.704594338007     2.585507730551    -0.297423974367     1.007825032230
         H            4.028462338007     1.755913730551    -0.051297974367     1.007825032230
         H           -2.656237661993     2.232469730551     0.462985025633     1.007825032230
         H           -1.008008661993    -1.576901269449    -0.673099974367     1.007825032230
         H            2.427811338007    -2.224304269449     0.238502025633     1.007825032230
         H            5.441090338007    -0.639792269449    -0.606810974367     1.007825032230
         H            5.325182338007    -0.454895269449     1.146419025633     1.007825032230
         H            4.800190338007    -1.960638269449     0.380393025633     1.007825032230
         H           -4.886907661993     1.206457730551     0.709398025633     1.007825032230
         H           -3.239152661993    -2.609596269449    -0.396956974367     1.007825032230
         H           -5.195263661993    -1.236905269449     0.299228025633     1.007825032230

  Basis Set: AUG-CC-PVTZ
    Blend: AUG-CC-PVTZ
  Basis Set: (AUG-CC-PVTZ AUX)
    Blend: AUG-CC-PVTZ-JKFIT
	 Reference Energy          =    -570.4983417090477360 [Eh]
	 Singles Energy            =      -0.0000000000000000 [Eh]
	 Same-Spin Energy          =      -0.6363953625367107 [Eh]
	 Opposite-Spin Energy      =      -1.9709371409981535 [Eh]
	 Correlation Energy        =      -2.6073325035348640 [Eh]
	 Total Energy              =    -573.1056742125825849 [Eh]

	 ================> DF-SCS-MP2 Energies <==================
	-----------------------------------------------------------
	 SCS Same-Spin Scale       =       0.3333333333333333 [-]
	 SCS Opposite-Spin Scale   =       1.2000000000000000 [-]
	 SCS Same-Spin Energy      =      -0.2121317875122369 [Eh]
	 SCS Opposite-Spin Energy  =      -2.3651245691977842 [Eh]
	 SCS Correlation Energy    =      -2.5772563567100213 [Eh]
	 SCS Total Energy          =    -573.0755980657577311 [Eh]
	-----------------------------------------------------------

  Dipole Moment: [D]
     X:     1.9038      Y:     1.8647      Z:     0.1605     Total:     2.6697

*** Psi4 exiting successfully. Buy a developer a beer!
