                               Psi4 1.4a3.dev225

  ==> Input File <==

--------------------------------------------------------------------------
#psi4
#
memory 32 gb

molecule  {
0 1
  N       -0.4914050     1.0723760    -0.3164170
  N        1.0085960    -0.7184190    -0.0133500
  C       -1.7100270     0.3982770    -0.1243180
  C        0.8049200     0.5981430    -0.1551110
  C        3.2570306    -0.3363239     0.1040698
  C        1.8688800     1.5249980    -0.1805650
  C        3.1641670     1.0570110    -0.0435420
  C       -2.8187550     1.1723340     0.2577460
  C       -1.8866400    -0.9712620    -0.3801370
  C        2.2803750    -1.1431010     0.1169750
  C        4.7931030    -0.8701860     0.2621020
  C       -4.0754850     0.5909990     0.4048790
  C       -3.1483220    -1.5428300    -0.2100850
  C       -4.2492880    -0.7746780     0.1720620
  H       -0.5683120     2.0807040    -0.2404560
  H        1.6730390     2.5885970    -0.3025930
  H        3.9969070     1.7590030    -0.0564670
  H       -2.6877930     2.2355590     0.4578160
  H       -1.0395640    -1.5738120    -0.6782690
  H        2.3962560    -2.2212150     0.2333330
  H        5.4095350    -0.6367030    -0.6119800
  H        5.2936270    -0.4518060     1.1412500
  H        4.7686350    -1.9575490     0.3752240
  H       -4.9184630     1.2095470     0.7042290
  H       -3.2707080    -2.6065070    -0.4021260
  H       -5.2268190    -1.2338160     0.2940590
units angstrom
no_reorient  #important for SAPT in psi4, default
symmetry c1  #important for SAPT in psi4, default
}

set PROPERTIES_ORIGIN ["COM"]
properties('MP2/aug-cc-pvtz', properties = ['dipole'])
--------------------------------------------------------------------------

    Molecular point group: c1
  Charge       = 0
  Multiplicity = 1
  Basis Set: AUG-CC-PVTZ
    Blend: AUG-CC-PVTZ
  Basis Set: (AUG-CC-PVTZ AUX)
    Blend: AUG-CC-PVTZ-JKFIT

    Orbital Energies [Eh]
    ---------------------

    Doubly Occupied:

       1A    -15.589367     2A    -15.547591     3A    -11.322851
       4A    -11.280763     5A    -11.262604     6A    -11.251938
       7A    -11.243076     8A    -11.233588     9A    -11.230853
      10A    -11.230014    11A    -11.228662    12A    -11.226516
      13A    -11.221449    14A    -11.218136    15A     -1.294859
      16A     -1.225591    17A     -1.133434    18A     -1.094237
      19A     -1.049701    20A     -1.007701    21A     -0.990409
      22A     -0.930122    23A     -0.876849    24A     -0.842170
      25A     -0.820102    26A     -0.801537    27A     -0.727387
      28A     -0.716718    29A     -0.670549    30A     -0.656866
      31A     -0.628377    32A     -0.625175    33A     -0.599103
      34A     -0.596842    35A     -0.587840    36A     -0.580987
      37A     -0.574428    38A     -0.561832    39A     -0.543125
      40A     -0.515409    41A     -0.506810    42A     -0.487677
      43A     -0.475288    44A     -0.459694    45A     -0.413499
      46A     -0.380057    47A     -0.346532    48A     -0.330572
      49A     -0.282107

  @DF-RHF Final Energy:  -570.47367336001571

   => Energetics <=

    Nuclear Repulsion Energy =            792.7849653170638931
    One-Electron Energy =               -2345.6752895465006077
    Two-Electron Energy =                 982.4166508694211188
    Total Energy =                       -570.4736733600157095
  Basis Set: (AUG-CC-PVTZ AUX)
    Blend: AUG-CC-PVTZ-RI
    Molecular point group: c1

    Geometry (in Angstrom), charge = 0, multiplicity = 1:

       Center              X                  Y                   Z               Mass
    ------------   -----------------  -----------------  -----------------  -----------------
         N           -0.450523415666     1.069210663217    -0.310943509482    14.003074004430
         N            1.049477584334    -0.721584336783    -0.007876509482    14.003074004430
         C           -1.669145415666     0.395111663217    -0.118844509482    12.000000000000
         C            0.845801584334     0.594977663217    -0.149637509482    12.000000000000
         C            3.297912184334    -0.339489236783     0.109543290518    12.000000000000
         C            1.909761584334     1.521832663217    -0.175091509482    12.000000000000
         C            3.205048584334     1.053845663217    -0.038068509482    12.000000000000
         C           -2.777873415666     1.169168663217     0.263219490518    12.000000000000
         C           -1.845758415666    -0.974427336783    -0.374663509482    12.000000000000
         C            2.321256584334    -1.146266336783     0.122448490518    12.000000000000
         C            4.833984584334    -0.873351336783     0.267575490518    12.000000000000
         C           -4.034603415666     0.587833663217     0.410352490518    12.000000000000
         C           -3.107440415666    -1.545995336783    -0.204611509482    12.000000000000
         C           -4.208406415666    -0.777843336783     0.177535490518    12.000000000000
         H           -0.527430415666     2.077538663217    -0.234982509482     1.007825032230
         H            1.713920584334     2.585431663217    -0.297119509482     1.007825032230
         H            4.037788584334     1.755837663217    -0.050993509482     1.007825032230
         H           -2.646911415666     2.232393663217     0.463289490518     1.007825032230
         H           -0.998682415666    -1.576977336783    -0.672795509482     1.007825032230
         H            2.437137584334    -2.224380336783     0.238806490518     1.007825032230
         H            5.450416584334    -0.639868336783    -0.606506509482     1.007825032230
         H            5.334508584334    -0.454971336783     1.146723490518     1.007825032230
         H            4.809516584334    -1.960714336783     0.380697490518     1.007825032230
         H           -4.877581415666     1.206381663217     0.709702490518     1.007825032230
         H           -3.229826415666    -2.609672336783    -0.396652509482     1.007825032230
         H           -5.185937415666    -1.236981336783     0.299532490518     1.007825032230

  Basis Set: AUG-CC-PVTZ
    Blend: AUG-CC-PVTZ
  Basis Set: (AUG-CC-PVTZ AUX)
    Blend: AUG-CC-PVTZ-JKFIT
	 Reference Energy          =    -570.4736733600157095 [Eh]
	 Singles Energy            =      -0.0000000000000000 [Eh]
	 Same-Spin Energy          =      -0.6355456277854370 [Eh]
	 Opposite-Spin Energy      =      -1.9705505278743327 [Eh]
	 Correlation Energy        =      -2.6060961556597695 [Eh]
	 Total Energy              =    -573.0797695156754799 [Eh]

	 ================> DF-SCS-MP2 Energies <==================
	-----------------------------------------------------------
	 SCS Same-Spin Scale       =       0.3333333333333333 [-]
	 SCS Opposite-Spin Scale   =       1.2000000000000000 [-]
	 SCS Same-Spin Energy      =      -0.2118485425951457 [Eh]
	 SCS Opposite-Spin Energy  =      -2.3646606334491991 [Eh]
	 SCS Correlation Energy    =      -2.5765091760443446 [Eh]
	 SCS Total Energy          =    -573.0501825360601060 [Eh]
	-----------------------------------------------------------

  Dipole Moment: [D]
     X:     1.7177      Y:     2.0195      Z:     0.1367     Total:     2.6547

*** Psi4 exiting successfully. Buy a developer a beer!
