                               Psi4 1.4a3.dev225

  ==> Input File <==

--------------------------------------------------------------------------
#psi4
#
memory 32 gb

molecule  {
0 1
  N       -0.4914050     1.0723760    -0.3164170
  N        1.0085960    -0.7184190    -0.0133500
  C       -1.7100270     0.3982770    -0.1243180
  C        0.8049200     0.5981430    -0.1551110
  C        3.4026260    -0.3179870     0.1123840
  C        1.8688800     1.5249980    -0.1805650
  C        3.1641670     1.0570110    -0.0435420
  C       -2.8187550     1.1723340     0.2577460
  C       -1.8866400    -0.9712620    -0.3801370
  C        2.2803750    -1.1431010     0.1169750
  C        4.7931030    -0.8701860     0.2621020
  C       -4.0754850     0.5909990     0.4048790
  C       -3.1483220    -1.5428300    -0.2100850
  C       -4.2492880    -0.7746780     0.1720620
  H       -0.5683120     2.0807040    -0.2404560
  H        1.6730390     2.5885970    -0.3025930
  H        3.9969070     1.7590030    -0.0564670
  H       -2.6877930     2.2355590     0.4578160
  H       -1.0395640    -1.5738120    -0.6782690
  H        2.3962560    -2.2212150     0.2333330
  H        5.4095350    -0.6367030    -0.6119800
  H        5.2936270    -0.4518060     1.1412500
  H        4.7697538    -1.9078298     0.3700516
  H       -4.9184630     1.2095470     0.7042290
  H       -3.2707080    -2.6065070    -0.4021260
  H       -5.2268190    -1.2338160     0.2940590
units angstrom
no_reorient  #important for SAPT in psi4, default
symmetry c1  #important for SAPT in psi4, default
}

set PROPERTIES_ORIGIN ["COM"]
properties('MP2/aug-cc-pvtz', properties = ['dipole'])
--------------------------------------------------------------------------

    Molecular point group: c1
  Charge       = 0
  Multiplicity = 1
  Basis Set: AUG-CC-PVTZ
    Blend: AUG-CC-PVTZ
  Basis Set: (AUG-CC-PVTZ AUX)
    Blend: AUG-CC-PVTZ-JKFIT

    Orbital Energies [Eh]
    ---------------------

    Doubly Occupied:

       1A    -15.589021     2A    -15.553621     3A    -11.322843
       4A    -11.280881     5A    -11.272670     6A    -11.258087
       7A    -11.238676     8A    -11.234897     9A    -11.233683
      10A    -11.230260    11A    -11.228540    12A    -11.222811
      13A    -11.221395    14A    -11.218357    15A     -1.293008
      16A     -1.220016    17A     -1.132748    18A     -1.097108
      19A     -1.046488    20A     -1.008016    21A     -0.993845
      22A     -0.937624    23A     -0.868484    24A     -0.842007
      25A     -0.821368    26A     -0.797882    27A     -0.723556
      28A     -0.715640    29A     -0.670977    30A     -0.653186
      31A     -0.638582    32A     -0.621207    33A     -0.595526
      34A     -0.594034    35A     -0.588198    36A     -0.579480
      37A     -0.569083    38A     -0.563360    39A     -0.552648
      40A     -0.520244    41A     -0.511261    42A     -0.504243
      43A     -0.487322    44A     -0.453997    45A     -0.414246
      46A     -0.381202    47A     -0.336468    48A     -0.330424
      49A     -0.276814

  @DF-RHF Final Energy:  -570.49800896074498

   => Energetics <=

    Nuclear Repulsion Energy =            790.9844346534862325
    One-Electron Energy =               -2342.0728249233775387
    Two-Electron Energy =                 980.5903813091463235
    Total Energy =                       -570.4980089607449827
  Basis Set: (AUG-CC-PVTZ AUX)
    Blend: AUG-CC-PVTZ-RI
    Molecular point group: c1

    Geometry (in Angstrom), charge = 0, multiplicity = 1:

       Center              X                  Y                   Z               Mass
    ------------   -----------------  -----------------  -----------------  -----------------
         N           -0.460019732315     1.067743248859    -0.311457129802    14.003074004430
         N            1.039981267685    -0.723051751141    -0.008390129802    14.003074004430
         C           -1.678641732315     0.393644248859    -0.119358129802    12.000000000000
         C            0.836305267685     0.593510248859    -0.150151129802    12.000000000000
         C            3.434011267685    -0.322619751141     0.117343870198    12.000000000000
         C            1.900265267685     1.520365248859    -0.175605129802    12.000000000000
         C            3.195552267685     1.052378248859    -0.038582129802    12.000000000000
         C           -2.787369732315     1.167701248859     0.262705870198    12.000000000000
         C           -1.855254732315    -0.975894751141    -0.375177129802    12.000000000000
         C            2.311760267685    -1.147733751141     0.121934870198    12.000000000000
         C            4.824488267685    -0.874818751141     0.267061870198    12.000000000000
         C           -4.044099732315     0.586366248859     0.409838870198    12.000000000000
         C           -3.116936732315    -1.547462751141    -0.205125129802    12.000000000000
         C           -4.217902732315    -0.779310751141     0.177021870198    12.000000000000
         H           -0.536926732315     2.076071248859    -0.235496129802     1.007825032230
         H            1.704424267685     2.583964248859    -0.297633129802     1.007825032230
         H            4.028292267685     1.754370248859    -0.051507129802     1.007825032230
         H           -2.656407732315     2.230926248859     0.462775870198     1.007825032230
         H           -1.008178732315    -1.578444751141    -0.673309129802     1.007825032230
         H            2.427641267685    -2.225847751141     0.238292870198     1.007825032230
         H            5.440920267685    -0.641335751141    -0.607020129802     1.007825032230
         H            5.325012267685    -0.456438751141     1.146209870198     1.007825032230
         H            4.801139067685    -1.912462551141     0.375011470198     1.007825032230
         H           -4.887077732315     1.204914248859     0.709188870198     1.007825032230
         H           -3.239322732315    -2.611139751141    -0.397166129802     1.007825032230
         H           -5.195433732315    -1.238448751141     0.299018870198     1.007825032230

  Basis Set: AUG-CC-PVTZ
    Blend: AUG-CC-PVTZ
  Basis Set: (AUG-CC-PVTZ AUX)
    Blend: AUG-CC-PVTZ-JKFIT
	 Reference Energy          =    -570.4980089607449827 [Eh]
	 Singles Energy            =      -0.0000000000000000 [Eh]
	 Same-Spin Energy          =      -0.6364031731544528 [Eh]
	 Opposite-Spin Energy      =      -1.9705735642190376 [Eh]
	 Correlation Energy        =      -2.6069767373734907 [Eh]
	 Total Energy              =    -573.1049856981185258 [Eh]

	 ================> DF-SCS-MP2 Energies <==================
	-----------------------------------------------------------
	 SCS Same-Spin Scale       =       0.3333333333333333 [-]
	 SCS Opposite-Spin Scale   =       1.2000000000000000 [-]
	 SCS Same-Spin Energy      =      -0.2121343910514843 [Eh]
	 SCS Opposite-Spin Energy  =      -2.3646882770628452 [Eh]
	 SCS Correlation Energy    =      -2.5768226681143296 [Eh]
	 SCS Total Energy          =    -573.0748316288593287 [Eh]
	-----------------------------------------------------------

  Dipole Moment: [D]
     X:     1.8857      Y:     1.8303      Z:     0.1663     Total:     2.6332

*** Psi4 exiting successfully. Buy a developer a beer!
