                               Psi4 1.4a3.dev225

  ==> Input File <==

--------------------------------------------------------------------------
#psi4
#
memory 32 gb

molecule  {
0 1
  N       -0.4914050     1.0723760    -0.3164170
  N        1.0085960    -0.7184190    -0.0133500
  C       -1.6959494     0.4183328    -0.1233113
  C        0.8049200     0.5981430    -0.1551110
  C        3.4026260    -0.3179870     0.1123840
  C        1.8688800     1.5249980    -0.1805650
  C        3.1641670     1.0570110    -0.0435420
  C       -2.8187550     1.1723340     0.2577460
  C       -1.8866400    -0.9712620    -0.3801370
  C        2.2803750    -1.1431010     0.1169750
  C        4.7931030    -0.8701860     0.2621020
  C       -4.0754850     0.5909990     0.4048790
  C       -3.1483220    -1.5428300    -0.2100850
  C       -4.2492880    -0.7746780     0.1720620
  H       -0.5683120     2.0807040    -0.2404560
  H        1.6730390     2.5885970    -0.3025930
  H        3.9969070     1.7590030    -0.0564670
  H       -2.6877930     2.2355590     0.4578160
  H       -1.0395640    -1.5738120    -0.6782690
  H        2.3962560    -2.2212150     0.2333330
  H        5.4095350    -0.6367030    -0.6119800
  H        5.2936270    -0.4518060     1.1412500
  H        4.7686350    -1.9575490     0.3752240
  H       -4.9184630     1.2095470     0.7042290
  H       -3.2707080    -2.6065070    -0.4021260
  H       -5.2268190    -1.2338160     0.2940590
units angstrom
no_reorient  #important for SAPT in psi4, default
symmetry c1  #important for SAPT in psi4, default
}

set PROPERTIES_ORIGIN ["COM"]
properties('MP2/aug-cc-pvtz', properties = ['dipole'])
--------------------------------------------------------------------------

    Molecular point group: c1
  Charge       = 0
  Multiplicity = 1
  Basis Set: AUG-CC-PVTZ
    Blend: AUG-CC-PVTZ
  Basis Set: (AUG-CC-PVTZ AUX)
    Blend: AUG-CC-PVTZ-JKFIT

    Orbital Energies [Eh]
    ---------------------

    Doubly Occupied:

       1A    -15.591070     2A    -15.555172     3A    -11.324495
       4A    -11.281730     5A    -11.273752     6A    -11.259459
       7A    -11.240288     8A    -11.236614     9A    -11.232903
      10A    -11.229731    11A    -11.229196    12A    -11.227189
      13A    -11.220065    14A    -11.219412    15A     -1.297244
      16A     -1.223893    17A     -1.130266    18A     -1.098104
      19A     -1.047761    20A     -1.005879    21A     -0.991615
      22A     -0.935999    23A     -0.870262    24A     -0.842626
      25A     -0.819772    26A     -0.798221    27A     -0.725689
      28A     -0.716900    29A     -0.670503    30A     -0.655109
      31A     -0.638540    32A     -0.621153    33A     -0.596613
      34A     -0.593563    35A     -0.587987    36A     -0.578288
      37A     -0.570642    38A     -0.563657    39A     -0.547629
      40A     -0.519924    41A     -0.511270    42A     -0.504466
      43A     -0.483697    44A     -0.454691    45A     -0.415522
      46A     -0.382408    47A     -0.337097    48A     -0.328704
      49A     -0.275309

  @DF-RHF Final Energy:  -570.49781612073866

   => Energetics <=

    Nuclear Repulsion Energy =            790.7698595032603635
    One-Electron Energy =               -2341.6111949417268079
    Two-Electron Energy =                 980.3435193177278961
    Total Energy =                       -570.4978161207386620
  Basis Set: (AUG-CC-PVTZ AUX)
    Blend: AUG-CC-PVTZ-RI
    Molecular point group: c1

    Geometry (in Angstrom), charge = 0, multiplicity = 1:

       Center              X                  Y                   Z               Mass
    ------------   -----------------  -----------------  -----------------  -----------------
         N           -0.460931213039     1.066708152196    -0.311551063912    14.003074004430
         N            1.039069786961    -0.724086847804    -0.008484063912    14.003074004430
         C           -1.665475613039     0.412664952196    -0.118445363912    12.000000000000
         C            0.835393786961     0.592475152196    -0.150245063912    12.000000000000
         C            3.433099786961    -0.323654847804     0.117249936088    12.000000000000
         C            1.899353786961     1.519330152196    -0.175699063912    12.000000000000
         C            3.194640786961     1.051343152196    -0.038676063912    12.000000000000
         C           -2.788281213039     1.166666152196     0.262611936088    12.000000000000
         C           -1.856166213039    -0.976929847804    -0.375271063912    12.000000000000
         C            2.310848786961    -1.148768847804     0.121840936088    12.000000000000
         C            4.823576786961    -0.875853847804     0.266967936088    12.000000000000
         C           -4.045011213039     0.585331152196     0.409744936088    12.000000000000
         C           -3.117848213039    -1.548497847804    -0.205219063912    12.000000000000
         C           -4.218814213039    -0.780345847804     0.176927936088    12.000000000000
         H           -0.537838213039     2.075036152196    -0.235590063912     1.007825032230
         H            1.703512786961     2.582929152196    -0.297727063912     1.007825032230
         H            4.027380786961     1.753335152196    -0.051601063912     1.007825032230
         H           -2.657319213039     2.229891152196     0.462681936088     1.007825032230
         H           -1.009090213039    -1.579479847804    -0.673403063912     1.007825032230
         H            2.426729786961    -2.226882847804     0.238198936088     1.007825032230
         H            5.440008786961    -0.642370847804    -0.607114063912     1.007825032230
         H            5.324100786961    -0.457473847804     1.146115936088     1.007825032230
         H            4.799108786961    -1.963216847804     0.380089936088     1.007825032230
         H           -4.887989213039     1.203879152196     0.709094936088     1.007825032230
         H           -3.240234213039    -2.612174847804    -0.397260063912     1.007825032230
         H           -5.196345213039    -1.239483847804     0.298924936088     1.007825032230

  Basis Set: AUG-CC-PVTZ
    Blend: AUG-CC-PVTZ
  Basis Set: (AUG-CC-PVTZ AUX)
    Blend: AUG-CC-PVTZ-JKFIT
	 Reference Energy          =    -570.4978161207386620 [Eh]
	 Singles Energy            =      -0.0000000000000000 [Eh]
	 Same-Spin Energy          =      -0.6366413302868190 [Eh]
	 Opposite-Spin Energy      =      -1.9711546742032828 [Eh]
	 Correlation Energy        =      -2.6077960044901021 [Eh]
	 Total Energy              =    -573.1056121252287312 [Eh]

	 ================> DF-SCS-MP2 Energies <==================
	-----------------------------------------------------------
	 SCS Same-Spin Scale       =       0.3333333333333333 [-]
	 SCS Opposite-Spin Scale   =       1.2000000000000000 [-]
	 SCS Same-Spin Energy      =      -0.2122137767622730 [Eh]
	 SCS Opposite-Spin Energy  =      -2.3653856090439391 [Eh]
	 SCS Correlation Energy    =      -2.5775993858062121 [Eh]
	 SCS Total Energy          =    -573.0754155065449140 [Eh]
	-----------------------------------------------------------

  Dipole Moment: [D]
     X:     2.0671      Y:     1.8882      Z:     0.1516     Total:     2.8037

*** Psi4 exiting successfully. Buy a developer a beer!
