                               Psi4 1.4a3.dev225

  ==> Input File <==

--------------------------------------------------------------------------
#psi4
#
memory 32 gb

molecule  {
0 1
  N       -0.4914050     1.0723760    -0.3164170
  N        1.0085960    -0.7184190    -0.0133500
  C       -1.6581769     0.3188152    -0.0992986
  C        0.8049200     0.5981430    -0.1551110
  C        3.4026260    -0.3179870     0.1123840
  C        1.8688800     1.5249980    -0.1805650
  C        3.1641670     1.0570110    -0.0435420
  C       -2.8187550     1.1723340     0.2577460
  C       -1.8866400    -0.9712620    -0.3801370
  C        2.2803750    -1.1431010     0.1169750
  C        4.7931030    -0.8701860     0.2621020
  C       -4.0754850     0.5909990     0.4048790
  C       -3.1483220    -1.5428300    -0.2100850
  C       -4.2492880    -0.7746780     0.1720620
  H       -0.5683120     2.0807040    -0.2404560
  H        1.6730390     2.5885970    -0.3025930
  H        3.9969070     1.7590030    -0.0564670
  H       -2.6877930     2.2355590     0.4578160
  H       -1.0395640    -1.5738120    -0.6782690
  H        2.3962560    -2.2212150     0.2333330
  H        5.4095350    -0.6367030    -0.6119800
  H        5.2936270    -0.4518060     1.1412500
  H        4.7686350    -1.9575490     0.3752240
  H       -4.9184630     1.2095470     0.7042290
  H       -3.2707080    -2.6065070    -0.4021260
  H       -5.2268190    -1.2338160     0.2940590
units angstrom
no_reorient  #important for SAPT in psi4, default
symmetry c1  #important for SAPT in psi4, default
}

set PROPERTIES_ORIGIN ["COM"]
properties('MP2/aug-cc-pvtz', properties = ['dipole'])
--------------------------------------------------------------------------

    Molecular point group: c1
  Charge       = 0
  Multiplicity = 1
  Basis Set: AUG-CC-PVTZ
    Blend: AUG-CC-PVTZ
  Basis Set: (AUG-CC-PVTZ AUX)
    Blend: AUG-CC-PVTZ-JKFIT

    Orbital Energies [Eh]
    ---------------------

    Doubly Occupied:

       1A    -15.589937     2A    -15.553428     3A    -11.320740
       4A    -11.280546     5A    -11.272624     6A    -11.258106
       7A    -11.238157     8A    -11.235990     9A    -11.234992
      10A    -11.233013    11A    -11.231646    12A    -11.228739
      13A    -11.221849    14A    -11.210419    15A     -1.293799
      16A     -1.219147    17A     -1.132445    18A     -1.096629
      19A     -1.044951    20A     -1.012286    21A     -0.989346
      22A     -0.934691    23A     -0.868710    24A     -0.838970
      25A     -0.825312    26A     -0.793856    27A     -0.722120
      28A     -0.717109    29A     -0.671995    30A     -0.653377
      31A     -0.637545    32A     -0.619724    33A     -0.601847
      34A     -0.593392    35A     -0.585271    36A     -0.575166
      37A     -0.569845    38A     -0.562284    39A     -0.546627
      40A     -0.518907    41A     -0.511109    42A     -0.505696
      43A     -0.481722    44A     -0.453602    45A     -0.413254
      46A     -0.381123    47A     -0.339422    48A     -0.328240
      49A     -0.277141

  @DF-RHF Final Energy:  -570.48862545932798

   => Energetics <=

    Nuclear Repulsion Energy =            791.1533443585291252
    One-Electron Energy =               -2342.4302449119250014
    Two-Electron Energy =                 980.7882750940680125
    Total Energy =                       -570.4886254593279773
  Basis Set: (AUG-CC-PVTZ AUX)
    Blend: AUG-CC-PVTZ-RI
    Molecular point group: c1

    Geometry (in Angstrom), charge = 0, multiplicity = 1:

       Center              X                  Y                   Z               Mass
    ------------   -----------------  -----------------  -----------------  -----------------
         N           -0.463393298215     1.073194903343    -0.313116258503    14.003074004430
         N            1.036607701785    -0.717600096657    -0.010049258503    14.003074004430
         C           -1.630165198215     0.319634103343    -0.095997858503    12.000000000000
         C            0.832931701785     0.598961903343    -0.151810258503    12.000000000000
         C            3.430637701785    -0.317168096657     0.115684741497    12.000000000000
         C            1.896891701785     1.525816903343    -0.177264258503    12.000000000000
         C            3.192178701785     1.057829903343    -0.040241258503    12.000000000000
         C           -2.790743298215     1.173152903343     0.261046741497    12.000000000000
         C           -1.858628298215    -0.970443096657    -0.376836258503    12.000000000000
         C            2.308386701785    -1.142282096657     0.120275741497    12.000000000000
         C            4.821114701785    -0.869367096657     0.265402741497    12.000000000000
         C           -4.047473298215     0.591817903343     0.408179741497    12.000000000000
         C           -3.120310298215    -1.542011096657    -0.206784258503    12.000000000000
         C           -4.221276298215    -0.773859096657     0.175362741497    12.000000000000
         H           -0.540300298215     2.081522903343    -0.237155258503     1.007825032230
         H            1.701050701785     2.589415903343    -0.299292258503     1.007825032230
         H            4.024918701785     1.759821903343    -0.053166258503     1.007825032230
         H           -2.659781298215     2.236377903343     0.461116741497     1.007825032230
         H           -1.011552298215    -1.572993096657    -0.674968258503     1.007825032230
         H            2.424267701785    -2.220396096657     0.236633741497     1.007825032230
         H            5.437546701785    -0.635884096657    -0.608679258503     1.007825032230
         H            5.321638701785    -0.450987096657     1.144550741497     1.007825032230
         H            4.796646701785    -1.956730096657     0.378524741497     1.007825032230
         H           -4.890451298215     1.210365903343     0.707529741497     1.007825032230
         H           -3.242696298215    -2.605688096657    -0.398825258503     1.007825032230
         H           -5.198807298215    -1.232997096657     0.297359741497     1.007825032230

  Basis Set: AUG-CC-PVTZ
    Blend: AUG-CC-PVTZ
  Basis Set: (AUG-CC-PVTZ AUX)
    Blend: AUG-CC-PVTZ-JKFIT
	 Reference Energy          =    -570.4886254593279773 [Eh]
	 Singles Energy            =      -0.0000000000000000 [Eh]
	 Same-Spin Energy          =      -0.6363200009819101 [Eh]
	 Opposite-Spin Energy      =      -1.9715597609617257 [Eh]
	 Correlation Energy        =      -2.6078797619436358 [Eh]
	 Total Energy              =    -573.0965052212716273 [Eh]

	 ================> DF-SCS-MP2 Energies <==================
	-----------------------------------------------------------
	 SCS Same-Spin Scale       =       0.3333333333333333 [-]
	 SCS Opposite-Spin Scale   =       1.2000000000000000 [-]
	 SCS Same-Spin Energy      =      -0.2121066669939700 [Eh]
	 SCS Opposite-Spin Energy  =      -2.3658717131540707 [Eh]
	 SCS Correlation Energy    =      -2.5779783801480409 [Eh]
	 SCS Total Energy          =    -573.0666038394759880 [Eh]
	-----------------------------------------------------------

  Dipole Moment: [D]
     X:     1.8383      Y:     1.8625      Z:     0.1565     Total:     2.6216

*** Psi4 exiting successfully. Buy a developer a beer!
