                               Psi4 1.4a3.dev225

  ==> Input File <==

--------------------------------------------------------------------------
#psi4
#
memory 32 gb

molecule  {
0 1
  N       -0.4914050     1.0723760    -0.3164170
  N        0.9623476    -0.7249806    -0.0155538
  C       -1.7100270     0.3982770    -0.1243180
  C        0.8049200     0.5981430    -0.1551110
  C        3.4026260    -0.3179870     0.1123840
  C        1.8688800     1.5249980    -0.1805650
  C        3.1641670     1.0570110    -0.0435420
  C       -2.8187550     1.1723340     0.2577460
  C       -1.8866400    -0.9712620    -0.3801370
  C        2.2803750    -1.1431010     0.1169750
  C        4.7931030    -0.8701860     0.2621020
  C       -4.0754850     0.5909990     0.4048790
  C       -3.1483220    -1.5428300    -0.2100850
  C       -4.2492880    -0.7746780     0.1720620
  H       -0.5683120     2.0807040    -0.2404560
  H        1.6730390     2.5885970    -0.3025930
  H        3.9969070     1.7590030    -0.0564670
  H       -2.6877930     2.2355590     0.4578160
  H       -1.0395640    -1.5738120    -0.6782690
  H        2.3962560    -2.2212150     0.2333330
  H        5.4095350    -0.6367030    -0.6119800
  H        5.2936270    -0.4518060     1.1412500
  H        4.7686350    -1.9575490     0.3752240
  H       -4.9184630     1.2095470     0.7042290
  H       -3.2707080    -2.6065070    -0.4021260
  H       -5.2268190    -1.2338160     0.2940590
units angstrom
no_reorient  #important for SAPT in psi4, default
symmetry c1  #important for SAPT in psi4, default
}

set PROPERTIES_ORIGIN ["COM"]
properties('MP2/aug-cc-pvtz', properties = ['dipole'])
--------------------------------------------------------------------------

    Molecular point group: c1
  Charge       = 0
  Multiplicity = 1
  Basis Set: AUG-CC-PVTZ
    Blend: AUG-CC-PVTZ
  Basis Set: (AUG-CC-PVTZ AUX)
    Blend: AUG-CC-PVTZ-JKFIT

    Orbital Energies [Eh]
    ---------------------

    Doubly Occupied:

       1A    -15.587538     2A    -15.557736     3A    -11.322776
       4A    -11.279986     5A    -11.276949     6A    -11.260961
       7A    -11.240505     8A    -11.237544     9A    -11.232917
      10A    -11.230336    11A    -11.229309    12A    -11.227933
      13A    -11.220771    14A    -11.217187    15A     -1.291100
      16A     -1.212243    17A     -1.131523    18A     -1.098488
      19A     -1.044897    20A     -1.007158    21A     -0.992784
      22A     -0.933809    23A     -0.870765    24A     -0.839649
      25A     -0.820287    26A     -0.795216    27A     -0.721947
      28A     -0.714124    29A     -0.670096    30A     -0.650746
      31A     -0.637884    32A     -0.620791    33A     -0.594344
      34A     -0.592374    35A     -0.587559    36A     -0.578934
      37A     -0.569244    38A     -0.561334    39A     -0.546957
      40A     -0.518606    41A     -0.509598    42A     -0.502975
      43A     -0.486783    44A     -0.452158    45A     -0.420565
      46A     -0.379416    47A     -0.336910    48A     -0.329659
      49A     -0.277772

  @DF-RHF Final Energy:  -570.49478016257797

   => Energetics <=

    Nuclear Repulsion Energy =            790.3390987245958286
    One-Electron Energy =               -2340.8254639550582397
    Two-Electron Energy =                 979.9915850678845572
    Total Energy =                       -570.4947801625779675
  Basis Set: (AUG-CC-PVTZ AUX)
    Blend: AUG-CC-PVTZ-RI
    Molecular point group: c1

    Geometry (in Angstrom), charge = 0, multiplicity = 1:

       Center              X                  Y                   Z               Mass
    ------------   -----------------  -----------------  -----------------  -----------------
         N           -0.456495847732     1.068514518752    -0.311317819136    14.003074004430
         N            0.997256752268    -0.728842081248    -0.010454619136    14.003074004430
         C           -1.675117847732     0.394415518752    -0.119218819136    12.000000000000
         C            0.839829152268     0.594281518752    -0.150011819136    12.000000000000
         C            3.437535152268    -0.321848481248     0.117483180864    12.000000000000
         C            1.903789152268     1.521136518752    -0.175465819136    12.000000000000
         C            3.199076152268     1.053149518752    -0.038442819136    12.000000000000
         C           -2.783845847732     1.168472518752     0.262845180864    12.000000000000
         C           -1.851730847732    -0.975123481248    -0.375037819136    12.000000000000
         C            2.315284152268    -1.146962481248     0.122074180864    12.000000000000
         C            4.828012152268    -0.874047481248     0.267201180864    12.000000000000
         C           -4.040575847732     0.587137518752     0.409978180864    12.000000000000
         C           -3.113412847732    -1.546691481248    -0.204985819136    12.000000000000
         C           -4.214378847732    -0.778539481248     0.177161180864    12.000000000000
         H           -0.533402847732     2.076842518752    -0.235356819136     1.007825032230
         H            1.707948152268     2.584735518752    -0.297493819136     1.007825032230
         H            4.031816152268     1.755141518752    -0.051367819136     1.007825032230
         H           -2.652883847732     2.231697518752     0.462915180864     1.007825032230
         H           -1.004654847732    -1.577673481248    -0.673169819136     1.007825032230
         H            2.431165152268    -2.225076481248     0.238432180864     1.007825032230
         H            5.444444152268    -0.640564481248    -0.606880819136     1.007825032230
         H            5.328536152268    -0.455667481248     1.146349180864     1.007825032230
         H            4.803544152268    -1.961410481248     0.380323180864     1.007825032230
         H           -4.883553847732     1.205685518752     0.709328180864     1.007825032230
         H           -3.235798847732    -2.610368481248    -0.397026819136     1.007825032230
         H           -5.191909847732    -1.237677481248     0.299158180864     1.007825032230

  Basis Set: AUG-CC-PVTZ
    Blend: AUG-CC-PVTZ
  Basis Set: (AUG-CC-PVTZ AUX)
    Blend: AUG-CC-PVTZ-JKFIT
	 Reference Energy          =    -570.4947801625779675 [Eh]
	 Singles Energy            =      -0.0000000000000000 [Eh]
	 Same-Spin Energy          =      -0.6366704508158648 [Eh]
	 Opposite-Spin Energy      =      -1.9723846621089980 [Eh]
	 Correlation Energy        =      -2.6090551129248629 [Eh]
	 Total Energy              =    -573.1038352755027745 [Eh]

	 ================> DF-SCS-MP2 Energies <==================
	-----------------------------------------------------------
	 SCS Same-Spin Scale       =       0.3333333333333333 [-]
	 SCS Opposite-Spin Scale   =       1.2000000000000000 [-]
	 SCS Same-Spin Energy      =      -0.2122234836052883 [Eh]
	 SCS Opposite-Spin Energy  =      -2.3668615945307976 [Eh]
	 SCS Correlation Energy    =      -2.5790850781360857 [Eh]
	 SCS Total Energy          =    -573.0738652407140989 [Eh]
	-----------------------------------------------------------

  Dipole Moment: [D]
     X:     2.0085      Y:     1.8842      Z:     0.1663     Total:     2.7590

*** Psi4 exiting successfully. Buy a developer a beer!
