                               Psi4 1.4a3.dev225

  ==> Input File <==

--------------------------------------------------------------------------
#psi4
#
memory 32 gb

molecule  {
0 1
  N       -0.4914050     1.0723760    -0.3164170
  N        1.0085960    -0.7184190    -0.0133500
  C       -1.7100270     0.3982770    -0.1243180
  C        0.8049200     0.5981430    -0.1551110
  C        3.4103445    -0.2893125     0.1556574
  C        1.8688800     1.5249980    -0.1805650
  C        3.1641670     1.0570110    -0.0435420
  C       -2.8187550     1.1723340     0.2577460
  C       -1.8866400    -0.9712620    -0.3801370
  C        2.2803750    -1.1431010     0.1169750
  C        4.7931030    -0.8701860     0.2621020
  C       -4.0754850     0.5909990     0.4048790
  C       -3.1483220    -1.5428300    -0.2100850
  C       -4.2492880    -0.7746780     0.1720620
  H       -0.5683120     2.0807040    -0.2404560
  H        1.6730390     2.5885970    -0.3025930
  H        3.9969070     1.7590030    -0.0564670
  H       -2.6877930     2.2355590     0.4578160
  H       -1.0395640    -1.5738120    -0.6782690
  H        2.3962560    -2.2212150     0.2333330
  H        5.4095350    -0.6367030    -0.6119800
  H        5.2936270    -0.4518060     1.1412500
  H        4.7686350    -1.9575490     0.3752240
  H       -4.9184630     1.2095470     0.7042290
  H       -3.2707080    -2.6065070    -0.4021260
  H       -5.2268190    -1.2338160     0.2940590
units angstrom
no_reorient  #important for SAPT in psi4, default
symmetry c1  #important for SAPT in psi4, default
}

set PROPERTIES_ORIGIN ["COM"]
properties('MP2/aug-cc-pvtz', properties = ['dipole'])
--------------------------------------------------------------------------

    Molecular point group: c1
  Charge       = 0
  Multiplicity = 1
  Basis Set: AUG-CC-PVTZ
    Blend: AUG-CC-PVTZ
  Basis Set: (AUG-CC-PVTZ AUX)
    Blend: AUG-CC-PVTZ-JKFIT

    Orbital Energies [Eh]
    ---------------------

    Doubly Occupied:

       1A    -15.588570     2A    -15.555425     3A    -11.322474
       4A    -11.280833     5A    -11.277248     6A    -11.255413
       7A    -11.237510     8A    -11.236063     9A    -11.233644
      10A    -11.230268    11A    -11.229154    12A    -11.228389
      13A    -11.221275    14A    -11.218294    15A     -1.293103
      16A     -1.220093    17A     -1.132600    18A     -1.099349
      19A     -1.044453    20A     -1.007950    21A     -0.992804
      22A     -0.934344    23A     -0.868982    24A     -0.840729
      25A     -0.821756    26A     -0.796952    27A     -0.723591
      28A     -0.715429    29A     -0.670734    30A     -0.652847
      31A     -0.637585    32A     -0.621107    33A     -0.595546
      34A     -0.593185    35A     -0.588592    36A     -0.579542
      37A     -0.568725    38A     -0.562050    39A     -0.545078
      40A     -0.523271    41A     -0.511713    42A     -0.504298
      43A     -0.487309    44A     -0.453935    45A     -0.413641
      46A     -0.383170    47A     -0.335498    48A     -0.330304
      49A     -0.275758

  @DF-RHF Final Energy:  -570.49697573096159

   => Energetics <=

    Nuclear Repulsion Energy =            790.6896726864773655
    One-Electron Energy =               -2341.4921276984414362
    Two-Electron Energy =                 980.3054792810023628
    Total Energy =                       -570.4969757309615943
  Basis Set: (AUG-CC-PVTZ AUX)
    Blend: AUG-CC-PVTZ-RI
    Molecular point group: c1

    Geometry (in Angstrom), charge = 0, multiplicity = 1:

       Center              X                  Y                   Z               Mass
    ------------   -----------------  -----------------  -----------------  -----------------
         N           -0.460516714506     1.066146368531    -0.314306089804    14.003074004430
         N            1.039484285494    -0.724648631469    -0.011239089804    14.003074004430
         C           -1.679138714506     0.392047368531    -0.122207089804    12.000000000000
         C            0.835808285494     0.591913368531    -0.153000089804    12.000000000000
         C            3.441232785494    -0.295542131469     0.157768310196    12.000000000000
         C            1.899768285494     1.518768368531    -0.178454089804    12.000000000000
         C            3.195055285494     1.050781368531    -0.041431089804    12.000000000000
         C           -2.787866714506     1.166104368531     0.259856910196    12.000000000000
         C           -1.855751714506    -0.977491631469    -0.378026089804    12.000000000000
         C            2.311263285494    -1.149330631469     0.119085910196    12.000000000000
         C            4.823991285494    -0.876415631469     0.264212910196    12.000000000000
         C           -4.044596714506     0.584769368531     0.406989910196    12.000000000000
         C           -3.117433714506    -1.549059631469    -0.207974089804    12.000000000000
         C           -4.218399714506    -0.780907631469     0.174172910196    12.000000000000
         H           -0.537423714506     2.074474368531    -0.238345089804     1.007825032230
         H            1.703927285494     2.582367368531    -0.300482089804     1.007825032230
         H            4.027795285494     1.752773368531    -0.054356089804     1.007825032230
         H           -2.656904714506     2.229329368531     0.459926910196     1.007825032230
         H           -1.008675714506    -1.580041631469    -0.676158089804     1.007825032230
         H            2.427144285494    -2.227444631469     0.235443910196     1.007825032230
         H            5.440423285494    -0.642932631469    -0.609869089804     1.007825032230
         H            5.324515285494    -0.458035631469     1.143360910196     1.007825032230
         H            4.799523285494    -1.963778631469     0.377334910196     1.007825032230
         H           -4.887574714506     1.203317368531     0.706339910196     1.007825032230
         H           -3.239819714506    -2.612736631469    -0.400015089804     1.007825032230
         H           -5.195930714506    -1.240045631469     0.296169910196     1.007825032230

  Basis Set: AUG-CC-PVTZ
    Blend: AUG-CC-PVTZ
  Basis Set: (AUG-CC-PVTZ AUX)
    Blend: AUG-CC-PVTZ-JKFIT
	 Reference Energy          =    -570.4969757309615943 [Eh]
	 Singles Energy            =      -0.0000000000000000 [Eh]
	 Same-Spin Energy          =      -0.6366579610192878 [Eh]
	 Opposite-Spin Energy      =      -1.9711640329897766 [Eh]
	 Correlation Energy        =      -2.6078219940090643 [Eh]
	 Total Energy              =    -573.1047977249706946 [Eh]

	 ================> DF-SCS-MP2 Energies <==================
	-----------------------------------------------------------
	 SCS Same-Spin Scale       =       0.3333333333333333 [-]
	 SCS Opposite-Spin Scale   =       1.2000000000000000 [-]
	 SCS Same-Spin Energy      =      -0.2122193203397626 [Eh]
	 SCS Opposite-Spin Energy  =      -2.3653968395877318 [Eh]
	 SCS Correlation Energy    =      -2.5776161599274943 [Eh]
	 SCS Total Energy          =    -573.0745918908891099 [Eh]
	-----------------------------------------------------------

  Dipole Moment: [D]
     X:     1.8915      Y:     1.8131      Z:     0.1537     Total:     2.6246

*** Psi4 exiting successfully. Buy a developer a beer!
