                               Psi4 1.4a3.dev225

  ==> Input File <==

--------------------------------------------------------------------------
#psi4
#
memory 32 gb

molecule  {
0 1
  N       -0.4914050     1.0723760    -0.3164170
  N        1.0085960    -0.7184190    -0.0133500
  C       -1.7100270     0.3982770    -0.1243180
  C        0.8049200     0.5981430    -0.1551110
  C        3.4026260    -0.3179870     0.1123840
  C        1.8688800     1.5249980    -0.1805650
  C        3.1641670     1.0570110    -0.0435420
  C       -2.8187550     1.1723340     0.2577460
  C       -1.8866400    -0.9712620    -0.3801370
  C        2.2803750    -1.1431010     0.1169750
  C        4.7931030    -0.8701860     0.2621020
  C       -4.0754850     0.5909990     0.4048790
  C       -3.1483220    -1.5428300    -0.2100850
  C       -4.2650636    -0.7636713     0.1775377
  H       -0.5683120     2.0807040    -0.2404560
  H        1.6730390     2.5885970    -0.3025930
  H        3.9969070     1.7590030    -0.0564670
  H       -2.6877930     2.2355590     0.4578160
  H       -1.0395640    -1.5738120    -0.6782690
  H        2.3962560    -2.2212150     0.2333330
  H        5.4095350    -0.6367030    -0.6119800
  H        5.2936270    -0.4518060     1.1412500
  H        4.7686350    -1.9575490     0.3752240
  H       -4.9184630     1.2095470     0.7042290
  H       -3.2707080    -2.6065070    -0.4021260
  H       -5.2268190    -1.2338160     0.2940590
units angstrom
no_reorient  #important for SAPT in psi4, default
symmetry c1  #important for SAPT in psi4, default
}

set PROPERTIES_ORIGIN ["COM"]
properties('MP2/aug-cc-pvtz', properties = ['dipole'])
--------------------------------------------------------------------------

    Molecular point group: c1
  Charge       = 0
  Multiplicity = 1
  Basis Set: AUG-CC-PVTZ
    Blend: AUG-CC-PVTZ
  Basis Set: (AUG-CC-PVTZ AUX)
    Blend: AUG-CC-PVTZ-JKFIT

    Orbital Energies [Eh]
    ---------------------

    Doubly Occupied:

       1A    -15.589295     2A    -15.553855     3A    -11.323121
       4A    -11.281383     5A    -11.272890     6A    -11.258549
       7A    -11.238951     8A    -11.235401     9A    -11.232660
      10A    -11.232575    11A    -11.228995    12A    -11.228081
      13A    -11.221590    14A    -11.218738    15A     -1.293275
      16A     -1.220221    17A     -1.131871    18A     -1.097046
      19A     -1.045863    20A     -1.007654    21A     -0.992995
      22A     -0.934839    23A     -0.868879    24A     -0.840571
      25A     -0.821896    26A     -0.797794    27A     -0.723537
      28A     -0.715431    29A     -0.672052    30A     -0.653292
      31A     -0.637454    32A     -0.621046    33A     -0.595686
      34A     -0.593947    35A     -0.587893    36A     -0.578817
      37A     -0.569368    38A     -0.562860    39A     -0.546873
      40A     -0.519492    41A     -0.511329    42A     -0.506214
      43A     -0.485849    44A     -0.453630    45A     -0.414443
      46A     -0.381514    47A     -0.335784    48A     -0.330868
      49A     -0.276847

  @DF-RHF Final Energy:  -570.49839933477176

   => Energetics <=

    Nuclear Repulsion Energy =            790.5439356296703863
    One-Electron Energy =               -2341.1982395913278197
    Two-Electron Energy =                 980.1559046268856719
    Total Energy =                       -570.4983993347717615
  Basis Set: (AUG-CC-PVTZ AUX)
    Blend: AUG-CC-PVTZ-RI
    Molecular point group: c1

    Geometry (in Angstrom), charge = 0, multiplicity = 1:

       Center              X                  Y                   Z               Mass
    ------------   -----------------  -----------------  -----------------  -----------------
         N           -0.458985323274     1.067297990173    -0.311842362043    14.003074004430
         N            1.041015676726    -0.723497009827    -0.008775362043    14.003074004430
         C           -1.677607323274     0.393198990173    -0.119743362043    12.000000000000
         C            0.837339676726     0.593064990173    -0.150536362043    12.000000000000
         C            3.435045676726    -0.323065009827     0.116958637957    12.000000000000
         C            1.901299676726     1.519919990173    -0.175990362043    12.000000000000
         C            3.196586676726     1.051932990173    -0.038967362043    12.000000000000
         C           -2.786335323274     1.167255990173     0.262320637957    12.000000000000
         C           -1.854220323274    -0.976340009827    -0.375562362043    12.000000000000
         C            2.312794676726    -1.148179009827     0.121549637957    12.000000000000
         C            4.825522676726    -0.875264009827     0.266676637957    12.000000000000
         C           -4.043065323274     0.585920990173     0.409453637957    12.000000000000
         C           -3.115902323274    -1.547908009827    -0.205510362043    12.000000000000
         C           -4.232643923274    -0.768749309827     0.182112337957    12.000000000000
         H           -0.535892323274     2.075625990173    -0.235881362043     1.007825032230
         H            1.705458676726     2.583518990173    -0.298018362043     1.007825032230
         H            4.029326676726     1.753924990173    -0.051892362043     1.007825032230
         H           -2.655373323274     2.230480990173     0.462390637957     1.007825032230
         H           -1.007144323274    -1.578890009827    -0.673694362043     1.007825032230
         H            2.428675676726    -2.226293009827     0.237907637957     1.007825032230
         H            5.441954676726    -0.641781009827    -0.607405362043     1.007825032230
         H            5.326046676726    -0.456884009827     1.145824637957     1.007825032230
         H            4.801054676726    -1.962627009827     0.379798637957     1.007825032230
         H           -4.886043323274     1.204468990173     0.708803637957     1.007825032230
         H           -3.238288323274    -2.611585009827    -0.397551362043     1.007825032230
         H           -5.194399323274    -1.238894009827     0.298633637957     1.007825032230

  Basis Set: AUG-CC-PVTZ
    Blend: AUG-CC-PVTZ
  Basis Set: (AUG-CC-PVTZ AUX)
    Blend: AUG-CC-PVTZ-JKFIT
	 Reference Energy          =    -570.4983993347717615 [Eh]
	 Singles Energy            =      -0.0000000000000000 [Eh]
	 Same-Spin Energy          =      -0.6363762493934275 [Eh]
	 Opposite-Spin Energy      =      -1.9709382171695118 [Eh]
	 Correlation Energy        =      -2.6073144665629391 [Eh]
	 Total Energy              =    -573.1057138013346730 [Eh]

	 ================> DF-SCS-MP2 Energies <==================
	-----------------------------------------------------------
	 SCS Same-Spin Scale       =       0.3333333333333333 [-]
	 SCS Opposite-Spin Scale   =       1.2000000000000000 [-]
	 SCS Same-Spin Energy      =      -0.2121254164644758 [Eh]
	 SCS Opposite-Spin Energy  =      -2.3651258606034142 [Eh]
	 SCS Correlation Energy    =      -2.5772512770678899 [Eh]
	 SCS Total Energy          =    -573.0756506118397056 [Eh]
	-----------------------------------------------------------

  Dipole Moment: [D]
     X:     1.8811      Y:     1.8452      Z:     0.1607     Total:     2.6399

*** Psi4 exiting successfully. Buy a developer a beer!
