                               Psi4 1.4a3.dev225

  ==> Input File <==

--------------------------------------------------------------------------
#psi4
#
memory 32 gb

molecule  {
0 1
  N       -0.4914050     1.0723760    -0.3164170
  N        1.0085960    -0.7184190    -0.0133500
  C       -1.7100270     0.3982770    -0.1243180
  C        0.8049200     0.5981430    -0.1551110
  C        3.4026260    -0.3179870     0.1123840
  C        1.8688800     1.5249980    -0.1805650
  C        3.1641670     1.0570110    -0.0435420
  C       -2.8187550     1.1723340     0.2577460
  C       -1.8866400    -0.9712620    -0.3801370
  C        2.2803750    -1.1431010     0.1169750
  C        4.7931030    -0.8701860     0.2621020
  C       -4.0754850     0.5909990     0.4048790
  C       -3.1483220    -1.5428300    -0.2100850
  C       -4.2887269    -0.7471612     0.1857513
  H       -0.5683120     2.0807040    -0.2404560
  H        1.6730390     2.5885970    -0.3025930
  H        3.9969070     1.7590030    -0.0564670
  H       -2.6877930     2.2355590     0.4578160
  H       -1.0395640    -1.5738120    -0.6782690
  H        2.3962560    -2.2212150     0.2333330
  H        5.4095350    -0.6367030    -0.6119800
  H        5.2936270    -0.4518060     1.1412500
  H        4.7686350    -1.9575490     0.3752240
  H       -4.9184630     1.2095470     0.7042290
  H       -3.2707080    -2.6065070    -0.4021260
  H       -5.2268190    -1.2338160     0.2940590
units angstrom
no_reorient  #important for SAPT in psi4, default
symmetry c1  #important for SAPT in psi4, default
}

set PROPERTIES_ORIGIN ["COM"]
properties('MP2/aug-cc-pvtz', properties = ['dipole'])
--------------------------------------------------------------------------

    Molecular point group: c1
  Charge       = 0
  Multiplicity = 1
  Basis Set: AUG-CC-PVTZ
    Blend: AUG-CC-PVTZ
  Basis Set: (AUG-CC-PVTZ AUX)
    Blend: AUG-CC-PVTZ-JKFIT

    Orbital Energies [Eh]
    ---------------------

    Doubly Occupied:

       1A    -15.589569     2A    -15.554060     3A    -11.323319
       4A    -11.282062     5A    -11.273067     6A    -11.258711
       7A    -11.239103     8A    -11.235750     9A    -11.235561
      10A    -11.231077    11A    -11.229106    12A    -11.227314
      13A    -11.221749    14A    -11.219201    15A     -1.293510
      16A     -1.220385    17A     -1.130657    18A     -1.097203
      19A     -1.045848    20A     -1.007670    21A     -0.992403
      22A     -0.934785    23A     -0.869446    24A     -0.839731
      25A     -0.822836    26A     -0.797521    27A     -0.723381
      28A     -0.715262    29A     -0.674405    30A     -0.653300
      31A     -0.637914    32A     -0.620862    33A     -0.596149
      34A     -0.594234    35A     -0.587236    36A     -0.577494
      37A     -0.569371    38A     -0.563087    39A     -0.547023
      40A     -0.520523    41A     -0.512744    42A     -0.507840
      43A     -0.482439    44A     -0.453012    45A     -0.414526
      46A     -0.381675    47A     -0.335993    48A     -0.330366
      49A     -0.276693

  @DF-RHF Final Energy:  -570.49585684639703

   => Energetics <=

    Nuclear Repulsion Energy =            790.2198789132789898
    One-Electron Energy =               -2340.5371262100770764
    Two-Electron Energy =                 979.8213904504010543
    Total Energy =                       -570.4958568463970323
  Basis Set: (AUG-CC-PVTZ AUX)
    Blend: AUG-CC-PVTZ-RI
    Molecular point group: c1

    Geometry (in Angstrom), charge = 0, multiplicity = 1:

       Center              X                  Y                   Z               Mass
    ------------   -----------------  -----------------  -----------------  -----------------
         N           -0.457442903255     1.066221829673    -0.312377740501    14.003074004430
         N            1.042558096745    -0.724573170327    -0.009310740501    14.003074004430
         C           -1.676064903255     0.392122829673    -0.120278740501    12.000000000000
         C            0.838882096745     0.591988829673    -0.151071740501    12.000000000000
         C            3.436588096745    -0.324141170327     0.116423259499    12.000000000000
         C            1.902842096745     1.518843829673    -0.176525740501    12.000000000000
         C            3.198129096745     1.050856829673    -0.039502740501    12.000000000000
         C           -2.784792903255     1.166179829673     0.261785259499    12.000000000000
         C           -1.852677903255    -0.977416170327    -0.376097740501    12.000000000000
         C            2.314337096745    -1.149255170327     0.121014259499    12.000000000000
         C            4.827065096745    -0.876340170327     0.266141259499    12.000000000000
         C           -4.041522903255     0.584844829673     0.408918259499    12.000000000000
         C           -3.114359903255    -1.548984170327    -0.206045740501    12.000000000000
         C           -4.254764803255    -0.753315370327     0.189790559499    12.000000000000
         H           -0.534349903255     2.074549829673    -0.236416740501     1.007825032230
         H            1.707001096745     2.582442829673    -0.298553740501     1.007825032230
         H            4.030869096745     1.752848829673    -0.052427740501     1.007825032230
         H           -2.653830903255     2.229404829673     0.461855259499     1.007825032230
         H           -1.005601903255    -1.579966170327    -0.674229740501     1.007825032230
         H            2.430218096745    -2.227369170327     0.237372259499     1.007825032230
         H            5.443497096745    -0.642857170327    -0.607940740501     1.007825032230
         H            5.327589096745    -0.457960170327     1.145289259499     1.007825032230
         H            4.802597096745    -1.963703170327     0.379263259499     1.007825032230
         H           -4.884500903255     1.203392829673     0.708268259499     1.007825032230
         H           -3.236745903255    -2.612661170327    -0.398086740501     1.007825032230
         H           -5.192856903255    -1.239970170327     0.298098259499     1.007825032230

  Basis Set: AUG-CC-PVTZ
    Blend: AUG-CC-PVTZ
  Basis Set: (AUG-CC-PVTZ AUX)
    Blend: AUG-CC-PVTZ-JKFIT
	 Reference Energy          =    -570.4958568463970323 [Eh]
	 Singles Energy            =      -0.0000000000000000 [Eh]
	 Same-Spin Energy          =      -0.6362980524913677 [Eh]
	 Opposite-Spin Energy      =      -1.9710877574838976 [Eh]
	 Correlation Energy        =      -2.6073858099752654 [Eh]
	 Total Energy              =    -573.1032426563723448 [Eh]

	 ================> DF-SCS-MP2 Energies <==================
	-----------------------------------------------------------
	 SCS Same-Spin Scale       =       0.3333333333333333 [-]
	 SCS Opposite-Spin Scale   =       1.2000000000000000 [-]
	 SCS Same-Spin Energy      =      -0.2120993508304559 [Eh]
	 SCS Opposite-Spin Energy  =      -2.3653053089806773 [Eh]
	 SCS Correlation Energy    =      -2.5774046598111333 [Eh]
	 SCS Total Energy          =    -573.0732615062081550 [Eh]
	-----------------------------------------------------------

  Dipole Moment: [D]
     X:     1.8984      Y:     1.8333      Z:     0.1570     Total:     2.6438

*** Psi4 exiting successfully. Buy a developer a beer!
