                               Psi4 1.4a3.dev225

  ==> Input File <==

--------------------------------------------------------------------------
#psi4
#
memory 32 gb

molecule  {
0 1
  N       -0.4914050     1.0723760    -0.3164170
  N        1.0085960    -0.7184190    -0.0133500
  C       -1.7100270     0.3982770    -0.1243180
  C        0.8049200     0.5981430    -0.1551110
  C        3.4026260    -0.3179870     0.1123840
  C        1.8688800     1.5249980    -0.1805650
  C        3.1173732     1.0739176    -0.0484921
  C       -2.8187550     1.1723340     0.2577460
  C       -1.8866400    -0.9712620    -0.3801370
  C        2.2803750    -1.1431010     0.1169750
  C        4.7931030    -0.8701860     0.2621020
  C       -4.0754850     0.5909990     0.4048790
  C       -3.1483220    -1.5428300    -0.2100850
  C       -4.2492880    -0.7746780     0.1720620
  H       -0.5683120     2.0807040    -0.2404560
  H        1.6730390     2.5885970    -0.3025930
  H        3.9969070     1.7590030    -0.0564670
  H       -2.6877930     2.2355590     0.4578160
  H       -1.0395640    -1.5738120    -0.6782690
  H        2.3962560    -2.2212150     0.2333330
  H        5.4095350    -0.6367030    -0.6119800
  H        5.2936270    -0.4518060     1.1412500
  H        4.7686350    -1.9575490     0.3752240
  H       -4.9184630     1.2095470     0.7042290
  H       -3.2707080    -2.6065070    -0.4021260
  H       -5.2268190    -1.2338160     0.2940590
units angstrom
no_reorient  #important for SAPT in psi4, default
symmetry c1  #important for SAPT in psi4, default
}

set PROPERTIES_ORIGIN ["COM"]
properties('MP2/aug-cc-pvtz', properties = ['dipole'])
--------------------------------------------------------------------------

    Molecular point group: c1
  Charge       = 0
  Multiplicity = 1
  Basis Set: AUG-CC-PVTZ
    Blend: AUG-CC-PVTZ
  Basis Set: (AUG-CC-PVTZ AUX)
    Blend: AUG-CC-PVTZ-JKFIT

    Orbital Energies [Eh]
    ---------------------

    Doubly Occupied:

       1A    -15.590773     2A    -15.551466     3A    -11.324361
       4A    -11.281418     5A    -11.269552     6A    -11.256826
       7A    -11.235661     8A    -11.235154     9A    -11.234165
      10A    -11.230665    11A    -11.229298    12A    -11.229220
      13A    -11.222057    14A    -11.218951    15A     -1.293909
      16A     -1.220212    17A     -1.133240    18A     -1.097726
      19A     -1.049622    20A     -1.008528    21A     -0.995579
      22A     -0.934233    23A     -0.864371    24A     -0.842344
      25A     -0.821518    26A     -0.797516    27A     -0.722762
      28A     -0.716428    29A     -0.671986    30A     -0.653610
      31A     -0.640214    32A     -0.619695    33A     -0.594238
      34A     -0.593572    35A     -0.588120    36A     -0.579910
      37A     -0.569261    38A     -0.560428    39A     -0.545997
      40A     -0.519267    41A     -0.510886    42A     -0.504657
      43A     -0.487541    44A     -0.454287    45A     -0.411871
      46A     -0.387482    47A     -0.335693    48A     -0.330514
      49A     -0.277290

  @DF-RHF Final Energy:  -570.49643884190118

   => Energetics <=

    Nuclear Repulsion Energy =            791.2801814534416280
    One-Electron Energy =               -2342.6651000181095696
    Two-Electron Energy =                 980.8884797227667605
    Total Energy =                       -570.4964388419011811
  Basis Set: (AUG-CC-PVTZ AUX)
    Blend: AUG-CC-PVTZ-RI
    Molecular point group: c1

    Geometry (in Angstrom), charge = 0, multiplicity = 1:

       Center              X                  Y                   Z               Mass
    ------------   -----------------  -----------------  -----------------  -----------------
         N           -0.456963496537     1.066913423190    -0.311162788077    14.003074004430
         N            1.043037503463    -0.723881576810    -0.008095788077    14.003074004430
         C           -1.675585496537     0.392814423190    -0.119063788077    12.000000000000
         C            0.839361503463     0.592680423190    -0.149856788077    12.000000000000
         C            3.437067503463    -0.323449576810     0.117638211923    12.000000000000
         C            1.903321503463     1.519535423190    -0.175310788077    12.000000000000
         C            3.151814703463     1.068455023190    -0.043237888077    12.000000000000
         C           -2.784313496537     1.166871423190     0.263000211923    12.000000000000
         C           -1.852198496537    -0.976724576810    -0.374882788077    12.000000000000
         C            2.314816503463    -1.148563576810     0.122229211923    12.000000000000
         C            4.827544503463    -0.875648576810     0.267356211923    12.000000000000
         C           -4.041043496537     0.585536423190     0.410133211923    12.000000000000
         C           -3.113880496537    -1.548292576810    -0.204830788077    12.000000000000
         C           -4.214846496537    -0.780140576810     0.177316211923    12.000000000000
         H           -0.533870496537     2.075241423190    -0.235201788077     1.007825032230
         H            1.707480503463     2.583134423190    -0.297338788077     1.007825032230
         H            4.031348503463     1.753540423190    -0.051212788077     1.007825032230
         H           -2.653351496537     2.230096423190     0.463070211923     1.007825032230
         H           -1.005122496537    -1.579274576810    -0.673014788077     1.007825032230
         H            2.430697503463    -2.226677576810     0.238587211923     1.007825032230
         H            5.443976503463    -0.642165576810    -0.606725788077     1.007825032230
         H            5.328068503463    -0.457268576810     1.146504211923     1.007825032230
         H            4.803076503463    -1.963011576810     0.380478211923     1.007825032230
         H           -4.884021496537     1.204084423190     0.709483211923     1.007825032230
         H           -3.236266496537    -2.611969576810    -0.396871788077     1.007825032230
         H           -5.192377496537    -1.239278576810     0.299313211923     1.007825032230

  Basis Set: AUG-CC-PVTZ
    Blend: AUG-CC-PVTZ
  Basis Set: (AUG-CC-PVTZ AUX)
    Blend: AUG-CC-PVTZ-JKFIT
	 Reference Energy          =    -570.4964388419011811 [Eh]
	 Singles Energy            =      -0.0000000000000000 [Eh]
	 Same-Spin Energy          =      -0.6360525969511082 [Eh]
	 Opposite-Spin Energy      =      -1.9705833150478076 [Eh]
	 Correlation Energy        =      -2.6066359119989158 [Eh]
	 Total Energy              =    -573.1030747539000458 [Eh]

	 ================> DF-SCS-MP2 Energies <==================
	-----------------------------------------------------------
	 SCS Same-Spin Scale       =       0.3333333333333333 [-]
	 SCS Opposite-Spin Scale   =       1.2000000000000000 [-]
	 SCS Same-Spin Energy      =      -0.2120175323170360 [Eh]
	 SCS Opposite-Spin Energy  =      -2.3646999780573692 [Eh]
	 SCS Correlation Energy    =      -2.5767175103744053 [Eh]
	 SCS Total Energy          =    -573.0731563522755323 [Eh]
	-----------------------------------------------------------

  Dipole Moment: [D]
     X:     1.8069      Y:     1.8734      Z:     0.1591     Total:     2.6077

*** Psi4 exiting successfully. Buy a developer a beer!
