                               Psi4 1.4a3.dev225

  ==> Input File <==

--------------------------------------------------------------------------
#psi4
#
memory 32 gb

molecule  {
0 1
  N       -0.4914050     1.0723760    -0.3164170
  N        1.0085960    -0.7184190    -0.0133500
  C       -1.6307739     0.5219322    -0.1165444
  C        0.8049200     0.5981430    -0.1551110
  C        3.4026260    -0.3179870     0.1123840
  C        1.8688800     1.5249980    -0.1805650
  C        3.1641670     1.0570110    -0.0435420
  C       -2.8187550     1.1723340     0.2577460
  C       -1.8866400    -0.9712620    -0.3801370
  C        2.2803750    -1.1431010     0.1169750
  C        4.7931030    -0.8701860     0.2621020
  C       -4.0754850     0.5909990     0.4048790
  C       -3.1483220    -1.5428300    -0.2100850
  C       -4.2492880    -0.7746780     0.1720620
  H       -0.5683120     2.0807040    -0.2404560
  H        1.6730390     2.5885970    -0.3025930
  H        3.9969070     1.7590030    -0.0564670
  H       -2.6877930     2.2355590     0.4578160
  H       -1.0395640    -1.5738120    -0.6782690
  H        2.3962560    -2.2212150     0.2333330
  H        5.4095350    -0.6367030    -0.6119800
  H        5.2936270    -0.4518060     1.1412500
  H        4.7686350    -1.9575490     0.3752240
  H       -4.9184630     1.2095470     0.7042290
  H       -3.2707080    -2.6065070    -0.4021260
  H       -5.2268190    -1.2338160     0.2940590
units angstrom
no_reorient  #important for SAPT in psi4, default
symmetry c1  #important for SAPT in psi4, default
}

set PROPERTIES_ORIGIN ["COM"]
properties('MP2/aug-cc-pvtz', properties = ['dipole'])
--------------------------------------------------------------------------

    Molecular point group: c1
  Charge       = 0
  Multiplicity = 1
  Basis Set: AUG-CC-PVTZ
    Blend: AUG-CC-PVTZ
  Basis Set: (AUG-CC-PVTZ AUX)
    Blend: AUG-CC-PVTZ-JKFIT

    Orbital Energies [Eh]
    ---------------------

    Doubly Occupied:

       1A    -15.600714     2A    -15.563043     3A    -11.332396
       4A    -11.285842     5A    -11.279008     6A    -11.264863
       7A    -11.248044     8A    -11.243790     9A    -11.234118
      10A    -11.228930    11A    -11.223874    12A    -11.222424
      13A    -11.219951    14A    -11.212265    15A     -1.324281
      16A     -1.242697    17A     -1.118340    18A     -1.104325
      19A     -1.057779    20A     -1.000049    21A     -0.982787
      22A     -0.940398    23A     -0.879780    24A     -0.851871
      25A     -0.814152    26A     -0.800168    27A     -0.737005
      28A     -0.722953    29A     -0.669141    30A     -0.663741
      31A     -0.645887    32A     -0.623332    33A     -0.608675
      34A     -0.595193    35A     -0.585019    36A     -0.575611
      37A     -0.572262    38A     -0.559845    39A     -0.552118
      40A     -0.524404    41A     -0.514385    42A     -0.505720
      43A     -0.463003    44A     -0.451251    45A     -0.421087
      46A     -0.387718    47A     -0.341538    48A     -0.322252
      49A     -0.264402

  @DF-RHF Final Energy:  -570.46887082804824

   => Energetics <=

    Nuclear Repulsion Energy =            790.9049586066355459
    One-Electron Energy =               -2341.5827896318905914
    Two-Electron Energy =                 980.2089601972068067
    Total Energy =                       -570.4688708280482388
  Basis Set: (AUG-CC-PVTZ AUX)
    Blend: AUG-CC-PVTZ-RI
    Molecular point group: c1

    Geometry (in Angstrom), charge = 0, multiplicity = 1:

       Center              X                  Y                   Z               Mass
    ------------   -----------------  -----------------  -----------------  -----------------
         N           -0.465179479168     1.059955341369    -0.311992143644    14.003074004430
         N            1.034821520832    -0.730839658631    -0.008925143644    14.003074004430
         C           -1.604548379168     0.509511541369    -0.112119543644    12.000000000000
         C            0.831145520832     0.585722341369    -0.150686143644    12.000000000000
         C            3.428851520832    -0.330407658631     0.116808856356    12.000000000000
         C            1.895105520832     1.512577341369    -0.176140143644    12.000000000000
         C            3.190392520832     1.044590341369    -0.039117143644    12.000000000000
         C           -2.792529479168     1.159913341369     0.262170856356    12.000000000000
         C           -1.860414479168    -0.983682658631    -0.375712143644    12.000000000000
         C            2.306600520832    -1.155521658631     0.121399856356    12.000000000000
         C            4.819328520832    -0.882606658631     0.266526856356    12.000000000000
         C           -4.049259479168     0.578578341369     0.409303856356    12.000000000000
         C           -3.122096479168    -1.555250658631    -0.205660143644    12.000000000000
         C           -4.223062479168    -0.787098658631     0.176486856356    12.000000000000
         H           -0.542086479168     2.068283341369    -0.236031143644     1.007825032230
         H            1.699264520832     2.576176341369    -0.298168143644     1.007825032230
         H            4.023132520832     1.746582341369    -0.052042143644     1.007825032230
         H           -2.661567479168     2.223138341369     0.462240856356     1.007825032230
         H           -1.013338479168    -1.586232658631    -0.673844143644     1.007825032230
         H            2.422481520832    -2.233635658631     0.237757856356     1.007825032230
         H            5.435760520832    -0.649123658631    -0.607555143644     1.007825032230
         H            5.319852520832    -0.464226658631     1.145674856356     1.007825032230
         H            4.794860520832    -1.969969658631     0.379648856356     1.007825032230
         H           -4.892237479168     1.197126341369     0.708653856356     1.007825032230
         H           -3.244482479168    -2.618927658631    -0.397701143644     1.007825032230
         H           -5.200593479168    -1.246236658631     0.298483856356     1.007825032230

  Basis Set: AUG-CC-PVTZ
    Blend: AUG-CC-PVTZ
  Basis Set: (AUG-CC-PVTZ AUX)
    Blend: AUG-CC-PVTZ-JKFIT
	 Reference Energy          =    -570.4688708280482388 [Eh]
	 Singles Energy            =      -0.0000000000000000 [Eh]
	 Same-Spin Energy          =      -0.6381127217743288 [Eh]
	 Opposite-Spin Energy      =      -1.9736147246228377 [Eh]
	 Correlation Energy        =      -2.6117274463971665 [Eh]
	 Total Energy              =    -573.0805982744453786 [Eh]

	 ================> DF-SCS-MP2 Energies <==================
	-----------------------------------------------------------
	 SCS Same-Spin Scale       =       0.3333333333333333 [-]
	 SCS Opposite-Spin Scale   =       1.2000000000000000 [-]
	 SCS Same-Spin Energy      =      -0.2127042405914429 [Eh]
	 SCS Opposite-Spin Energy  =      -2.3683376695474050 [Eh]
	 SCS Correlation Energy    =      -2.5810419101388478 [Eh]
	 SCS Total Energy          =    -573.0499127381871176 [Eh]
	-----------------------------------------------------------

  Dipole Moment: [D]
     X:     3.0775      Y:     2.0435      Z:     0.0899     Total:     3.6953

*** Psi4 exiting successfully. Buy a developer a beer!
