                               Psi4 1.4a3.dev225

  ==> Input File <==

--------------------------------------------------------------------------
#psi4
#
memory 32 gb

molecule  {
0 1
  N       -0.4914050     1.0723760    -0.3164170
  N        1.0085960    -0.7184190    -0.0133500
  C       -1.8014276     0.2831025    -0.1279057
  C        0.8049200     0.5981430    -0.1551110
  C        3.4026260    -0.3179870     0.1123840
  C        1.8688800     1.5249980    -0.1805650
  C        3.1641670     1.0570110    -0.0435420
  C       -2.8187550     1.1723340     0.2577460
  C       -1.8866400    -0.9712620    -0.3801370
  C        2.2803750    -1.1431010     0.1169750
  C        4.7931030    -0.8701860     0.2621020
  C       -4.0754850     0.5909990     0.4048790
  C       -3.1483220    -1.5428300    -0.2100850
  C       -4.2492880    -0.7746780     0.1720620
  H       -0.5683120     2.0807040    -0.2404560
  H        1.6730390     2.5885970    -0.3025930
  H        3.9969070     1.7590030    -0.0564670
  H       -2.6877930     2.2355590     0.4578160
  H       -1.0395640    -1.5738120    -0.6782690
  H        2.3962560    -2.2212150     0.2333330
  H        5.4095350    -0.6367030    -0.6119800
  H        5.2936270    -0.4518060     1.1412500
  H        4.7686350    -1.9575490     0.3752240
  H       -4.9184630     1.2095470     0.7042290
  H       -3.2707080    -2.6065070    -0.4021260
  H       -5.2268190    -1.2338160     0.2940590
units angstrom
no_reorient  #important for SAPT in psi4, default
symmetry c1  #important for SAPT in psi4, default
}

set PROPERTIES_ORIGIN ["COM"]
properties('MP2/aug-cc-pvtz', properties = ['dipole'])
--------------------------------------------------------------------------

    Molecular point group: c1
  Charge       = 0
  Multiplicity = 1
  Basis Set: AUG-CC-PVTZ
    Blend: AUG-CC-PVTZ
  Basis Set: (AUG-CC-PVTZ AUX)
    Blend: AUG-CC-PVTZ-JKFIT

    Orbital Energies [Eh]
    ---------------------

    Doubly Occupied:

       1A    -15.576061     2A    -15.545640     3A    -11.314198
       4A    -11.277514     5A    -11.267224     6A    -11.252588
       7A    -11.239151     8A    -11.237508     9A    -11.236923
      10A    -11.230764    11A    -11.228724    12A    -11.227996
      13A    -11.224403    14A    -11.211288    15A     -1.274597
      16A     -1.201969    17A     -1.147479    18A     -1.090371
      19A     -1.038341    20A     -1.026166    21A     -0.997837
      22A     -0.927809    23A     -0.859288    24A     -0.841785
      25A     -0.823512    26A     -0.796519    27A     -0.714587
      28A     -0.709865    29A     -0.668367    30A     -0.644571
      31A     -0.631254    32A     -0.626647    33A     -0.607504
      34A     -0.586533    35A     -0.582325    36A     -0.580889
      37A     -0.561328    38A     -0.555590    39A     -0.541971
      40A     -0.516973    41A     -0.513069    42A     -0.508340
      43A     -0.493242    44A     -0.445910    45A     -0.407244
      46A     -0.375682    47A     -0.347265    48A     -0.334291
      49A     -0.281089

  @DF-RHF Final Energy:  -570.47323892163354

   => Energetics <=

    Nuclear Repulsion Energy =            790.9190320835843977
    One-Electron Energy =               -2342.1241671815701011
    Two-Electron Energy =                 980.7318961763521656
    Total Energy =                       -570.4732389216335378
  Basis Set: (AUG-CC-PVTZ AUX)
    Blend: AUG-CC-PVTZ-RI
    Molecular point group: c1

    Geometry (in Angstrom), charge = 0, multiplicity = 1:

       Center              X                  Y                   Z               Mass
    ------------   -----------------  -----------------  -----------------  -----------------
         N           -0.454055938366     1.075522726739    -0.311251591965    14.003074004430
         N            1.045945061634    -0.715272273261    -0.008184591965    14.003074004430
         C           -1.764078538366     0.286249226739    -0.122740291965    12.000000000000
         C            0.842269061634     0.601289726739    -0.149945591965    12.000000000000
         C            3.439975061634    -0.314840273261     0.117549408035    12.000000000000
         C            1.906229061634     1.528144726739    -0.175399591965    12.000000000000
         C            3.201516061634     1.060157726739    -0.038376591965    12.000000000000
         C           -2.781405938366     1.175480726739     0.262911408035    12.000000000000
         C           -1.849290938366    -0.968115273261    -0.374971591965    12.000000000000
         C            2.317724061634    -1.139954273261     0.122140408035    12.000000000000
         C            4.830452061634    -0.867039273261     0.267267408035    12.000000000000
         C           -4.038135938366     0.594145726739     0.410044408035    12.000000000000
         C           -3.110972938366    -1.539683273261    -0.204919591965    12.000000000000
         C           -4.211938938366    -0.771531273261     0.177227408035    12.000000000000
         H           -0.530962938366     2.083850726739    -0.235290591965     1.007825032230
         H            1.710388061634     2.591743726739    -0.297427591965     1.007825032230
         H            4.034256061634     1.762149726739    -0.051301591965     1.007825032230
         H           -2.650443938366     2.238705726739     0.462981408035     1.007825032230
         H           -1.002214938366    -1.570665273261    -0.673103591965     1.007825032230
         H            2.433605061634    -2.218068273261     0.238498408035     1.007825032230
         H            5.446884061634    -0.633556273261    -0.606814591965     1.007825032230
         H            5.330976061634    -0.448659273261     1.146415408035     1.007825032230
         H            4.805984061634    -1.954402273261     0.380389408035     1.007825032230
         H           -4.881113938366     1.212693726739     0.709394408035     1.007825032230
         H           -3.233358938366    -2.603360273261    -0.396960591965     1.007825032230
         H           -5.189469938366    -1.230669273261     0.299224408035     1.007825032230

  Basis Set: AUG-CC-PVTZ
    Blend: AUG-CC-PVTZ
  Basis Set: (AUG-CC-PVTZ AUX)
    Blend: AUG-CC-PVTZ-JKFIT
	 Reference Energy          =    -570.4732389216335378 [Eh]
	 Singles Energy            =      -0.0000000000000000 [Eh]
	 Same-Spin Energy          =      -0.6356827042672962 [Eh]
	 Opposite-Spin Energy      =      -1.9710688171264403 [Eh]
	 Correlation Energy        =      -2.6067515213937367 [Eh]
	 Total Energy              =    -573.0799904430273273 [Eh]

	 ================> DF-SCS-MP2 Energies <==================
	-----------------------------------------------------------
	 SCS Same-Spin Scale       =       0.3333333333333333 [-]
	 SCS Opposite-Spin Scale   =       1.2000000000000000 [-]
	 SCS Same-Spin Energy      =      -0.2118942347557654 [Eh]
	 SCS Opposite-Spin Energy  =      -2.3652825805517281 [Eh]
	 SCS Correlation Energy    =      -2.5771768153074937 [Eh]
	 SCS Total Energy          =    -573.0504157369409768 [Eh]
	-----------------------------------------------------------

  Dipole Moment: [D]
     X:     0.7299      Y:     1.6202      Z:     0.2237     Total:     1.7910

*** Psi4 exiting successfully. Buy a developer a beer!
