                               Psi4 1.4a3.dev225

  ==> Input File <==

--------------------------------------------------------------------------
#psi4
#
memory 32 gb

molecule  {
0 1
  N       -0.4914050     1.0723760    -0.3164170
  N        1.0085960    -0.7184190    -0.0133500
  C       -1.7100270     0.3982770    -0.1243180
  C        0.8049200     0.5981430    -0.1551110
  C        3.4026260    -0.3179870     0.1123840
  C        1.8688800     1.5249980    -0.1805650
  C        3.1641670     1.0570110    -0.0435420
  C       -2.8187550     1.1723340     0.2577460
  C       -1.8866400    -0.9712620    -0.3801370
  C        2.2803750    -1.1431010     0.1169750
  C        4.7006255    -0.8334605     0.2521446
  C       -4.0754850     0.5909990     0.4048790
  C       -3.1483220    -1.5428300    -0.2100850
  C       -4.2492880    -0.7746780     0.1720620
  H       -0.5683120     2.0807040    -0.2404560
  H        1.6730390     2.5885970    -0.3025930
  H        3.9969070     1.7590030    -0.0564670
  H       -2.6877930     2.2355590     0.4578160
  H       -1.0395640    -1.5738120    -0.6782690
  H        2.3962560    -2.2212150     0.2333330
  H        5.4095350    -0.6367030    -0.6119800
  H        5.2936270    -0.4518060     1.1412500
  H        4.7686350    -1.9575490     0.3752240
  H       -4.9184630     1.2095470     0.7042290
  H       -3.2707080    -2.6065070    -0.4021260
  H       -5.2268190    -1.2338160     0.2940590
units angstrom
no_reorient  #important for SAPT in psi4, default
symmetry c1  #important for SAPT in psi4, default
}

set PROPERTIES_ORIGIN ["COM"]
properties('MP2/aug-cc-pvtz', properties = ['dipole'])
--------------------------------------------------------------------------

    Molecular point group: c1
  Charge       = 0
  Multiplicity = 1
  Basis Set: AUG-CC-PVTZ
    Blend: AUG-CC-PVTZ
  Basis Set: (AUG-CC-PVTZ AUX)
    Blend: AUG-CC-PVTZ-JKFIT

    Orbital Energies [Eh]
    ---------------------

    Doubly Occupied:

       1A    -15.589872     2A    -15.554214     3A    -11.323865
       4A    -11.281331     5A    -11.273330     6A    -11.259000
       7A    -11.239702     8A    -11.234056     9A    -11.233022
      10A    -11.230629    11A    -11.229985    12A    -11.228995
      13A    -11.221805    14A    -11.218814    15A     -1.293891
      16A     -1.221380    17A     -1.133544    18A     -1.106454
      19A     -1.051093    20A     -1.008497    21A     -0.995400
      22A     -0.932354    23A     -0.870381    24A     -0.838988
      25A     -0.821310    26A     -0.798443    27A     -0.724215
      28A     -0.716964    29A     -0.672510    30A     -0.658162
      31A     -0.645400    32A     -0.621827    33A     -0.597092
      34A     -0.595396    35A     -0.587905    36A     -0.579661
      37A     -0.567847    38A     -0.560467    39A     -0.543586
      40A     -0.518134    41A     -0.508003    42A     -0.503030
      43A     -0.487556    44A     -0.452323    45A     -0.415013
      46A     -0.381432    47A     -0.335413    48A     -0.330533
      49A     -0.276521

  @DF-RHF Final Energy:  -570.48647627344235

   => Energetics <=

    Nuclear Repulsion Energy =            792.6389391487197145
    One-Electron Energy =               -2345.3121350006476860
    Two-Electron Energy =                 982.1867195784857358
    Total Energy =                       -570.4864762734423493
  Basis Set: (AUG-CC-PVTZ AUX)
    Blend: AUG-CC-PVTZ-RI
    Molecular point group: c1

    Geometry (in Angstrom), charge = 0, multiplicity = 1:

       Center              X                  Y                   Z               Mass
    ------------   -----------------  -----------------  -----------------  -----------------
         N           -0.453985743925     1.065621588658    -0.310836402503    14.003074004430
         N            1.046015256075    -0.725173411342    -0.007769402503    14.003074004430
         C           -1.672607743925     0.391522588658    -0.118737402503    12.000000000000
         C            0.842339256075     0.591388588658    -0.149530402503    12.000000000000
         C            3.440045256075    -0.324741411342     0.117964597497    12.000000000000
         C            1.906299256075     1.518243588658    -0.174984402503    12.000000000000
         C            3.201586256075     1.050256588658    -0.037961402503    12.000000000000
         C           -2.781335743925     1.165579588658     0.263326597497    12.000000000000
         C           -1.849220743925    -0.978016411342    -0.374556402503    12.000000000000
         C            2.317794256075    -1.149855411342     0.122555597497    12.000000000000
         C            4.738044756075    -0.840214911342     0.257725197497    12.000000000000
         C           -4.038065743925     0.584244588658     0.410459597497    12.000000000000
         C           -3.110902743925    -1.549584411342    -0.204504402503    12.000000000000
         C           -4.211868743925    -0.781432411342     0.177642597497    12.000000000000
         H           -0.530892743925     2.073949588658    -0.234875402503     1.007825032230
         H            1.710458256075     2.581842588658    -0.297012402503     1.007825032230
         H            4.034326256075     1.752248588658    -0.050886402503     1.007825032230
         H           -2.650373743925     2.228804588658     0.463396597497     1.007825032230
         H           -1.002144743925    -1.580566411342    -0.672688402503     1.007825032230
         H            2.433675256075    -2.227969411342     0.238913597497     1.007825032230
         H            5.446954256075    -0.643457411342    -0.606399402503     1.007825032230
         H            5.331046256075    -0.458560411342     1.146830597497     1.007825032230
         H            4.806054256075    -1.964303411342     0.380804597497     1.007825032230
         H           -4.881043743925     1.202792588658     0.709809597497     1.007825032230
         H           -3.233288743925    -2.613261411342    -0.396545402503     1.007825032230
         H           -5.189399743925    -1.240570411342     0.299639597497     1.007825032230

  Basis Set: AUG-CC-PVTZ
    Blend: AUG-CC-PVTZ
  Basis Set: (AUG-CC-PVTZ AUX)
    Blend: AUG-CC-PVTZ-JKFIT
	 Reference Energy          =    -570.4864762734423493 [Eh]
	 Singles Energy            =      -0.0000000000000000 [Eh]
	 Same-Spin Energy          =      -0.6376759253868647 [Eh]
	 Opposite-Spin Energy      =      -1.9723719983633579 [Eh]
	 Correlation Energy        =      -2.6100479237502228 [Eh]
	 Total Energy              =    -573.0965241971925934 [Eh]

	 ================> DF-SCS-MP2 Energies <==================
	-----------------------------------------------------------
	 SCS Same-Spin Scale       =       0.3333333333333333 [-]
	 SCS Opposite-Spin Scale   =       1.2000000000000000 [-]
	 SCS Same-Spin Energy      =      -0.2125586417956216 [Eh]
	 SCS Opposite-Spin Energy  =      -2.3668463980360293 [Eh]
	 SCS Correlation Energy    =      -2.5794050398316508 [Eh]
	 SCS Total Energy          =    -573.0658813132739624 [Eh]
	-----------------------------------------------------------

  Dipole Moment: [D]
     X:     1.8202      Y:     1.8692      Z:     0.1592     Total:     2.6139

*** Psi4 exiting successfully. Buy a developer a beer!
