                               Psi4 1.4a3.dev225

  ==> Input File <==

--------------------------------------------------------------------------
#psi4
#
memory 32 gb

molecule  {
0 1
  N       -0.4914050     1.0723760    -0.3164170
  N        1.0085960    -0.7184190    -0.0133500
  C       -1.7100270     0.3982770    -0.1243180
  C        0.8049200     0.5981430    -0.1551110
  C        3.3966016    -0.3473343     0.0692930
  C        1.8688800     1.5249980    -0.1805650
  C        3.1641670     1.0570110    -0.0435420
  C       -2.8187550     1.1723340     0.2577460
  C       -1.8866400    -0.9712620    -0.3801370
  C        2.2803750    -1.1431010     0.1169750
  C        4.7931030    -0.8701860     0.2621020
  C       -4.0754850     0.5909990     0.4048790
  C       -3.1483220    -1.5428300    -0.2100850
  C       -4.2492880    -0.7746780     0.1720620
  H       -0.5683120     2.0807040    -0.2404560
  H        1.6730390     2.5885970    -0.3025930
  H        3.9969070     1.7590030    -0.0564670
  H       -2.6877930     2.2355590     0.4578160
  H       -1.0395640    -1.5738120    -0.6782690
  H        2.3962560    -2.2212150     0.2333330
  H        5.4095350    -0.6367030    -0.6119800
  H        5.2936270    -0.4518060     1.1412500
  H        4.7686350    -1.9575490     0.3752240
  H       -4.9184630     1.2095470     0.7042290
  H       -3.2707080    -2.6065070    -0.4021260
  H       -5.2268190    -1.2338160     0.2940590
units angstrom
no_reorient  #important for SAPT in psi4, default
symmetry c1  #important for SAPT in psi4, default
}

set PROPERTIES_ORIGIN ["COM"]
properties('MP2/aug-cc-pvtz', properties = ['dipole'])
--------------------------------------------------------------------------

    Molecular point group: c1
  Charge       = 0
  Multiplicity = 1
  Basis Set: AUG-CC-PVTZ
    Blend: AUG-CC-PVTZ
  Basis Set: (AUG-CC-PVTZ AUX)
    Blend: AUG-CC-PVTZ-JKFIT

    Orbital Energies [Eh]
    ---------------------

    Doubly Occupied:

       1A    -15.589873     2A    -15.551999     3A    -11.323747
       4A    -11.281124     5A    -11.268656     6A    -11.261576
       7A    -11.240031     8A    -11.234752     9A    -11.233880
      10A    -11.230405    11A    -11.228890    12A    -11.228688
      13A    -11.221693    14A    -11.218615    15A     -1.293227
      16A     -1.220138    17A     -1.133065    18A     -1.094380
      19A     -1.047480    20A     -1.008208    21A     -0.993391
      22A     -0.935497    23A     -0.868290    24A     -0.841308
      25A     -0.820507    26A     -0.798761    27A     -0.723738
      28A     -0.715573    29A     -0.670377    30A     -0.653563
      31A     -0.636772    32A     -0.621417    33A     -0.595648
      34A     -0.594166    35A     -0.588269    36A     -0.579626
      37A     -0.570710    38A     -0.562955    39A     -0.548100
      40A     -0.516757    41A     -0.508350    42A     -0.503481
      43A     -0.487400    44A     -0.454256    45A     -0.414812
      46A     -0.379673    47A     -0.337685    48A     -0.330679
      49A     -0.278173

  @DF-RHF Final Energy:  -570.49781475700411

   => Energetics <=

    Nuclear Repulsion Energy =            790.7710070299131075
    One-Electron Energy =               -2341.6569225078237650
    Two-Electron Energy =                 980.3881007209065501
    Total Energy =                       -570.4978147570041074
  Basis Set: (AUG-CC-PVTZ AUX)
    Blend: AUG-CC-PVTZ-RI
    Molecular point group: c1

    Geometry (in Angstrom), charge = 0, multiplicity = 1:

       Center              X                  Y                   Z               Mass
    ------------   -----------------  -----------------  -----------------  -----------------
         N           -0.459620925497     1.069928342550    -0.308676689871    14.003074004430
         N            1.040380074503    -0.720866657450    -0.005609689871    14.003074004430
         C           -1.678242925497     0.395829342550    -0.116577689871    12.000000000000
         C            0.836704074503     0.595695342550    -0.147370689871    12.000000000000
         C            3.428385674503    -0.349781957450     0.077033310129    12.000000000000
         C            1.900664074503     1.522550342550    -0.172824689871    12.000000000000
         C            3.195951074503     1.054563342550    -0.035801689871    12.000000000000
         C           -2.786970925497     1.169886342550     0.265486310129    12.000000000000
         C           -1.854855925497    -0.973709657450    -0.372396689871    12.000000000000
         C            2.312159074503    -1.145548657450     0.124715310129    12.000000000000
         C            4.824887074503    -0.872633657450     0.269842310129    12.000000000000
         C           -4.043700925497     0.588551342550     0.412619310129    12.000000000000
         C           -3.116537925497    -1.545277657450    -0.202344689871    12.000000000000
         C           -4.217503925497    -0.777125657450     0.179802310129    12.000000000000
         H           -0.536527925497     2.078256342550    -0.232715689871     1.007825032230
         H            1.704823074503     2.586149342550    -0.294852689871     1.007825032230
         H            4.028691074503     1.756555342550    -0.048726689871     1.007825032230
         H           -2.656008925497     2.233111342550     0.465556310129     1.007825032230
         H           -1.007779925497    -1.576259657450    -0.670528689871     1.007825032230
         H            2.428040074503    -2.223662657450     0.241073310129     1.007825032230
         H            5.441319074503    -0.639150657450    -0.604239689871     1.007825032230
         H            5.325411074503    -0.454253657450     1.148990310129     1.007825032230
         H            4.800419074503    -1.959996657450     0.382964310129     1.007825032230
         H           -4.886678925497     1.207099342550     0.711969310129     1.007825032230
         H           -3.238923925497    -2.608954657450    -0.394385689871     1.007825032230
         H           -5.195034925497    -1.236263657450     0.301799310129     1.007825032230

  Basis Set: AUG-CC-PVTZ
    Blend: AUG-CC-PVTZ
  Basis Set: (AUG-CC-PVTZ AUX)
    Blend: AUG-CC-PVTZ-JKFIT
	 Reference Energy          =    -570.4978147570041074 [Eh]
	 Singles Energy            =      -0.0000000000000000 [Eh]
	 Same-Spin Energy          =      -0.6361626749027165 [Eh]
	 Opposite-Spin Energy      =      -1.9707818124609460 [Eh]
	 Correlation Energy        =      -2.6069444873636627 [Eh]
	 Total Energy              =    -573.1047592443677559 [Eh]

	 ================> DF-SCS-MP2 Energies <==================
	-----------------------------------------------------------
	 SCS Same-Spin Scale       =       0.3333333333333333 [-]
	 SCS Opposite-Spin Scale   =       1.2000000000000000 [-]
	 SCS Same-Spin Energy      =      -0.2120542249675721 [Eh]
	 SCS Opposite-Spin Energy  =      -2.3649381749531351 [Eh]
	 SCS Correlation Energy    =      -2.5769923999207074 [Eh]
	 SCS Total Energy          =    -573.0748071569248623 [Eh]
	-----------------------------------------------------------

  Dipole Moment: [D]
     X:     1.8309      Y:     1.8961      Z:     0.1725     Total:     2.6415

*** Psi4 exiting successfully. Buy a developer a beer!
