                               Psi4 1.4a3.dev225

  ==> Input File <==

--------------------------------------------------------------------------
#psi4
#
memory 32 gb

molecule  {
0 1
  N       -0.4914050     1.0723760    -0.3164170
  N        1.0085960    -0.7184190    -0.0133500
  C       -1.7100270     0.3982770    -0.1243180
  C        0.8049200     0.5981430    -0.1551110
  C        3.4026260    -0.3179870     0.1123840
  C        1.8688800     1.5249980    -0.1805650
  C        3.0705793     1.0908242    -0.0534422
  C       -2.8187550     1.1723340     0.2577460
  C       -1.8866400    -0.9712620    -0.3801370
  C        2.2803750    -1.1431010     0.1169750
  C        4.7931030    -0.8701860     0.2621020
  C       -4.0754850     0.5909990     0.4048790
  C       -3.1483220    -1.5428300    -0.2100850
  C       -4.2492880    -0.7746780     0.1720620
  H       -0.5683120     2.0807040    -0.2404560
  H        1.6730390     2.5885970    -0.3025930
  H        3.9969070     1.7590030    -0.0564670
  H       -2.6877930     2.2355590     0.4578160
  H       -1.0395640    -1.5738120    -0.6782690
  H        2.3962560    -2.2212150     0.2333330
  H        5.4095350    -0.6367030    -0.6119800
  H        5.2936270    -0.4518060     1.1412500
  H        4.7686350    -1.9575490     0.3752240
  H       -4.9184630     1.2095470     0.7042290
  H       -3.2707080    -2.6065070    -0.4021260
  H       -5.2268190    -1.2338160     0.2940590
units angstrom
no_reorient  #important for SAPT in psi4, default
symmetry c1  #important for SAPT in psi4, default
}

set PROPERTIES_ORIGIN ["COM"]
properties('MP2/aug-cc-pvtz', properties = ['dipole'])
--------------------------------------------------------------------------

    Molecular point group: c1
  Charge       = 0
  Multiplicity = 1
  Basis Set: AUG-CC-PVTZ
    Blend: AUG-CC-PVTZ
  Basis Set: (AUG-CC-PVTZ AUX)
    Blend: AUG-CC-PVTZ-JKFIT

    Orbital Energies [Eh]
    ---------------------

    Doubly Occupied:

       1A    -15.592480     2A    -15.549362     3A    -11.325778
       4A    -11.281919     5A    -11.266463     6A    -11.254680
       7A    -11.236102     8A    -11.234624     9A    -11.231051
      10A    -11.230751    11A    -11.230024    12A    -11.229505
      13A    -11.222692    14A    -11.219519    15A     -1.294856
      16A     -1.220512    17A     -1.133731    18A     -1.101583
      19A     -1.051884    20A     -1.009037    21A     -0.997841
      22A     -0.933526    23A     -0.860986    24A     -0.842958
      25A     -0.821509    26A     -0.797281    27A     -0.722348
      28A     -0.717080    29A     -0.673530    30A     -0.654414
      31A     -0.643464    32A     -0.618345    33A     -0.593706
      34A     -0.593354    35A     -0.587665    36A     -0.580281
      37A     -0.569272    38A     -0.559465    39A     -0.545292
      40A     -0.517543    41A     -0.509505    42A     -0.503910
      43A     -0.487527    44A     -0.454712    45A     -0.409026
      46A     -0.394831    47A     -0.334941    48A     -0.330330
      49A     -0.277507

  @DF-RHF Final Energy:  -570.48616969092097

   => Energetics <=

    Nuclear Repulsion Energy =            791.8406725280907494
    One-Electron Energy =               -2343.7562747546348874
    Two-Electron Energy =                 981.4294325356232775
    Total Energy =                       -570.4861696909209741
  Basis Set: (AUG-CC-PVTZ AUX)
    Blend: AUG-CC-PVTZ-RI
    Molecular point group: c1

    Geometry (in Angstrom), charge = 0, multiplicity = 1:

       Center              X                  Y                   Z               Mass
    ------------   -----------------  -----------------  -----------------  -----------------
         N           -0.453913378925     1.065811418048    -0.310840130911    14.003074004430
         N            1.046087621075    -0.724983581952    -0.007773130911    14.003074004430
         C           -1.672535378925     0.391712418048    -0.118741130911    12.000000000000
         C            0.842411621075     0.591578418048    -0.149534130911    12.000000000000
         C            3.440117621075    -0.324551581952     0.117960869089    12.000000000000
         C            1.906371621075     1.518433418048    -0.174988130911    12.000000000000
         C            3.108070921075     1.084259618048    -0.047865330911    12.000000000000
         C           -2.781263378925     1.165769418048     0.263322869089    12.000000000000
         C           -1.849148378925    -0.977826581952    -0.374560130911    12.000000000000
         C            2.317866621075    -1.149665581952     0.122551869089    12.000000000000
         C            4.830594621075    -0.876750581952     0.267678869089    12.000000000000
         C           -4.037993378925     0.584434418048     0.410455869089    12.000000000000
         C           -3.110830378925    -1.549394581952    -0.204508130911    12.000000000000
         C           -4.211796378925    -0.781242581952     0.177638869089    12.000000000000
         H           -0.530820378925     2.074139418048    -0.234879130911     1.007825032230
         H            1.710530621075     2.582032418048    -0.297016130911     1.007825032230
         H            4.034398621075     1.752438418048    -0.050890130911     1.007825032230
         H           -2.650301378925     2.228994418048     0.463392869089     1.007825032230
         H           -1.002072378925    -1.580376581952    -0.672692130911     1.007825032230
         H            2.433747621075    -2.227779581952     0.238909869089     1.007825032230
         H            5.447026621075    -0.643267581952    -0.606403130911     1.007825032230
         H            5.331118621075    -0.458370581952     1.146826869089     1.007825032230
         H            4.806126621075    -1.964113581952     0.380800869089     1.007825032230
         H           -4.880971378925     1.202982418048     0.709805869089     1.007825032230
         H           -3.233216378925    -2.613071581952    -0.396549130911     1.007825032230
         H           -5.189327378925    -1.240380581952     0.299635869089     1.007825032230

  Basis Set: AUG-CC-PVTZ
    Blend: AUG-CC-PVTZ
  Basis Set: (AUG-CC-PVTZ AUX)
    Blend: AUG-CC-PVTZ-JKFIT
	 Reference Energy          =    -570.4861696909209741 [Eh]
	 Singles Energy            =      -0.0000000000000000 [Eh]
	 Same-Spin Energy          =      -0.6356958538439753 [Eh]
	 Opposite-Spin Energy      =      -1.9705522115857457 [Eh]
	 Correlation Energy        =      -2.6062480654297211 [Eh]
	 Total Energy              =    -573.0924177563506419 [Eh]

	 ================> DF-SCS-MP2 Energies <==================
	-----------------------------------------------------------
	 SCS Same-Spin Scale       =       0.3333333333333333 [-]
	 SCS Opposite-Spin Scale   =       1.2000000000000000 [-]
	 SCS Same-Spin Energy      =      -0.2118986179479918 [Eh]
	 SCS Opposite-Spin Energy  =      -2.3646626539028945 [Eh]
	 SCS Correlation Energy    =      -2.5765612718508861 [Eh]
	 SCS Total Energy          =    -573.0627309627718660 [Eh]
	-----------------------------------------------------------

  Dipole Moment: [D]
     X:     1.7341      Y:     1.8941      Z:     0.1546     Total:     2.5727

*** Psi4 exiting successfully. Buy a developer a beer!
