                               Psi4 1.4a3.dev225

  ==> Input File <==

--------------------------------------------------------------------------
#psi4
#
memory 32 gb

molecule  {
0 1
  N       -0.4914050     1.0723760    -0.3164170
  N        1.0085960    -0.7184190    -0.0133500
  C       -1.7100270     0.3982770    -0.1243180
  C        0.7116417     0.6322669    -0.1667179
  C        3.4026260    -0.3179870     0.1123840
  C        1.8688800     1.5249980    -0.1805650
  C        3.1641670     1.0570110    -0.0435420
  C       -2.8187550     1.1723340     0.2577460
  C       -1.8866400    -0.9712620    -0.3801370
  C        2.2803750    -1.1431010     0.1169750
  C        4.7931030    -0.8701860     0.2621020
  C       -4.0754850     0.5909990     0.4048790
  C       -3.1483220    -1.5428300    -0.2100850
  C       -4.2492880    -0.7746780     0.1720620
  H       -0.5683120     2.0807040    -0.2404560
  H        1.6730390     2.5885970    -0.3025930
  H        3.9969070     1.7590030    -0.0564670
  H       -2.6877930     2.2355590     0.4578160
  H       -1.0395640    -1.5738120    -0.6782690
  H        2.3962560    -2.2212150     0.2333330
  H        5.4095350    -0.6367030    -0.6119800
  H        5.2936270    -0.4518060     1.1412500
  H        4.7686350    -1.9575490     0.3752240
  H       -4.9184630     1.2095470     0.7042290
  H       -3.2707080    -2.6065070    -0.4021260
  H       -5.2268190    -1.2338160     0.2940590
units angstrom
no_reorient  #important for SAPT in psi4, default
symmetry c1  #important for SAPT in psi4, default
}

set PROPERTIES_ORIGIN ["COM"]
properties('MP2/aug-cc-pvtz', properties = ['dipole'])
--------------------------------------------------------------------------

    Molecular point group: c1
  Charge       = 0
  Multiplicity = 1
  Basis Set: AUG-CC-PVTZ
    Blend: AUG-CC-PVTZ
  Basis Set: (AUG-CC-PVTZ AUX)
    Blend: AUG-CC-PVTZ-JKFIT

    Orbital Energies [Eh]
    ---------------------

    Doubly Occupied:

       1A    -15.603877     2A    -15.545103     3A    -11.326733
       4A    -11.288558     5A    -11.266391     6A    -11.252013
       7A    -11.239947     8A    -11.237560     9A    -11.236040
      10A    -11.235602    11A    -11.229394    12A    -11.226323
      13A    -11.224298    14A    -11.222333    15A     -1.318092
      16A     -1.210617    17A     -1.143701    18A     -1.084075
      19A     -1.041105    20A     -1.014974    21A     -0.999738
      22A     -0.929354    23A     -0.864169    24A     -0.851256
      25A     -0.823467    26A     -0.796914    27A     -0.737617
      28A     -0.725862    29A     -0.675767    30A     -0.644138
      31A     -0.634641    32A     -0.622611    33A     -0.604142
      34A     -0.595764    35A     -0.593003    36A     -0.585172
      37A     -0.571330    38A     -0.557045    39A     -0.538583
      40A     -0.518147    41A     -0.507881    42A     -0.505460
      43A     -0.493533    44A     -0.461385    45A     -0.395336
      46A     -0.373001    47A     -0.338919    48A     -0.334158
      49A     -0.272264

  @DF-RHF Final Energy:  -570.48277655043023

   => Energetics <=

    Nuclear Repulsion Energy =            790.7762430020349029
    One-Electron Energy =               -2341.5232597662575245
    Two-Electron Energy =                 980.2642402137925046
    Total Energy =                       -570.4827765504302306
  Basis Set: (AUG-CC-PVTZ AUX)
    Blend: AUG-CC-PVTZ-RI
    Molecular point group: c1

    Geometry (in Angstrom), charge = 0, multiplicity = 1:

       Center              X                  Y                   Z               Mass
    ------------   -----------------  -----------------  -----------------  -----------------
         N           -0.453933546220     1.065791166017    -0.310728884878    14.003074004430
         N            1.046067453780    -0.725003833983    -0.007661884878    14.003074004430
         C           -1.672555546220     0.391692166017    -0.118629884878    12.000000000000
         C            0.749113153780     0.625682066017    -0.161029784878    12.000000000000
         C            3.440097453780    -0.324571833983     0.118072115122    12.000000000000
         C            1.906351453780     1.518413166017    -0.174876884878    12.000000000000
         C            3.201638453780     1.050426166017    -0.037853884878    12.000000000000
         C           -2.781283546220     1.165749166017     0.263434115122    12.000000000000
         C           -1.849168546220    -0.977846833983    -0.374448884878    12.000000000000
         C            2.317846453780    -1.149685833983     0.122663115122    12.000000000000
         C            4.830574453780    -0.876770833983     0.267790115122    12.000000000000
         C           -4.038013546220     0.584414166017     0.410567115122    12.000000000000
         C           -3.110850546220    -1.549414833983    -0.204396884878    12.000000000000
         C           -4.211816546220    -0.781262833983     0.177750115122    12.000000000000
         H           -0.530840546220     2.074119166017    -0.234767884878     1.007825032230
         H            1.710510453780     2.582012166017    -0.296904884878     1.007825032230
         H            4.034378453780     1.752418166017    -0.050778884878     1.007825032230
         H           -2.650321546220     2.228974166017     0.463504115122     1.007825032230
         H           -1.002092546220    -1.580396833983    -0.672580884878     1.007825032230
         H            2.433727453780    -2.227799833983     0.239021115122     1.007825032230
         H            5.447006453780    -0.643287833983    -0.606291884878     1.007825032230
         H            5.331098453780    -0.458390833983     1.146938115122     1.007825032230
         H            4.806106453780    -1.964133833983     0.380912115122     1.007825032230
         H           -4.880991546220     1.202962166017     0.709917115122     1.007825032230
         H           -3.233236546220    -2.613091833983    -0.396437884878     1.007825032230
         H           -5.189347546220    -1.240400833983     0.299747115122     1.007825032230

  Basis Set: AUG-CC-PVTZ
    Blend: AUG-CC-PVTZ
  Basis Set: (AUG-CC-PVTZ AUX)
    Blend: AUG-CC-PVTZ-JKFIT
	 Reference Energy          =    -570.4827765504302306 [Eh]
	 Singles Energy            =      -0.0000000000000000 [Eh]
	 Same-Spin Energy          =      -0.6372032176675402 [Eh]
	 Opposite-Spin Energy      =      -1.9722273002923341 [Eh]
	 Correlation Energy        =      -2.6094305179598742 [Eh]
	 Total Energy              =    -573.0922070683900529 [Eh]

	 ================> DF-SCS-MP2 Energies <==================
	-----------------------------------------------------------
	 SCS Same-Spin Scale       =       0.3333333333333333 [-]
	 SCS Opposite-Spin Scale   =       1.2000000000000000 [-]
	 SCS Same-Spin Energy      =      -0.2124010725558467 [Eh]
	 SCS Opposite-Spin Energy  =      -2.3666727603508009 [Eh]
	 SCS Correlation Energy    =      -2.5790738329066474 [Eh]
	 SCS Total Energy          =    -573.0618503833368322 [Eh]
	-----------------------------------------------------------

  Dipole Moment: [D]
     X:     0.6278      Y:     1.9782      Z:     0.0874     Total:     2.0772

*** Psi4 exiting successfully. Buy a developer a beer!
