                               Psi4 1.4a3.dev225

  ==> Input File <==

--------------------------------------------------------------------------
#psi4
#
memory 32 gb

molecule  {
0 1
  N       -0.4914050     1.0723760    -0.3164170
  N        1.0085960    -0.7184190    -0.0133500
  C       -1.7100270     0.3982770    -0.1243180
  C        0.8049200     0.5981430    -0.1551110
  C        3.4026260    -0.3179870     0.1123840
  C        1.8688800     1.5249980    -0.1805650
  C        3.1641670     1.0570110    -0.0435420
  C       -2.8187550     1.1723340     0.2577460
  C       -1.8866400    -0.9712620    -0.3801370
  C        2.2803750    -1.1431010     0.1169750
  C        4.7931030    -0.8701860     0.2621020
  C       -4.0754850     0.5909990     0.4048790
  C       -3.1483220    -1.5428300    -0.2100850
  C       -4.2492880    -0.7746780     0.1720620
  H       -0.5683120     2.0807040    -0.2404560
  H        1.6766379     2.5690517    -0.3003505
  H        3.9969070     1.7590030    -0.0564670
  H       -2.6877930     2.2355590     0.4578160
  H       -1.0395640    -1.5738120    -0.6782690
  H        2.3962560    -2.2212150     0.2333330
  H        5.4095350    -0.6367030    -0.6119800
  H        5.2936270    -0.4518060     1.1412500
  H        4.7686350    -1.9575490     0.3752240
  H       -4.9184630     1.2095470     0.7042290
  H       -3.2707080    -2.6065070    -0.4021260
  H       -5.2268190    -1.2338160     0.2940590
units angstrom
no_reorient  #important for SAPT in psi4, default
symmetry c1  #important for SAPT in psi4, default
}

set PROPERTIES_ORIGIN ["COM"]
properties('MP2/aug-cc-pvtz', properties = ['dipole'])
--------------------------------------------------------------------------

    Molecular point group: c1
  Charge       = 0
  Multiplicity = 1
  Basis Set: AUG-CC-PVTZ
    Blend: AUG-CC-PVTZ
  Basis Set: (AUG-CC-PVTZ AUX)
    Blend: AUG-CC-PVTZ-JKFIT

    Orbital Energies [Eh]
    ---------------------

    Doubly Occupied:

       1A    -15.589161     2A    -15.553546     3A    -11.322784
       4A    -11.280954     5A    -11.272682     6A    -11.258250
       7A    -11.236489     8A    -11.235149     9A    -11.233735
      10A    -11.230307    11A    -11.228833    12A    -11.228607
      13A    -11.221450    14A    -11.218414    15A     -1.293087
      16A     -1.220046    17A     -1.132809    18A     -1.097003
      19A     -1.046384    20A     -1.008048    21A     -0.993128
      22A     -0.934818    23A     -0.868995    24A     -0.841593
      25A     -0.821558    26A     -0.797931    27A     -0.723733
      28A     -0.715670    29A     -0.670588    30A     -0.653980
      31A     -0.639670    32A     -0.621633    33A     -0.595729
      34A     -0.593646    35A     -0.588457    36A     -0.579587
      37A     -0.569324    38A     -0.562601    39A     -0.546753
      40A     -0.519433    41A     -0.511191    42A     -0.504237
      43A     -0.487375    44A     -0.454086    45A     -0.414358
      46A     -0.381276    47A     -0.336529    48A     -0.330477
      49A     -0.276895

  @DF-RHF Final Energy:  -570.49909947716185

   => Energetics <=

    Nuclear Repulsion Energy =            790.8730204157546950
    One-Electron Energy =               -2341.8582639262035627
    Two-Electron Energy =                 980.4861440332871325
    Total Energy =                       -570.4990994771618489
  Basis Set: (AUG-CC-PVTZ AUX)
    Blend: AUG-CC-PVTZ-RI
    Molecular point group: c1

    Geometry (in Angstrom), charge = 0, multiplicity = 1:

       Center              X                  Y                   Z               Mass
    ------------   -----------------  -----------------  -----------------  -----------------
         N           -0.460033309210     1.068122425820    -0.311497721436    14.003074004430
         N            1.039967690790    -0.722672574180    -0.008430721436    14.003074004430
         C           -1.678655309210     0.394023425820    -0.119398721436    12.000000000000
         C            0.836291690790     0.593889425820    -0.150191721436    12.000000000000
         C            3.433997690790    -0.322240574180     0.117303278564    12.000000000000
         C            1.900251690790     1.520744425820    -0.175645721436    12.000000000000
         C            3.195538690790     1.052757425820    -0.038622721436    12.000000000000
         C           -2.787383309210     1.168080425820     0.262665278564    12.000000000000
         C           -1.855268309210    -0.975515574180    -0.375217721436    12.000000000000
         C            2.311746690790    -1.147354574180     0.121894278564    12.000000000000
         C            4.824474690790    -0.874439574180     0.267021278564    12.000000000000
         C           -4.044113309210     0.586745425820     0.409798278564    12.000000000000
         C           -3.116950309210    -1.547083574180    -0.205165721436    12.000000000000
         C           -4.217916309210    -0.778931574180     0.176981278564    12.000000000000
         H           -0.536940309210     2.076450425820    -0.235536721436     1.007825032230
         H            1.708009590790     2.564798125820    -0.295431221436     1.007825032230
         H            4.028278690790     1.754749425820    -0.051547721436     1.007825032230
         H           -2.656421309210     2.231305425820     0.462735278564     1.007825032230
         H           -1.008192309210    -1.578065574180    -0.673349721436     1.007825032230
         H            2.427627690790    -2.225468574180     0.238252278564     1.007825032230
         H            5.440906690791    -0.640956574180    -0.607060721436     1.007825032230
         H            5.324998690790    -0.456059574180     1.146169278564     1.007825032230
         H            4.800006690790    -1.961802574180     0.380143278564     1.007825032230
         H           -4.887091309210     1.205293425820     0.709148278564     1.007825032230
         H           -3.239336309209    -2.610760574180    -0.397206721436     1.007825032230
         H           -5.195447309210    -1.238069574180     0.298978278564     1.007825032230

  Basis Set: AUG-CC-PVTZ
    Blend: AUG-CC-PVTZ
  Basis Set: (AUG-CC-PVTZ AUX)
    Blend: AUG-CC-PVTZ-JKFIT
	 Reference Energy          =    -570.4990994771618489 [Eh]
	 Singles Energy            =      -0.0000000000000000 [Eh]
	 Same-Spin Energy          =      -0.6363642578377277 [Eh]
	 Opposite-Spin Energy      =      -1.9707290993284410 [Eh]
	 Correlation Energy        =      -2.6070933571661685 [Eh]
	 Total Energy              =    -573.1061928343279988 [Eh]

	 ================> DF-SCS-MP2 Energies <==================
	-----------------------------------------------------------
	 SCS Same-Spin Scale       =       0.3333333333333333 [-]
	 SCS Opposite-Spin Scale   =       1.2000000000000000 [-]
	 SCS Same-Spin Energy      =      -0.2121214192792426 [Eh]
	 SCS Opposite-Spin Energy  =      -2.3648749191941292 [Eh]
	 SCS Correlation Energy    =      -2.5769963384733718 [Eh]
	 SCS Total Energy          =    -573.0760958156351990 [Eh]
	-----------------------------------------------------------

  Dipole Moment: [D]
     X:     1.8672      Y:     1.8601      Z:     0.1622     Total:     2.6406

*** Psi4 exiting successfully. Buy a developer a beer!
