                               Psi4 1.4a3.dev225

  ==> Input File <==

--------------------------------------------------------------------------
#psi4
#
memory 32 gb

molecule  {
0 1
  N       -0.4914050     1.0723760    -0.3164170
  N        1.0085960    -0.7184190    -0.0133500
  C       -1.7100270     0.3982770    -0.1243180
  C        0.8049200     0.5981430    -0.1551110
  C        3.4026260    -0.3179870     0.1123840
  C        1.8688800     1.5249980    -0.1805650
  C        3.1641670     1.0570110    -0.0435420
  C       -2.8976602     1.2274216     0.2849365
  C       -1.8866400    -0.9712620    -0.3801370
  C        2.2803750    -1.1431010     0.1169750
  C        4.7931030    -0.8701860     0.2621020
  C       -4.0754850     0.5909990     0.4048790
  C       -3.1483220    -1.5428300    -0.2100850
  C       -4.2492880    -0.7746780     0.1720620
  H       -0.5683120     2.0807040    -0.2404560
  H        1.6730390     2.5885970    -0.3025930
  H        3.9969070     1.7590030    -0.0564670
  H       -2.6877930     2.2355590     0.4578160
  H       -1.0395640    -1.5738120    -0.6782690
  H        2.3962560    -2.2212150     0.2333330
  H        5.4095350    -0.6367030    -0.6119800
  H        5.2936270    -0.4518060     1.1412500
  H        4.7686350    -1.9575490     0.3752240
  H       -4.9184630     1.2095470     0.7042290
  H       -3.2707080    -2.6065070    -0.4021260
  H       -5.2268190    -1.2338160     0.2940590
units angstrom
no_reorient  #important for SAPT in psi4, default
symmetry c1  #important for SAPT in psi4, default
}

set PROPERTIES_ORIGIN ["COM"]
properties('MP2/aug-cc-pvtz', properties = ['dipole'])
--------------------------------------------------------------------------

    Molecular point group: c1
  Charge       = 0
  Multiplicity = 1
  Basis Set: AUG-CC-PVTZ
    Blend: AUG-CC-PVTZ
  Basis Set: (AUG-CC-PVTZ AUX)
    Blend: AUG-CC-PVTZ-JKFIT

    Orbital Energies [Eh]
    ---------------------

    Doubly Occupied:

       1A    -15.592229     2A    -15.554616     3A    -11.323823
       4A    -11.289808     5A    -11.273319     6A    -11.259055
       7A    -11.239914     8A    -11.236227     9A    -11.231328
      10A    -11.230307    11A    -11.229476    12A    -11.228242
      13A    -11.219228    14A    -11.215395    15A     -1.293481
      16A     -1.219081    17A     -1.130481    18A     -1.097655
      19A     -1.045266    20A     -1.015313    21A     -0.985705
      22A     -0.935355    23A     -0.869779    24A     -0.839853
      25A     -0.823851    26A     -0.794814    27A     -0.723332
      28A     -0.714555    29A     -0.677995    30A     -0.654991
      31A     -0.639512    32A     -0.617171    33A     -0.598166
      34A     -0.591931    35A     -0.588552    36A     -0.581484
      37A     -0.569430    38A     -0.561639    39A     -0.547485
      40A     -0.520182    41A     -0.512300    42A     -0.506466
      43A     -0.477201    44A     -0.454512    45A     -0.414317
      46A     -0.381947    47A     -0.339283    48A     -0.331580
      49A     -0.272180

  @DF-RHF Final Energy:  -570.48744551559537

   => Energetics <=

    Nuclear Repulsion Energy =            789.2623524732816804
    One-Electron Energy =               -2338.5999755734533210
    Two-Electron Energy =                 978.8501775845762722
    Total Energy =                       -570.4874455155953683
  Basis Set: (AUG-CC-PVTZ AUX)
    Blend: AUG-CC-PVTZ-RI
    Molecular point group: c1

    Geometry (in Angstrom), charge = 0, multiplicity = 1:

       Center              X                  Y                   Z               Mass
    ------------   -----------------  -----------------  -----------------  -----------------
         N           -0.454870412894     1.064424711189    -0.313257775033    14.003074004430
         N            1.045130587106    -0.726370288811    -0.010190775033    14.003074004430
         C           -1.673492412894     0.390325711189    -0.121158775033    12.000000000000
         C            0.841454587106     0.590191711189    -0.151951775033    12.000000000000
         C            3.439160587106    -0.325938288811     0.115543224967    12.000000000000
         C            1.905414587106     1.517046711189    -0.177405775033    12.000000000000
         C            3.200701587106     1.049059711189    -0.040382775033    12.000000000000
         C           -2.861125612894     1.219470311189     0.288095724967    12.000000000000
         C           -1.850105412894    -0.979213288811    -0.376977775033    12.000000000000
         C            2.316909587106    -1.151052288811     0.120134224967    12.000000000000
         C            4.829637587106    -0.878137288811     0.265261224967    12.000000000000
         C           -4.038950412894     0.583047711189     0.408038224967    12.000000000000
         C           -3.111787412894    -1.550781288811    -0.206925775033    12.000000000000
         C           -4.212753412894    -0.782629288811     0.175221224967    12.000000000000
         H           -0.531777412894     2.072752711189    -0.237296775033     1.007825032230
         H            1.709573587106     2.580645711189    -0.299433775033     1.007825032230
         H            4.033441587106     1.751051711189    -0.053307775033     1.007825032230
         H           -2.651258412894     2.227607711189     0.460975224967     1.007825032230
         H           -1.003029412894    -1.581763288811    -0.675109775033     1.007825032230
         H            2.432790587106    -2.229166288811     0.236492224967     1.007825032230
         H            5.446069587106    -0.644654288811    -0.608820775033     1.007825032230
         H            5.330161587106    -0.459757288811     1.144409224967     1.007825032230
         H            4.805169587106    -1.965500288811     0.378383224967     1.007825032230
         H           -4.881928412894     1.201595711189     0.707388224967     1.007825032230
         H           -3.234173412894    -2.614458288811    -0.398966775033     1.007825032230
         H           -5.190284412894    -1.241767288811     0.297218224967     1.007825032230

  Basis Set: AUG-CC-PVTZ
    Blend: AUG-CC-PVTZ
  Basis Set: (AUG-CC-PVTZ AUX)
    Blend: AUG-CC-PVTZ-JKFIT
	 Reference Energy          =    -570.4874455155953683 [Eh]
	 Singles Energy            =      -0.0000000000000000 [Eh]
	 Same-Spin Energy          =      -0.6362479224790554 [Eh]
	 Opposite-Spin Energy      =      -1.9714454336423419 [Eh]
	 Correlation Energy        =      -2.6076933561213975 [Eh]
	 Total Energy              =    -573.0951388717168129 [Eh]

	 ================> DF-SCS-MP2 Energies <==================
	-----------------------------------------------------------
	 SCS Same-Spin Scale       =       0.3333333333333333 [-]
	 SCS Opposite-Spin Scale   =       1.2000000000000000 [-]
	 SCS Same-Spin Energy      =      -0.2120826408263518 [Eh]
	 SCS Opposite-Spin Energy  =      -2.3657345203708102 [Eh]
	 SCS Correlation Energy    =      -2.5778171611971619 [Eh]
	 SCS Total Energy          =    -573.0652626767924858 [Eh]
	-----------------------------------------------------------

  Dipole Moment: [D]
     X:     2.0188      Y:     1.9114      Z:     0.1553     Total:     2.7845

*** Psi4 exiting successfully. Buy a developer a beer!
