                               Psi4 1.4a3.dev225

  ==> Input File <==

--------------------------------------------------------------------------
#psi4
#
memory 32 gb

molecule  {
0 1
  N       -0.4914050     1.0723760    -0.3164170
  N        1.0085960    -0.7184190    -0.0133500
  C       -1.7100270     0.3982770    -0.1243180
  C        0.8049200     0.5981430    -0.1551110
  C        3.4026260    -0.3179870     0.1123840
  C        1.8688800     1.5249980    -0.1805650
  C        3.3097885     1.0753094    -0.0356073
  C       -2.8187550     1.1723340     0.2577460
  C       -1.8866400    -0.9712620    -0.3801370
  C        2.2803750    -1.1431010     0.1169750
  C        4.7931030    -0.8701860     0.2621020
  C       -4.0754850     0.5909990     0.4048790
  C       -3.1483220    -1.5428300    -0.2100850
  C       -4.2492880    -0.7746780     0.1720620
  H       -0.5683120     2.0807040    -0.2404560
  H        1.6730390     2.5885970    -0.3025930
  H        3.9969070     1.7590030    -0.0564670
  H       -2.6877930     2.2355590     0.4578160
  H       -1.0395640    -1.5738120    -0.6782690
  H        2.3962560    -2.2212150     0.2333330
  H        5.4095350    -0.6367030    -0.6119800
  H        5.2936270    -0.4518060     1.1412500
  H        4.7686350    -1.9575490     0.3752240
  H       -4.9184630     1.2095470     0.7042290
  H       -3.2707080    -2.6065070    -0.4021260
  H       -5.2268190    -1.2338160     0.2940590
units angstrom
no_reorient  #important for SAPT in psi4, default
symmetry c1  #important for SAPT in psi4, default
}

set PROPERTIES_ORIGIN ["COM"]
properties('MP2/aug-cc-pvtz', properties = ['dipole'])
--------------------------------------------------------------------------

    Molecular point group: c1
  Charge       = 0
  Multiplicity = 1
  Basis Set: AUG-CC-PVTZ
    Blend: AUG-CC-PVTZ
  Basis Set: (AUG-CC-PVTZ AUX)
    Blend: AUG-CC-PVTZ-JKFIT

    Orbital Energies [Eh]
    ---------------------

    Doubly Occupied:

       1A    -15.586297     2A    -15.559167     3A    -11.321195
       4A    -11.280232     5A    -11.278426     6A    -11.264946
       7A    -11.249101     8A    -11.241956     9A    -11.232974
      10A    -11.229690    11A    -11.227356    12A    -11.227143
      13A    -11.220347    14A    -11.217492    15A     -1.291508
      16A     -1.218995    17A     -1.131941    18A     -1.094879
      19A     -1.036376    20A     -1.007179    21A     -0.986799
      22A     -0.934572    23A     -0.882612    24A     -0.837189
      25A     -0.818214    26A     -0.803924    27A     -0.732344
      28A     -0.712348    29A     -0.667227    30A     -0.657014
      31A     -0.636340    32A     -0.622974    33A     -0.603014
      34A     -0.594201    35A     -0.588050    36A     -0.579859
      37A     -0.576345    38A     -0.567414    39A     -0.547828
      40A     -0.511931    41A     -0.505171    42A     -0.491646
      43A     -0.486580    44A     -0.452968    45A     -0.420187
      46A     -0.368011    47A     -0.337131    48A     -0.330086
      49A     -0.275248

  @DF-RHF Final Energy:  -570.46651618972896

   => Energetics <=

    Nuclear Repulsion Energy =            788.4003066077343647
    One-Electron Energy =               -2336.8447960237513144
    Two-Electron Energy =                 977.9779732262879861
    Total Energy =                       -570.4665161897289636
  Basis Set: (AUG-CC-PVTZ AUX)
    Blend: AUG-CC-PVTZ-RI
    Molecular point group: c1

    Geometry (in Angstrom), charge = 0, multiplicity = 1:

       Center              X                  Y                   Z               Mass
    ------------   -----------------  -----------------  -----------------  -----------------
         N           -0.469505500845     1.066822702954    -0.312002644456    14.003074004430
         N            1.030495499155    -0.723972297046    -0.008935644456    14.003074004430
         C           -1.688127500845     0.392723702954    -0.119903644456    12.000000000000
         C            0.826819499155     0.592589702954    -0.150696644456    12.000000000000
         C            3.424525499155    -0.323540297046     0.116798355544    12.000000000000
         C            1.890779499155     1.519444702954    -0.176150644456    12.000000000000
         C            3.331687999155     1.069756102954    -0.031192944456    12.000000000000
         C           -2.796855500845     1.166780702954     0.262160355544    12.000000000000
         C           -1.864740500845    -0.976815297046    -0.375722644456    12.000000000000
         C            2.302274499155    -1.148654297046     0.121389355544    12.000000000000
         C            4.815002499155    -0.875739297046     0.266516355544    12.000000000000
         C           -4.053585500845     0.585445702954     0.409293355544    12.000000000000
         C           -3.126422500845    -1.548383297046    -0.205670644456    12.000000000000
         C           -4.227388500845    -0.780231297046     0.176476355544    12.000000000000
         H           -0.546412500845     2.075150702954    -0.236041644456     1.007825032230
         H            1.694938499155     2.583043702954    -0.298178644456     1.007825032230
         H            4.018806499155     1.753449702954    -0.052052644456     1.007825032230
         H           -2.665893500845     2.230005702954     0.462230355544     1.007825032230
         H           -1.017664500845    -1.579365297046    -0.673854644456     1.007825032230
         H            2.418155499155    -2.226768297046     0.237747355544     1.007825032230
         H            5.431434499155    -0.642256297046    -0.607565644456     1.007825032230
         H            5.315526499155    -0.457359297046     1.145664355544     1.007825032230
         H            4.790534499155    -1.963102297046     0.379638355544     1.007825032230
         H           -4.896563500845     1.203993702954     0.708643355544     1.007825032230
         H           -3.248808500845    -2.612060297046    -0.397711644456     1.007825032230
         H           -5.204919500845    -1.239369297046     0.298473355544     1.007825032230

  Basis Set: AUG-CC-PVTZ
    Blend: AUG-CC-PVTZ
  Basis Set: (AUG-CC-PVTZ AUX)
    Blend: AUG-CC-PVTZ-JKFIT
	 Reference Energy          =    -570.4665161897289636 [Eh]
	 Singles Energy            =      -0.0000000000000000 [Eh]
	 Same-Spin Energy          =      -0.6376375018075455 [Eh]
	 Opposite-Spin Energy      =      -1.9740211040903046 [Eh]
	 Correlation Energy        =      -2.6116586058978504 [Eh]
	 Total Energy              =    -573.0781747956268646 [Eh]

	 ================> DF-SCS-MP2 Energies <==================
	-----------------------------------------------------------
	 SCS Same-Spin Scale       =       0.3333333333333333 [-]
	 SCS Opposite-Spin Scale   =       1.2000000000000000 [-]
	 SCS Same-Spin Energy      =      -0.2125458339358485 [Eh]
	 SCS Opposite-Spin Energy  =      -2.3688253249083653 [Eh]
	 SCS Correlation Energy    =      -2.5813711588442136 [Eh]
	 SCS Total Energy          =    -573.0478873485732265 [Eh]
	-----------------------------------------------------------

  Dipole Moment: [D]
     X:     1.9710      Y:     1.8326      Z:     0.1697     Total:     2.6967

*** Psi4 exiting successfully. Buy a developer a beer!
