                               Psi4 1.4a3.dev225

  ==> Input File <==

--------------------------------------------------------------------------
#psi4
#
memory 32 gb

molecule  {
0 1
  N       -0.4914050     1.0723760    -0.3164170
  N        1.0085960    -0.7184190    -0.0133500
  C       -1.7100270     0.3982770    -0.1243180
  C        0.8049200     0.5981430    -0.1551110
  C        3.4026260    -0.3179870     0.1123840
  C        1.8688800     1.5249980    -0.1805650
  C        3.1641670     1.0570110    -0.0435420
  C       -2.8187550     1.1723340     0.2577460
  C       -1.8866400    -0.9712620    -0.3801370
  C        2.2331717    -1.1273385     0.1121379
  C        4.7931030    -0.8701860     0.2621020
  C       -4.0754850     0.5909990     0.4048790
  C       -3.1483220    -1.5428300    -0.2100850
  C       -4.2492880    -0.7746780     0.1720620
  H       -0.5683120     2.0807040    -0.2404560
  H        1.6730390     2.5885970    -0.3025930
  H        3.9969070     1.7590030    -0.0564670
  H       -2.6877930     2.2355590     0.4578160
  H       -1.0395640    -1.5738120    -0.6782690
  H        2.3962560    -2.2212150     0.2333330
  H        5.4095350    -0.6367030    -0.6119800
  H        5.2936270    -0.4518060     1.1412500
  H        4.7686350    -1.9575490     0.3752240
  H       -4.9184630     1.2095470     0.7042290
  H       -3.2707080    -2.6065070    -0.4021260
  H       -5.2268190    -1.2338160     0.2940590
units angstrom
no_reorient  #important for SAPT in psi4, default
symmetry c1  #important for SAPT in psi4, default
}

set PROPERTIES_ORIGIN ["COM"]
properties('MP2/aug-cc-pvtz', properties = ['dipole'])
--------------------------------------------------------------------------

    Molecular point group: c1
  Charge       = 0
  Multiplicity = 1
  Basis Set: AUG-CC-PVTZ
    Blend: AUG-CC-PVTZ
  Basis Set: (AUG-CC-PVTZ AUX)
    Blend: AUG-CC-PVTZ-JKFIT

    Orbital Energies [Eh]
    ---------------------

    Doubly Occupied:

       1A    -15.589482     2A    -15.553532     3A    -11.323861
       4A    -11.281511     5A    -11.274857     6A    -11.256265
       7A    -11.236336     8A    -11.236240     9A    -11.234203
      10A    -11.230893    11A    -11.229270    12A    -11.228943
      13A    -11.221798    14A    -11.219051    15A     -1.299551
      16A     -1.229319    17A     -1.133664    18A     -1.097537
      19A     -1.044336    20A     -1.008594    21A     -0.992787
      22A     -0.935000    23A     -0.865180    24A     -0.842936
      25A     -0.821742    26A     -0.800071    27A     -0.723288
      28A     -0.716435    29A     -0.671084    30A     -0.655162
      31A     -0.636491    32A     -0.619056    33A     -0.596197
      34A     -0.592933    35A     -0.588026    36A     -0.580231
      37A     -0.569904    38A     -0.562979    39A     -0.548980
      40A     -0.520605    41A     -0.513139    42A     -0.504396
      43A     -0.487463    44A     -0.455557    45A     -0.412060
      46A     -0.387251    47A     -0.334707    48A     -0.330534
      49A     -0.274180

  @DF-RHF Final Energy:  -570.49673613792947

   => Energetics <=

    Nuclear Repulsion Energy =            791.4140749994394355
    One-Electron Energy =               -2342.8863916232089650
    Two-Electron Energy =                 980.9755804858400552
    Total Energy =                       -570.4967361379294744
  Basis Set: (AUG-CC-PVTZ AUX)
    Blend: AUG-CC-PVTZ-RI
    Molecular point group: c1

    Geometry (in Angstrom), charge = 0, multiplicity = 1:

       Center              X                  Y                   Z               Mass
    ------------   -----------------  -----------------  -----------------  -----------------
         N           -0.456936804529     1.066987997859    -0.311170153638    14.003074004430
         N            1.043064195471    -0.723807002141    -0.008103153638    14.003074004430
         C           -1.675558804529     0.392888997859    -0.119071153638    12.000000000000
         C            0.839388195471     0.592754997859    -0.149864153638    12.000000000000
         C            3.437094195471    -0.323375002141     0.117630846362    12.000000000000
         C            1.903348195471     1.519609997859    -0.175318153638    12.000000000000
         C            3.198635195471     1.051622997859    -0.038295153638    12.000000000000
         C           -2.784286804529     1.166945997859     0.262992846362    12.000000000000
         C           -1.852171804529    -0.976650002141    -0.374890153638    12.000000000000
         C            2.267639895471    -1.132726502141     0.117384746362    12.000000000000
         C            4.827571195471    -0.875574002141     0.267348846362    12.000000000000
         C           -4.041016804529     0.585610997859     0.410125846362    12.000000000000
         C           -3.113853804529    -1.548218002141    -0.204838153638    12.000000000000
         C           -4.214819804529    -0.780066002141     0.177308846362    12.000000000000
         H           -0.533843804529     2.075315997859    -0.235209153638     1.007825032230
         H            1.707507195471     2.583208997859    -0.297346153638     1.007825032230
         H            4.031375195471     1.753614997859    -0.051220153638     1.007825032230
         H           -2.653324804529     2.230170997859     0.463062846362     1.007825032230
         H           -1.005095804529    -1.579200002141    -0.673022153638     1.007825032230
         H            2.430724195471    -2.226603002141     0.238579846362     1.007825032230
         H            5.444003195471    -0.642091002141    -0.606733153638     1.007825032230
         H            5.328095195471    -0.457194002141     1.146496846362     1.007825032230
         H            4.803103195471    -1.962937002141     0.380470846362     1.007825032230
         H           -4.883994804529     1.204158997859     0.709475846362     1.007825032230
         H           -3.236239804529    -2.611895002141    -0.396879153638     1.007825032230
         H           -5.192350804529    -1.239204002141     0.299305846362     1.007825032230

  Basis Set: AUG-CC-PVTZ
    Blend: AUG-CC-PVTZ
  Basis Set: (AUG-CC-PVTZ AUX)
    Blend: AUG-CC-PVTZ-JKFIT
	 Reference Energy          =    -570.4967361379294744 [Eh]
	 Singles Energy            =      -0.0000000000000000 [Eh]
	 Same-Spin Energy          =      -0.6364002432177985 [Eh]
	 Opposite-Spin Energy      =      -1.9702142830290097 [Eh]
	 Correlation Energy        =      -2.6066145262468083 [Eh]
	 Total Energy              =    -573.1033506641763324 [Eh]

	 ================> DF-SCS-MP2 Energies <==================
	-----------------------------------------------------------
	 SCS Same-Spin Scale       =       0.3333333333333333 [-]
	 SCS Opposite-Spin Scale   =       1.2000000000000000 [-]
	 SCS Same-Spin Energy      =      -0.2121334144059328 [Eh]
	 SCS Opposite-Spin Energy  =      -2.3642571396348115 [Eh]
	 SCS Correlation Energy    =      -2.5763905540407444 [Eh]
	 SCS Total Energy          =    -573.0731266919701739 [Eh]
	-----------------------------------------------------------

  Dipole Moment: [D]
     X:     1.8096      Y:     1.8434      Z:     0.1609     Total:     2.5882

*** Psi4 exiting successfully. Buy a developer a beer!
