                               Psi4 1.4a3.dev225

  ==> Input File <==

--------------------------------------------------------------------------
#psi4
#
memory 32 gb

molecule  {
0 1
  N       -0.4914050     1.0723760    -0.3164170
  N        1.0085960    -0.7184190    -0.0133500
  C       -1.7100270     0.3982770    -0.1243180
  C        0.8049200     0.5981430    -0.1551110
  C        3.4026260    -0.3179870     0.1123840
  C        1.8688800     1.5249980    -0.1805650
  C        3.1641670     1.0570110    -0.0435420
  C       -2.8187550     1.1723340     0.2577460
  C       -1.8866400    -0.9712620    -0.3801370
  C        2.2803750    -1.1431010     0.1169750
  C        4.7931030    -0.8701860     0.2621020
  C       -4.0754850     0.5909990     0.4048790
  C       -3.1483220    -1.5428300    -0.2100850
  C       -4.2492880    -0.7746780     0.1720620
  H       -0.5683120     2.0807040    -0.2404560
  H        1.6730390     2.5885970    -0.3025930
  H        3.9969070     1.7590030    -0.0564670
  H       -2.6877930     2.2355590     0.4578160
  H       -1.0395640    -1.5738120    -0.6782690
  H        2.3962560    -2.2212150     0.2333330
  H        5.4095350    -0.6367030    -0.6119800
  H        5.2936270    -0.4518060     1.1412500
  H        4.7686350    -1.9575490     0.3752240
  H       -4.8797081     1.1811100     0.6904668
  H       -3.2707080    -2.6065070    -0.4021260
  H       -5.2268190    -1.2338160     0.2940590
units angstrom
no_reorient  #important for SAPT in psi4, default
symmetry c1  #important for SAPT in psi4, default
}

set PROPERTIES_ORIGIN ["COM"]
properties('MP2/aug-cc-pvtz', properties = ['dipole'])
--------------------------------------------------------------------------

    Molecular point group: c1
  Charge       = 0
  Multiplicity = 1
  Basis Set: AUG-CC-PVTZ
    Blend: AUG-CC-PVTZ
  Basis Set: (AUG-CC-PVTZ AUX)
    Blend: AUG-CC-PVTZ-JKFIT

    Orbital Energies [Eh]
    ---------------------

    Doubly Occupied:

       1A    -15.588952     2A    -15.553620     3A    -11.322881
       4A    -11.280626     5A    -11.272693     6A    -11.258365
       7A    -11.238763     8A    -11.235213     9A    -11.229976
      10A    -11.228864    11A    -11.228649    12A    -11.227298
      13A    -11.220991    14A    -11.218256    15A     -1.292988
      16A     -1.219983    17A     -1.132936    18A     -1.096861
      19A     -1.045943    20A     -1.009311    21A     -0.993186
      22A     -0.934777    23A     -0.868417    24A     -0.842355
      25A     -0.821778    26A     -0.799391    27A     -0.725556
      28A     -0.716378    29A     -0.670388    30A     -0.653523
      31A     -0.637663    32A     -0.622617    33A     -0.597318
      34A     -0.594640    35A     -0.588362    36A     -0.580310
      37A     -0.569313    38A     -0.563342    39A     -0.546717
      40A     -0.519457    41A     -0.511140    42A     -0.504053
      43A     -0.488823    44A     -0.453940    45A     -0.414293
      46A     -0.381328    47A     -0.336383    48A     -0.330277
      49A     -0.276743

  @DF-RHF Final Energy:  -570.49815954232974

   => Energetics <=

    Nuclear Repulsion Energy =            791.0362256263813379
    One-Electron Energy =               -2342.1774899611427827
    Two-Electron Energy =                 980.6431047924316999
    Total Energy =                       -570.4981595423297449
  Basis Set: (AUG-CC-PVTZ AUX)
    Blend: AUG-CC-PVTZ-RI
    Molecular point group: c1

    Geometry (in Angstrom), charge = 0, multiplicity = 1:

       Center              X                  Y                   Z               Mass
    ------------   -----------------  -----------------  -----------------  -----------------
         N           -0.460225764872     1.068171101950    -0.311410106374    14.003074004430
         N            1.039775235128    -0.722623898050    -0.008343106374    14.003074004430
         C           -1.678847764872     0.394072101950    -0.119311106374    12.000000000000
         C            0.836099235128     0.593938101950    -0.150104106374    12.000000000000
         C            3.433805235128    -0.322191898050     0.117390893626    12.000000000000
         C            1.900059235128     1.520793101950    -0.175558106374    12.000000000000
         C            3.195346235128     1.052806101950    -0.038535106374    12.000000000000
         C           -2.787575764872     1.168129101950     0.262752893626    12.000000000000
         C           -1.855460764872    -0.975466898050    -0.375130106374    12.000000000000
         C            2.311554235128    -1.147305898050     0.121981893626    12.000000000000
         C            4.824282235128    -0.874390898050     0.267108893626    12.000000000000
         C           -4.044305764872     0.586794101950     0.409885893626    12.000000000000
         C           -3.117142764872    -1.547034898050    -0.205078106374    12.000000000000
         C           -4.218108764872    -0.778882898050     0.177068893626    12.000000000000
         H           -0.537132764872     2.076499101950    -0.235449106374     1.007825032230
         H            1.704218235128     2.584392101950    -0.297586106374     1.007825032230
         H            4.028086235128     1.754798101950    -0.051460106374     1.007825032230
         H           -2.656613764872     2.231354101950     0.462822893626     1.007825032230
         H           -1.008384764872    -1.578016898050    -0.673262106374     1.007825032230
         H            2.427435235128    -2.225419898050     0.238339893626     1.007825032230
         H            5.440714235128    -0.640907898050    -0.606973106374     1.007825032230
         H            5.324806235128    -0.456010898050     1.146256893626     1.007825032230
         H            4.799814235128    -1.961753898050     0.380230893626     1.007825032230
         H           -4.848528864872     1.176905101950     0.695473693626     1.007825032230
         H           -3.239528764872    -2.610711898050    -0.397119106374     1.007825032230
         H           -5.195639764872    -1.238020898050     0.299065893626     1.007825032230

  Basis Set: AUG-CC-PVTZ
    Blend: AUG-CC-PVTZ
  Basis Set: (AUG-CC-PVTZ AUX)
    Blend: AUG-CC-PVTZ-JKFIT
	 Reference Energy          =    -570.4981595423297449 [Eh]
	 Singles Energy            =      -0.0000000000000000 [Eh]
	 Same-Spin Energy          =      -0.6363362900973311 [Eh]
	 Opposite-Spin Energy      =      -1.9705798413095057 [Eh]
	 Correlation Energy        =      -2.6069161314068365 [Eh]
	 Total Energy              =    -573.1050756737365646 [Eh]

	 ================> DF-SCS-MP2 Energies <==================
	-----------------------------------------------------------
	 SCS Same-Spin Scale       =       0.3333333333333333 [-]
	 SCS Opposite-Spin Scale   =       1.2000000000000000 [-]
	 SCS Same-Spin Energy      =      -0.2121120966991104 [Eh]
	 SCS Opposite-Spin Energy  =      -2.3646958095714066 [Eh]
	 SCS Correlation Energy    =      -2.5768079062705169 [Eh]
	 SCS Total Energy          =    -573.0749674486003187 [Eh]
	-----------------------------------------------------------

  Dipole Moment: [D]
     X:     1.8501      Y:     1.8643      Z:     0.1680     Total:     2.6319

*** Psi4 exiting successfully. Buy a developer a beer!
