                               Psi4 1.4a3.dev225

  ==> Input File <==

--------------------------------------------------------------------------
#psi4
#
memory 32 gb

molecule  {
0 1
  N       -0.4914050     1.0723760    -0.3164170
  N        1.0085960    -0.7184190    -0.0133500
  C       -1.7100270     0.3982770    -0.1243180
  C        0.8049200     0.5981430    -0.1551110
  C        3.4026260    -0.3179870     0.1123840
  C        1.8688800     1.5249980    -0.1805650
  C        3.1641670     1.0570110    -0.0435420
  C       -2.8187550     1.1723340     0.2577460
  C       -1.8992159    -1.0687814    -0.3983528
  C        2.2803750    -1.1431010     0.1169750
  C        4.7931030    -0.8701860     0.2621020
  C       -4.0754850     0.5909990     0.4048790
  C       -3.1483220    -1.5428300    -0.2100850
  C       -4.2492880    -0.7746780     0.1720620
  H       -0.5683120     2.0807040    -0.2404560
  H        1.6730390     2.5885970    -0.3025930
  H        3.9969070     1.7590030    -0.0564670
  H       -2.6877930     2.2355590     0.4578160
  H       -1.0395640    -1.5738120    -0.6782690
  H        2.3962560    -2.2212150     0.2333330
  H        5.4095350    -0.6367030    -0.6119800
  H        5.2936270    -0.4518060     1.1412500
  H        4.7686350    -1.9575490     0.3752240
  H       -4.9184630     1.2095470     0.7042290
  H       -3.2707080    -2.6065070    -0.4021260
  H       -5.2268190    -1.2338160     0.2940590
units angstrom
no_reorient  #important for SAPT in psi4, default
symmetry c1  #important for SAPT in psi4, default
}

set PROPERTIES_ORIGIN ["COM"]
properties('MP2/aug-cc-pvtz', properties = ['dipole'])
--------------------------------------------------------------------------

    Molecular point group: c1
  Charge       = 0
  Multiplicity = 1
  Basis Set: AUG-CC-PVTZ
    Blend: AUG-CC-PVTZ
  Basis Set: (AUG-CC-PVTZ AUX)
    Blend: AUG-CC-PVTZ-JKFIT

    Orbital Energies [Eh]
    ---------------------

    Doubly Occupied:

       1A    -15.592013     2A    -15.555608     3A    -11.324249
       4A    -11.290872     5A    -11.274064     6A    -11.259577
       7A    -11.240109     8A    -11.236543     9A    -11.234034
      10A    -11.229754    11A    -11.225965    12A    -11.224965
      13A    -11.221323    14A    -11.219844    15A     -1.293980
      16A     -1.220118    17A     -1.130306    18A     -1.098152
      19A     -1.046498    20A     -1.014430    21A     -0.986299
      22A     -0.934719    23A     -0.870297    24A     -0.842584
      25A     -0.814945    26A     -0.800873    27A     -0.725545
      28A     -0.713059    29A     -0.677164    30A     -0.653762
      31A     -0.639068    32A     -0.624375    33A     -0.596417
      34A     -0.590599    35A     -0.585869    36A     -0.582953
      37A     -0.569035    38A     -0.564172    39A     -0.547693
      40A     -0.522670    41A     -0.513313    42A     -0.504389
      43A     -0.475157    44A     -0.454882    45A     -0.417956
      46A     -0.382704    47A     -0.342021    48A     -0.328974
      49A     -0.272354

  @DF-RHF Final Energy:  -570.48736440358141

   => Energetics <=

    Nuclear Repulsion Energy =            789.4275587755762444
    One-Electron Energy =               -2338.8973443948088971
    Two-Electron Energy =                 978.9824212156512431
    Total Energy =                       -570.4873644035814095
  Basis Set: (AUG-CC-PVTZ AUX)
    Blend: AUG-CC-PVTZ-RI
    Molecular point group: c1

    Geometry (in Angstrom), charge = 0, multiplicity = 1:

       Center              X                  Y                   Z               Mass
    ------------   -----------------  -----------------  -----------------  -----------------
         N           -0.459193885956     1.074371932908    -0.310298103894    14.003074004430
         N            1.040807114044    -0.716423067092    -0.007231103894    14.003074004430
         C           -1.677815885956     0.400272932908    -0.118199103894    12.000000000000
         C            0.837131114044     0.600138932908    -0.148992103894    12.000000000000
         C            3.434837114044    -0.315991067092     0.118502896106    12.000000000000
         C            1.901091114044     1.526993932908    -0.174446103894    12.000000000000
         C            3.196378114044     1.059006932908    -0.037423103894    12.000000000000
         C           -2.786543885956     1.174329932908     0.263864896106    12.000000000000
         C           -1.867004785956    -1.066785467092    -0.392233903894    12.000000000000
         C            2.312586114044    -1.141105067092     0.123093896106    12.000000000000
         C            4.825314114044    -0.868190067092     0.268220896106    12.000000000000
         C           -4.043273885956     0.592994932908     0.410997896106    12.000000000000
         C           -3.116110885956    -1.540834067092    -0.203966103894    12.000000000000
         C           -4.217076885956    -0.772682067092     0.178180896106    12.000000000000
         H           -0.536100885956     2.082699932908    -0.234337103894     1.007825032230
         H            1.705250114044     2.590592932908    -0.296474103894     1.007825032230
         H            4.029118114044     1.760998932908    -0.050348103894     1.007825032230
         H           -2.655581885956     2.237554932908     0.463934896106     1.007825032230
         H           -1.007352885956    -1.571816067092    -0.672150103894     1.007825032230
         H            2.428467114044    -2.219219067092     0.239451896106     1.007825032230
         H            5.441746114044    -0.634707067092    -0.605861103894     1.007825032230
         H            5.325838114044    -0.449810067092     1.147368896106     1.007825032230
         H            4.800846114044    -1.955553067092     0.381342896106     1.007825032230
         H           -4.886251885956     1.211542932908     0.710347896106     1.007825032230
         H           -3.238496885956    -2.604511067092    -0.396007103894     1.007825032230
         H           -5.194607885956    -1.231820067092     0.300177896106     1.007825032230

  Basis Set: AUG-CC-PVTZ
    Blend: AUG-CC-PVTZ
  Basis Set: (AUG-CC-PVTZ AUX)
    Blend: AUG-CC-PVTZ-JKFIT
	 Reference Energy          =    -570.4873644035814095 [Eh]
	 Singles Energy            =      -0.0000000000000000 [Eh]
	 Same-Spin Energy          =      -0.6362223017292556 [Eh]
	 Opposite-Spin Energy      =      -1.9715025246212563 [Eh]
	 Correlation Energy        =      -2.6077248263505117 [Eh]
	 Total Energy              =    -573.0950892299318866 [Eh]

	 ================> DF-SCS-MP2 Energies <==================
	-----------------------------------------------------------
	 SCS Same-Spin Scale       =       0.3333333333333333 [-]
	 SCS Opposite-Spin Scale   =       1.2000000000000000 [-]
	 SCS Same-Spin Energy      =      -0.2120741005764185 [Eh]
	 SCS Opposite-Spin Energy  =      -2.3658030295455075 [Eh]
	 SCS Correlation Energy    =      -2.5778771301219261 [Eh]
	 SCS Total Energy          =    -573.0652415337033290 [Eh]
	-----------------------------------------------------------

  Dipole Moment: [D]
     X:     2.0167      Y:     1.8986      Z:     0.1507     Total:     2.7739

*** Psi4 exiting successfully. Buy a developer a beer!
