                               Psi4 1.4a3.dev225

  ==> Input File <==

--------------------------------------------------------------------------
#psi4
#
memory 32 gb

molecule  {
0 1
  N       -0.4914050     1.0723760    -0.3164170
  N        1.0085960    -0.7184190    -0.0133500
  C       -1.7100270     0.3982770    -0.1243180
  C        0.8049200     0.5981430    -0.1551110
  C        3.4026260    -0.3179870     0.1123840
  C        1.8688800     1.5249980    -0.1805650
  C        3.1641670     1.0570110    -0.0435420
  C       -2.8187550     1.1723340     0.2577460
  C       -1.8866400    -0.9712620    -0.3801370
  C        2.2803750    -1.1431010     0.1169750
  C        4.9780580    -0.9436370     0.2820168
  C       -4.0754850     0.5909990     0.4048790
  C       -3.1483220    -1.5428300    -0.2100850
  C       -4.2492880    -0.7746780     0.1720620
  H       -0.5683120     2.0807040    -0.2404560
  H        1.6730390     2.5885970    -0.3025930
  H        3.9969070     1.7590030    -0.0564670
  H       -2.6877930     2.2355590     0.4578160
  H       -1.0395640    -1.5738120    -0.6782690
  H        2.3962560    -2.2212150     0.2333330
  H        5.4095350    -0.6367030    -0.6119800
  H        5.2936270    -0.4518060     1.1412500
  H        4.7686350    -1.9575490     0.3752240
  H       -4.9184630     1.2095470     0.7042290
  H       -3.2707080    -2.6065070    -0.4021260
  H       -5.2268190    -1.2338160     0.2940590
units angstrom
no_reorient  #important for SAPT in psi4, default
symmetry c1  #important for SAPT in psi4, default
}

set PROPERTIES_ORIGIN ["COM"]
properties('MP2/aug-cc-pvtz', properties = ['dipole'])
--------------------------------------------------------------------------

    Molecular point group: c1
  Charge       = 0
  Multiplicity = 1
  Basis Set: AUG-CC-PVTZ
    Blend: AUG-CC-PVTZ
  Basis Set: (AUG-CC-PVTZ AUX)
    Blend: AUG-CC-PVTZ-JKFIT

    Orbital Energies [Eh]
    ---------------------

    Doubly Occupied:

       1A    -15.588261     2A    -15.553125     3A    -11.321942
       4A    -11.280465     5A    -11.272463     6A    -11.257938
       7A    -11.241274     8A    -11.237610     9A    -11.233335
      10A    -11.229914    11A    -11.229624    12A    -11.228119
      13A    -11.221013    14A    -11.217933    15A     -1.292193
      16A     -1.218681    17A     -1.132080    18A     -1.087160
      19A     -1.038157    20A     -1.007477    21A     -0.989492
      22A     -0.941895    23A     -0.866018    24A     -0.843421
      25A     -0.820744    26A     -0.796983    27A     -0.722906
      28A     -0.713755    29A     -0.668898    30A     -0.650226
      31A     -0.626773    32A     -0.620396    33A     -0.606229
      34A     -0.596019    35A     -0.589162    36A     -0.581516
      37A     -0.579177    38A     -0.575049    39A     -0.557934
      40A     -0.513707    41A     -0.505558    42A     -0.487010
      43A     -0.471352    44A     -0.455435    45A     -0.410017
      46A     -0.381142    47A     -0.337428    48A     -0.330213
      49A     -0.277000

  @DF-RHF Final Energy:  -570.47178484431822

   => Energetics <=

    Nuclear Repulsion Energy =            787.3563868776604977
    One-Electron Energy =               -2334.8478996733633721
    Two-Electron Energy =                 977.0197279513846524
    Total Energy =                       -570.4717848443182220
  Basis Set: (AUG-CC-PVTZ AUX)
    Blend: AUG-CC-PVTZ-RI
    Molecular point group: c1

    Geometry (in Angstrom), charge = 0, multiplicity = 1:

       Center              X                  Y                   Z               Mass
    ------------   -----------------  -----------------  -----------------  -----------------
         N           -0.472069335043     1.072803107682    -0.312783530726    14.003074004430
         N            1.027931664957    -0.717991892318    -0.009716530726    14.003074004430
         C           -1.690691335043     0.398704107682    -0.120684530726    12.000000000000
         C            0.824255664957     0.598570107682    -0.151477530726    12.000000000000
         C            3.421961664957    -0.317559892318     0.116017469274    12.000000000000
         C            1.888215664957     1.525425107682    -0.176931530726    12.000000000000
         C            3.183502664957     1.057438107682    -0.039908530726    12.000000000000
         C           -2.799419335043     1.172761107682     0.261379469274    12.000000000000
         C           -1.867304335043    -0.970834892318    -0.376503530726    12.000000000000
         C            2.299710664957    -1.142673892318     0.120608469274    12.000000000000
         C            4.997393664957    -0.943209892318     0.285650269274    12.000000000000
         C           -4.056149335043     0.591426107682     0.408512469274    12.000000000000
         C           -3.128986335043    -1.542402892318    -0.206451530726    12.000000000000
         C           -4.229952335043    -0.774250892318     0.175695469274    12.000000000000
         H           -0.548976335043     2.081131107682    -0.236822530726     1.007825032230
         H            1.692374664957     2.589024107682    -0.298959530726     1.007825032230
         H            4.016242664957     1.759430107682    -0.052833530726     1.007825032230
         H           -2.668457335043     2.235986107682     0.461449469274     1.007825032230
         H           -1.020228335043    -1.573384892318    -0.674635530726     1.007825032230
         H            2.415591664957    -2.220787892318     0.236966469274     1.007825032230
         H            5.428870664957    -0.636275892318    -0.608346530726     1.007825032230
         H            5.312962664957    -0.451378892318     1.144883469274     1.007825032230
         H            4.787970664957    -1.957121892318     0.378857469274     1.007825032230
         H           -4.899127335043     1.209974107682     0.707862469274     1.007825032230
         H           -3.251372335043    -2.606079892318    -0.398492530726     1.007825032230
         H           -5.207483335043    -1.233388892318     0.297692469274     1.007825032230

  Basis Set: AUG-CC-PVTZ
    Blend: AUG-CC-PVTZ
  Basis Set: (AUG-CC-PVTZ AUX)
    Blend: AUG-CC-PVTZ-JKFIT
	 Reference Energy          =    -570.4717848443182220 [Eh]
	 Singles Energy            =      -0.0000000000000000 [Eh]
	 Same-Spin Energy          =      -0.6361992511707999 [Eh]
	 Opposite-Spin Energy      =      -1.9719070029879191 [Eh]
	 Correlation Energy        =      -2.6081062541587192 [Eh]
	 Total Energy              =    -573.0798910984769918 [Eh]

	 ================> DF-SCS-MP2 Energies <==================
	-----------------------------------------------------------
	 SCS Same-Spin Scale       =       0.3333333333333333 [-]
	 SCS Opposite-Spin Scale   =       1.2000000000000000 [-]
	 SCS Same-Spin Energy      =      -0.2120664170569333 [Eh]
	 SCS Opposite-Spin Energy  =      -2.3662884035855027 [Eh]
	 SCS Correlation Energy    =      -2.5783548206424358 [Eh]
	 SCS Total Energy          =    -573.0501396649606249 [Eh]
	-----------------------------------------------------------

  Dipole Moment: [D]
     X:     1.8621      Y:     1.8549      Z:     0.1619     Total:     2.6333

*** Psi4 exiting successfully. Buy a developer a beer!
