                               Psi4 1.4a3.dev225

  ==> Input File <==

--------------------------------------------------------------------------
#psi4
#
memory 32 gb

molecule  {
0 1
  N       -0.4914050     1.0723760    -0.3164170
  N        1.0085960    -0.7184190    -0.0133500
  C       -1.7100270     0.3982770    -0.1243180
  C        0.8049200     0.5981430    -0.1551110
  C        3.4026260    -0.3179870     0.1123840
  C        1.8688800     1.5249980    -0.1805650
  C        3.1641670     1.0570110    -0.0435420
  C       -2.8187550     1.1723340     0.2577460
  C       -1.8866400    -0.9712620    -0.3801370
  C        2.2803750    -1.1431010     0.1169750
  C        4.8855805    -0.9069115     0.2720594
  C       -4.0754850     0.5909990     0.4048790
  C       -3.1483220    -1.5428300    -0.2100850
  C       -4.2492880    -0.7746780     0.1720620
  H       -0.5683120     2.0807040    -0.2404560
  H        1.6730390     2.5885970    -0.3025930
  H        3.9969070     1.7590030    -0.0564670
  H       -2.6877930     2.2355590     0.4578160
  H       -1.0395640    -1.5738120    -0.6782690
  H        2.3962560    -2.2212150     0.2333330
  H        5.4095350    -0.6367030    -0.6119800
  H        5.2936270    -0.4518060     1.1412500
  H        4.7686350    -1.9575490     0.3752240
  H       -4.9184630     1.2095470     0.7042290
  H       -3.2707080    -2.6065070    -0.4021260
  H       -5.2268190    -1.2338160     0.2940590
units angstrom
no_reorient  #important for SAPT in psi4, default
symmetry c1  #important for SAPT in psi4, default
}

set PROPERTIES_ORIGIN ["COM"]
properties('MP2/aug-cc-pvtz', properties = ['dipole'])
--------------------------------------------------------------------------

    Molecular point group: c1
  Charge       = 0
  Multiplicity = 1
  Basis Set: AUG-CC-PVTZ
    Blend: AUG-CC-PVTZ
  Basis Set: (AUG-CC-PVTZ AUX)
    Blend: AUG-CC-PVTZ-JKFIT

    Orbital Energies [Eh]
    ---------------------

    Doubly Occupied:

       1A    -15.588611     2A    -15.553376     3A    -11.322376
       4A    -11.280663     5A    -11.272522     6A    -11.258112
       7A    -11.238909     8A    -11.238167     9A    -11.233499
      10A    -11.230077    11A    -11.228317    12A    -11.227678
      13A    -11.221192    14A    -11.218132    15A     -1.292581
      16A     -1.219272    17A     -1.132363    18A     -1.090975
      19A     -1.041594    20A     -1.007715    21A     -0.991091
      22A     -0.938274    23A     -0.867102    24A     -0.842616
      25A     -0.820970    26A     -0.797423    27A     -0.723228
      28A     -0.714522    29A     -0.669541    30A     -0.651237
      31A     -0.630565    32A     -0.620796    33A     -0.597173
      34A     -0.594231    35A     -0.589834    36A     -0.580291
      37A     -0.573936    38A     -0.566144    39A     -0.558427
      40A     -0.513311    41A     -0.506168    42A     -0.495855
      43A     -0.487124    44A     -0.455035    45A     -0.412884
      46A     -0.381302    47A     -0.337180    48A     -0.330344
      49A     -0.277026

  @DF-RHF Final Energy:  -570.49177803826956

   => Energetics <=

    Nuclear Repulsion Energy =            789.0181130116931172
    One-Electron Energy =               -2338.1802553698830707
    Two-Electron Energy =                 978.6703643199205089
    Total Energy =                       -570.4917780382695582
  Basis Set: (AUG-CC-PVTZ AUX)
    Blend: AUG-CC-PVTZ-RI
    Molecular point group: c1

    Geometry (in Angstrom), charge = 0, multiplicity = 1:

       Center              X                  Y                   Z               Mass
    ------------   -----------------  -----------------  -----------------  -----------------
         N           -0.466041471337     1.070409268008    -0.312134487985    14.003074004430
         N            1.033959528663    -0.720385731992    -0.009067487985    14.003074004430
         C           -1.684663471337     0.396310268008    -0.120035487985    12.000000000000
         C            0.830283528663     0.596176268008    -0.150828487985    12.000000000000
         C            3.427989528663    -0.319953731992     0.116666512015    12.000000000000
         C            1.894243528663     1.523031268008    -0.176282487985    12.000000000000
         C            3.189530528663     1.055044268008    -0.039259487985    12.000000000000
         C           -2.793391471337     1.170367268008     0.262028512015    12.000000000000
         C           -1.861276471337    -0.973228731992    -0.375854487985    12.000000000000
         C            2.305738528663    -1.145067731992     0.121257512015    12.000000000000
         C            4.910944028663    -0.908878231992     0.276341912015    12.000000000000
         C           -4.050121471337     0.589032268008     0.409161512015    12.000000000000
         C           -3.122958471337    -1.544796731992    -0.205802487985    12.000000000000
         C           -4.223924471337    -0.776644731992     0.176344512015    12.000000000000
         H           -0.542948471337     2.078737268008    -0.236173487985     1.007825032230
         H            1.698402528663     2.586630268008    -0.298310487985     1.007825032230
         H            4.022270528663     1.757036268008    -0.052184487985     1.007825032230
         H           -2.662429471337     2.233592268008     0.462098512015     1.007825032230
         H           -1.014200471337    -1.575778731992    -0.673986487985     1.007825032230
         H            2.421619528663    -2.223181731992     0.237615512015     1.007825032230
         H            5.434898528663    -0.638669731992    -0.607697487985     1.007825032230
         H            5.318990528663    -0.453772731992     1.145532512015     1.007825032230
         H            4.793998528663    -1.959515731992     0.379506512015     1.007825032230
         H           -4.893099471337     1.207580268008     0.708511512015     1.007825032230
         H           -3.245344471337    -2.608473731992    -0.397843487985     1.007825032230
         H           -5.201455471337    -1.235782731992     0.298341512015     1.007825032230

  Basis Set: AUG-CC-PVTZ
    Blend: AUG-CC-PVTZ
  Basis Set: (AUG-CC-PVTZ AUX)
    Blend: AUG-CC-PVTZ-JKFIT
	 Reference Energy          =    -570.4917780382695582 [Eh]
	 Singles Energy            =      -0.0000000000000000 [Eh]
	 Same-Spin Energy          =      -0.6359658404599557 [Eh]
	 Opposite-Spin Energy      =      -1.9707934441679305 [Eh]
	 Correlation Energy        =      -2.6067592846278860 [Eh]
	 Total Energy              =    -573.0985373228974140 [Eh]

	 ================> DF-SCS-MP2 Energies <==================
	-----------------------------------------------------------
	 SCS Same-Spin Scale       =       0.3333333333333333 [-]
	 SCS Opposite-Spin Scale   =       1.2000000000000000 [-]
	 SCS Same-Spin Energy      =      -0.2119886134866519 [Eh]
	 SCS Opposite-Spin Energy  =      -2.3649521330015166 [Eh]
	 SCS Correlation Energy    =      -2.5769407464881686 [Eh]
	 SCS Total Energy          =    -573.0687187847577206 [Eh]
	-----------------------------------------------------------

  Dipole Moment: [D]
     X:     1.8854      Y:     1.8485      Z:     0.1641     Total:     2.6454

*** Psi4 exiting successfully. Buy a developer a beer!
