                               Psi4 1.4a3.dev225

  ==> Input File <==

--------------------------------------------------------------------------
#psi4
#
memory 32 gb

molecule  {
0 1
  N       -0.4914050     1.0723760    -0.3164170
  N        1.0085960    -0.7184190    -0.0133500
  C       -1.6848290     0.3581110    -0.1116836
  C        0.8049200     0.5981430    -0.1551110
  C        3.4026260    -0.3179870     0.1123840
  C        1.8688800     1.5249980    -0.1805650
  C        3.1641670     1.0570110    -0.0435420
  C       -2.8187550     1.1723340     0.2577460
  C       -1.8866400    -0.9712620    -0.3801370
  C        2.2803750    -1.1431010     0.1169750
  C        4.7931030    -0.8701860     0.2621020
  C       -4.0754850     0.5909990     0.4048790
  C       -3.1483220    -1.5428300    -0.2100850
  C       -4.2492880    -0.7746780     0.1720620
  H       -0.5683120     2.0807040    -0.2404560
  H        1.6730390     2.5885970    -0.3025930
  H        3.9969070     1.7590030    -0.0564670
  H       -2.6877930     2.2355590     0.4578160
  H       -1.0395640    -1.5738120    -0.6782690
  H        2.3962560    -2.2212150     0.2333330
  H        5.4095350    -0.6367030    -0.6119800
  H        5.2936270    -0.4518060     1.1412500
  H        4.7686350    -1.9575490     0.3752240
  H       -4.9184630     1.2095470     0.7042290
  H       -3.2707080    -2.6065070    -0.4021260
  H       -5.2268190    -1.2338160     0.2940590
units angstrom
no_reorient  #important for SAPT in psi4, default
symmetry c1  #important for SAPT in psi4, default
}

set PROPERTIES_ORIGIN ["COM"]
properties('MP2/aug-cc-pvtz', properties = ['dipole'])
--------------------------------------------------------------------------

    Molecular point group: c1
  Charge       = 0
  Multiplicity = 1
  Basis Set: AUG-CC-PVTZ
    Blend: AUG-CC-PVTZ
  Basis Set: (AUG-CC-PVTZ AUX)
    Blend: AUG-CC-PVTZ-JKFIT

    Orbital Energies [Eh]
    ---------------------

    Doubly Occupied:

       1A    -15.589527     2A    -15.553571     3A    -11.321841
       4A    -11.280867     5A    -11.272692     6A    -11.258274
       7A    -11.238513     8A    -11.235147     9A    -11.233739
      10A    -11.232146    11A    -11.231031    12A    -11.228831
      13A    -11.221513    14A    -11.214386    15A     -1.293442
      16A     -1.219623    17A     -1.132493    18A     -1.096783
      19A     -1.045357    20A     -1.009372    21A     -0.991873
      22A     -0.934761    23A     -0.868590    24A     -0.840058
      25A     -0.823274    26A     -0.796107    27A     -0.722203
      28A     -0.716917    29A     -0.671009    30A     -0.653285
      31A     -0.637284    32A     -0.620533    33A     -0.598637
      34A     -0.593576    35A     -0.586631    36A     -0.577926
      37A     -0.569623    38A     -0.562656    39A     -0.546702
      40A     -0.518979    41A     -0.510909    42A     -0.504727
      43A     -0.485783    44A     -0.453951    45A     -0.413848
      46A     -0.381260    47A     -0.336160    48A     -0.330899
      49A     -0.277013

  @DF-RHF Final Energy:  -570.49620566981957

   => Energetics <=

    Nuclear Repulsion Energy =            790.9593036174323970
    One-Electron Energy =               -2342.0423717651642619
    Two-Electron Energy =                 980.5868624779122911
    Total Energy =                       -570.4962056698195738
  Basis Set: (AUG-CC-PVTZ AUX)
    Blend: AUG-CC-PVTZ-RI
    Molecular point group: c1

    Geometry (in Angstrom), charge = 0, multiplicity = 1:

       Center              X                  Y                   Z               Mass
    ------------   -----------------  -----------------  -----------------  -----------------
         N           -0.461656062387     1.070633526504    -0.312308980063    14.003074004430
         N            1.038344937613    -0.720161473496    -0.009241980063    14.003074004430
         C           -1.655080062387     0.356368526504    -0.107575580063    12.000000000000
         C            0.834668937613     0.596400526504    -0.151002980063    12.000000000000
         C            3.432374937613    -0.319729473496     0.116492019937    12.000000000000
         C            1.898628937613     1.523255526504    -0.176456980063    12.000000000000
         C            3.193915937613     1.055268526504    -0.039433980063    12.000000000000
         C           -2.789006062387     1.170591526504     0.261854019937    12.000000000000
         C           -1.856891062387    -0.973004473496    -0.376028980063    12.000000000000
         C            2.310123937613    -1.144843473496     0.121083019937    12.000000000000
         C            4.822851937613    -0.871928473496     0.266210019937    12.000000000000
         C           -4.045736062387     0.589256526504     0.408987019937    12.000000000000
         C           -3.118573062387    -1.544572473496    -0.205976980063    12.000000000000
         C           -4.219539062387    -0.776420473496     0.176170019937    12.000000000000
         H           -0.538563062387     2.078961526504    -0.236347980063     1.007825032230
         H            1.702787937613     2.586854526504    -0.298484980063     1.007825032230
         H            4.026655937613     1.757260526504    -0.052358980063     1.007825032230
         H           -2.658044062387     2.233816526504     0.461924019937     1.007825032230
         H           -1.009815062387    -1.575554473496    -0.674160980063     1.007825032230
         H            2.426004937613    -2.222957473496     0.237441019937     1.007825032230
         H            5.439283937613    -0.638445473496    -0.607871980063     1.007825032230
         H            5.323375937613    -0.453548473496     1.145358019937     1.007825032230
         H            4.798383937613    -1.959291473496     0.379332019937     1.007825032230
         H           -4.888714062387     1.207804526504     0.708337019937     1.007825032230
         H           -3.240959062387    -2.608249473496    -0.398017980063     1.007825032230
         H           -5.197070062387    -1.235558473496     0.298167019937     1.007825032230

  Basis Set: AUG-CC-PVTZ
    Blend: AUG-CC-PVTZ
  Basis Set: (AUG-CC-PVTZ AUX)
    Blend: AUG-CC-PVTZ-JKFIT
	 Reference Energy          =    -570.4962056698195738 [Eh]
	 Singles Energy            =      -0.0000000000000000 [Eh]
	 Same-Spin Energy          =      -0.6363948536830956 [Eh]
	 Opposite-Spin Energy      =      -1.9710875444709615 [Eh]
	 Correlation Energy        =      -2.6074823981540569 [Eh]
	 Total Energy              =    -573.1036880679736214 [Eh]

	 ================> DF-SCS-MP2 Energies <==================
	-----------------------------------------------------------
	 SCS Same-Spin Scale       =       0.3333333333333333 [-]
	 SCS Opposite-Spin Scale   =       1.2000000000000000 [-]
	 SCS Same-Spin Energy      =      -0.2121316178943652 [Eh]
	 SCS Opposite-Spin Energy  =      -2.3653050533651538 [Eh]
	 SCS Correlation Energy    =      -2.5774366712595191 [Eh]
	 SCS Total Energy          =    -573.0736423410791076 [Eh]
	-----------------------------------------------------------

  Dipole Moment: [D]
     X:     1.8549      Y:     1.8595      Z:     0.1596     Total:     2.6313

*** Psi4 exiting successfully. Buy a developer a beer!
