                               Psi4 1.4a3.dev225

  ==> Input File <==

--------------------------------------------------------------------------
#psi4
#
memory 32 gb

molecule  {
0 1
  N       -0.4914050     1.0723760    -0.3164170
  N        1.0085960    -0.7184190    -0.0133500
  C       -1.7100270     0.3982770    -0.1243180
  C        0.8049200     0.5981430    -0.1551110
  C        3.4197477    -0.2613456     0.1990605
  C        1.8688800     1.5249980    -0.1805650
  C        3.1641670     1.0570110    -0.0435420
  C       -2.8187550     1.1723340     0.2577460
  C       -1.8866400    -0.9712620    -0.3801370
  C        2.2803750    -1.1431010     0.1169750
  C        4.7931030    -0.8701860     0.2621020
  C       -4.0754850     0.5909990     0.4048790
  C       -3.1483220    -1.5428300    -0.2100850
  C       -4.2492880    -0.7746780     0.1720620
  H       -0.5683120     2.0807040    -0.2404560
  H        1.6730390     2.5885970    -0.3025930
  H        3.9969070     1.7590030    -0.0564670
  H       -2.6877930     2.2355590     0.4578160
  H       -1.0395640    -1.5738120    -0.6782690
  H        2.3962560    -2.2212150     0.2333330
  H        5.4095350    -0.6367030    -0.6119800
  H        5.2936270    -0.4518060     1.1412500
  H        4.7686350    -1.9575490     0.3752240
  H       -4.9184630     1.2095470     0.7042290
  H       -3.2707080    -2.6065070    -0.4021260
  H       -5.2268190    -1.2338160     0.2940590
units angstrom
no_reorient  #important for SAPT in psi4, default
symmetry c1  #important for SAPT in psi4, default
}

set PROPERTIES_ORIGIN ["COM"]
properties('MP2/aug-cc-pvtz', properties = ['dipole'])
--------------------------------------------------------------------------

    Molecular point group: c1
  Charge       = 0
  Multiplicity = 1
  Basis Set: AUG-CC-PVTZ
    Blend: AUG-CC-PVTZ
  Basis Set: (AUG-CC-PVTZ AUX)
    Blend: AUG-CC-PVTZ-JKFIT

    Orbital Energies [Eh]
    ---------------------

    Doubly Occupied:

       1A    -15.588231     2A    -15.557059     3A    -11.322215
       4A    -11.281927     5A    -11.280807     6A    -11.252614
       7A    -11.237027     8A    -11.236034     9A    -11.233626
      10A    -11.230297    11A    -11.229367    12A    -11.228274
      13A    -11.221191    14A    -11.218261    15A     -1.293166
      16A     -1.220066    17A     -1.132482    18A     -1.101532
      19A     -1.043009    20A     -1.007934    21A     -0.992595
      22A     -0.933880    23A     -0.869647    24A     -0.839846
      25A     -0.822239    26A     -0.795782    27A     -0.723560
      28A     -0.715218    29A     -0.670871    30A     -0.652220
      31A     -0.638089    32A     -0.620960    33A     -0.595492
      34A     -0.592814    35A     -0.588674    36A     -0.579568
      37A     -0.568668    38A     -0.561210    39A     -0.543305
      40A     -0.527150    41A     -0.511299    42A     -0.504307
      43A     -0.487271    44A     -0.453746    45A     -0.412564
      46A     -0.384902    47A     -0.334518    48A     -0.330119
      49A     -0.274708

  @DF-RHF Final Energy:  -570.49196924865453

   => Energetics <=

    Nuclear Repulsion Energy =            790.5433697835451312
    One-Electron Energy =               -2341.1899907003958106
    Two-Electron Energy =                 980.1546516681961521
    Total Energy =                       -570.4919692486545273
  Basis Set: (AUG-CC-PVTZ AUX)
    Blend: AUG-CC-PVTZ-RI
    Molecular point group: c1

    Geometry (in Angstrom), charge = 0, multiplicity = 1:

       Center              X                  Y                   Z               Mass
    ------------   -----------------  -----------------  -----------------  -----------------
         N           -0.461129633411     1.064323431476    -0.317135188463    14.003074004430
         N            1.038871366589    -0.726471568524    -0.014068188463    14.003074004430
         C           -1.679751633411     0.390224431476    -0.125036188463    12.000000000000
         C            0.835195366589     0.590090431476    -0.155829188463    12.000000000000
         C            3.450023066589    -0.269398168524     0.198342311537    12.000000000000
         C            1.899155366589     1.516945431476    -0.181283188463    12.000000000000
         C            3.194442366589     1.048958431476    -0.044260188463    12.000000000000
         C           -2.788479633411     1.164281431476     0.257027811537    12.000000000000
         C           -1.856364633411    -0.979314568524    -0.380855188463    12.000000000000
         C            2.310650366589    -1.151153568524     0.116256811537    12.000000000000
         C            4.823378366589    -0.878238568524     0.261383811537    12.000000000000
         C           -4.045209633411     0.582946431476     0.404160811537    12.000000000000
         C           -3.118046633411    -1.550882568524    -0.210803188463    12.000000000000
         C           -4.219012633411    -0.782730568524     0.171343811537    12.000000000000
         H           -0.538036633411     2.072651431476    -0.241174188463     1.007825032230
         H            1.703314366589     2.580544431476    -0.303311188463     1.007825032230
         H            4.027182366589     1.750950431476    -0.057185188463     1.007825032230
         H           -2.657517633411     2.227506431476     0.457097811537     1.007825032230
         H           -1.009288633411    -1.581864568524    -0.678987188463     1.007825032230
         H            2.426531366589    -2.229267568524     0.232614811537     1.007825032230
         H            5.439810366589    -0.644755568524    -0.612698188463     1.007825032230
         H            5.323902366589    -0.459858568524     1.140531811537     1.007825032230
         H            4.798910366589    -1.965601568524     0.374505811537     1.007825032230
         H           -4.888187633411     1.201494431476     0.703510811537     1.007825032230
         H           -3.240432633411    -2.614559568524    -0.402844188463     1.007825032230
         H           -5.196543633411    -1.241868568524     0.293340811537     1.007825032230

  Basis Set: AUG-CC-PVTZ
    Blend: AUG-CC-PVTZ
  Basis Set: (AUG-CC-PVTZ AUX)
    Blend: AUG-CC-PVTZ-JKFIT
	 Reference Energy          =    -570.4919692486545273 [Eh]
	 Singles Energy            =      -0.0000000000000000 [Eh]
	 Same-Spin Energy          =      -0.6368912242369751 [Eh]
	 Opposite-Spin Energy      =      -1.9716100451446112 [Eh]
	 Correlation Energy        =      -2.6085012693815863 [Eh]
	 Total Energy              =    -573.1004705180361043 [Eh]

	 ================> DF-SCS-MP2 Energies <==================
	-----------------------------------------------------------
	 SCS Same-Spin Scale       =       0.3333333333333333 [-]
	 SCS Opposite-Spin Scale   =       1.2000000000000000 [-]
	 SCS Same-Spin Energy      =      -0.2122970747456583 [Eh]
	 SCS Opposite-Spin Energy  =      -2.3659320541735336 [Eh]
	 SCS Correlation Energy    =      -2.5782291289191921 [Eh]
	 SCS Total Energy          =    -573.0701983775737745 [Eh]
	-----------------------------------------------------------

  Dipole Moment: [D]
     X:     1.8942      Y:     1.7747      Z:     0.1442     Total:     2.5997

*** Psi4 exiting successfully. Buy a developer a beer!
