                               Psi4 1.4a3.dev225

  ==> Input File <==

--------------------------------------------------------------------------
#psi4
#
memory 32 gb

molecule  {
0 1
  N       -0.4914050     1.0723760    -0.3164170
  N        1.0085960    -0.7184190    -0.0133500
  C       -1.6866180     0.3557325    -0.1313792
  C        0.8049200     0.5981430    -0.1551110
  C        3.4026260    -0.3179870     0.1123840
  C        1.8688800     1.5249980    -0.1805650
  C        3.1641670     1.0570110    -0.0435420
  C       -2.8187550     1.1723340     0.2577460
  C       -1.8866400    -0.9712620    -0.3801370
  C        2.2803750    -1.1431010     0.1169750
  C        4.7931030    -0.8701860     0.2621020
  C       -4.0754850     0.5909990     0.4048790
  C       -3.1483220    -1.5428300    -0.2100850
  C       -4.2492880    -0.7746780     0.1720620
  H       -0.5683120     2.0807040    -0.2404560
  H        1.6730390     2.5885970    -0.3025930
  H        3.9969070     1.7590030    -0.0564670
  H       -2.6877930     2.2355590     0.4578160
  H       -1.0395640    -1.5738120    -0.6782690
  H        2.3962560    -2.2212150     0.2333330
  H        5.4095350    -0.6367030    -0.6119800
  H        5.2936270    -0.4518060     1.1412500
  H        4.7686350    -1.9575490     0.3752240
  H       -4.9184630     1.2095470     0.7042290
  H       -3.2707080    -2.6065070    -0.4021260
  H       -5.2268190    -1.2338160     0.2940590
units angstrom
no_reorient  #important for SAPT in psi4, default
symmetry c1  #important for SAPT in psi4, default
}

set PROPERTIES_ORIGIN ["COM"]
properties('MP2/aug-cc-pvtz', properties = ['dipole'])
--------------------------------------------------------------------------

    Molecular point group: c1
  Charge       = 0
  Multiplicity = 1
  Basis Set: AUG-CC-PVTZ
    Blend: AUG-CC-PVTZ
  Basis Set: (AUG-CC-PVTZ AUX)
    Blend: AUG-CC-PVTZ-JKFIT

    Orbital Energies [Eh]
    ---------------------

    Doubly Occupied:

       1A    -15.589550     2A    -15.553500     3A    -11.321890
       4A    -11.280816     5A    -11.272652     6A    -11.258250
       7A    -11.238480     8A    -11.235083     9A    -11.233840
      10A    -11.232472    11A    -11.231208    12A    -11.228796
      13A    -11.221452    14A    -11.213558    15A     -1.293342
      16A     -1.219546    17A     -1.132638    18A     -1.096742
      19A     -1.045343    20A     -1.009901    21A     -0.991671
      22A     -0.934783    23A     -0.868577    24A     -0.840053
      25A     -0.823767    26A     -0.795767    27A     -0.722137
      28A     -0.717152    29A     -0.671117    30A     -0.653279
      31A     -0.637322    32A     -0.620405    33A     -0.599227
      34A     -0.593689    35A     -0.586408    36A     -0.577671
      37A     -0.569703    38A     -0.562550    39A     -0.546667
      40A     -0.518904    41A     -0.510833    42A     -0.505147
      43A     -0.485598    44A     -0.453812    45A     -0.413695
      46A     -0.381238    47A     -0.336707    48A     -0.330699
      49A     -0.276874

  @DF-RHF Final Energy:  -570.49590791363562

   => Energetics <=

    Nuclear Repulsion Energy =            790.9614135961674037
    One-Electron Energy =               -2342.0456204603583501
    Two-Electron Energy =                 980.5882989505553269
    Total Energy =                       -570.4959079136356195
  Basis Set: (AUG-CC-PVTZ AUX)
    Blend: AUG-CC-PVTZ-RI
    Molecular point group: c1

    Geometry (in Angstrom), charge = 0, multiplicity = 1:

       Center              X                  Y                   Z               Mass
    ------------   -----------------  -----------------  -----------------  -----------------
         N           -0.461539451880     1.070788561770    -0.311025182464    14.003074004430
         N            1.038461548120    -0.720006438230    -0.007958182464    14.003074004430
         C           -1.656752451880     0.354145061770    -0.125987382464    12.000000000000
         C            0.834785548120     0.596555561770    -0.149719182464    12.000000000000
         C            3.432491548120    -0.319574438230     0.117775817536    12.000000000000
         C            1.898745548120     1.523410561770    -0.175173182464    12.000000000000
         C            3.194032548120     1.055423561770    -0.038150182464    12.000000000000
         C           -2.788889451880     1.170746561770     0.263137817536    12.000000000000
         C           -1.856774451880    -0.972849438230    -0.374745182464    12.000000000000
         C            2.310240548120    -1.144688438230     0.122366817536    12.000000000000
         C            4.822968548120    -0.871773438230     0.267493817536    12.000000000000
         C           -4.045619451880     0.589411561770     0.410270817536    12.000000000000
         C           -3.118456451880    -1.544417438230    -0.204693182464    12.000000000000
         C           -4.219422451880    -0.776265438230     0.177453817536    12.000000000000
         H           -0.538446451880     2.079116561770    -0.235064182464     1.007825032230
         H            1.702904548120     2.587009561770    -0.297201182464     1.007825032230
         H            4.026772548120     1.757415561770    -0.051075182464     1.007825032230
         H           -2.657927451880     2.233971561770     0.463207817536     1.007825032230
         H           -1.009698451880    -1.575399438230    -0.672877182464     1.007825032230
         H            2.426121548120    -2.222802438230     0.238724817536     1.007825032230
         H            5.439400548120    -0.638290438230    -0.606588182464     1.007825032230
         H            5.323492548120    -0.453393438230     1.146641817536     1.007825032230
         H            4.798500548120    -1.959136438230     0.380615817536     1.007825032230
         H           -4.888597451880     1.207959561770     0.709620817536     1.007825032230
         H           -3.240842451880    -2.608094438230    -0.396734182464     1.007825032230
         H           -5.196953451880    -1.235403438230     0.299450817536     1.007825032230

  Basis Set: AUG-CC-PVTZ
    Blend: AUG-CC-PVTZ
  Basis Set: (AUG-CC-PVTZ AUX)
    Blend: AUG-CC-PVTZ-JKFIT
	 Reference Energy          =    -570.4959079136356195 [Eh]
	 Singles Energy            =      -0.0000000000000000 [Eh]
	 Same-Spin Energy          =      -0.6363488940215418 [Eh]
	 Opposite-Spin Energy      =      -1.9710607293039488 [Eh]
	 Correlation Energy        =      -2.6074096233254904 [Eh]
	 Total Energy              =    -573.1033175369610717 [Eh]

	 ================> DF-SCS-MP2 Energies <==================
	-----------------------------------------------------------
	 SCS Same-Spin Scale       =       0.3333333333333333 [-]
	 SCS Opposite-Spin Scale   =       1.2000000000000000 [-]
	 SCS Same-Spin Energy      =      -0.2121162980071806 [Eh]
	 SCS Opposite-Spin Energy  =      -2.3652728751647385 [Eh]
	 SCS Correlation Energy    =      -2.5773891731719192 [Eh]
	 SCS Total Energy          =    -573.0732970868075427 [Eh]
	-----------------------------------------------------------

  Dipole Moment: [D]
     X:     1.8520      Y:     1.8609      Z:     0.1557     Total:     2.6300

*** Psi4 exiting successfully. Buy a developer a beer!
