                               Psi4 1.4a3.dev225

  ==> Input File <==

--------------------------------------------------------------------------
#psi4
#
memory 32 gb

molecule  {
0 1
  N       -0.4914050     1.0723760    -0.3164170
  N        1.0085960    -0.7184190    -0.0133500
  C       -1.7100270     0.3982770    -0.1243180
  C        0.8049200     0.5981430    -0.1551110
  C        3.3784987    -0.3220968     0.1111147
  C        1.8688800     1.5249980    -0.1805650
  C        3.1641670     1.0570110    -0.0435420
  C       -2.8187550     1.1723340     0.2577460
  C       -1.8866400    -0.9712620    -0.3801370
  C        2.2803750    -1.1431010     0.1169750
  C        4.7931030    -0.8701860     0.2621020
  C       -4.0754850     0.5909990     0.4048790
  C       -3.1483220    -1.5428300    -0.2100850
  C       -4.2492880    -0.7746780     0.1720620
  H       -0.5683120     2.0807040    -0.2404560
  H        1.6730390     2.5885970    -0.3025930
  H        3.9969070     1.7590030    -0.0564670
  H       -2.6877930     2.2355590     0.4578160
  H       -1.0395640    -1.5738120    -0.6782690
  H        2.3962560    -2.2212150     0.2333330
  H        5.4095350    -0.6367030    -0.6119800
  H        5.2936270    -0.4518060     1.1412500
  H        4.7686350    -1.9575490     0.3752240
  H       -4.9184630     1.2095470     0.7042290
  H       -3.2707080    -2.6065070    -0.4021260
  H       -5.2268190    -1.2338160     0.2940590
units angstrom
no_reorient  #important for SAPT in psi4, default
symmetry c1  #important for SAPT in psi4, default
}

set PROPERTIES_ORIGIN ["COM"]
properties('MP2/aug-cc-pvtz', properties = ['dipole'])
--------------------------------------------------------------------------

    Molecular point group: c1
  Charge       = 0
  Multiplicity = 1
  Basis Set: AUG-CC-PVTZ
    Blend: AUG-CC-PVTZ
  Basis Set: (AUG-CC-PVTZ AUX)
    Blend: AUG-CC-PVTZ-JKFIT

    Orbital Energies [Eh]
    ---------------------

    Doubly Occupied:

       1A    -15.589164     2A    -15.552647     3A    -11.322989
       4A    -11.280907     5A    -11.269427     6A    -11.259053
       7A    -11.239534     8A    -11.233758     9A    -11.233703
      10A    -11.230252    11A    -11.229403    12A    -11.228607
      13A    -11.221444    14A    -11.218364    15A     -1.293291
      16A     -1.220784    17A     -1.132873    18A     -1.096255
      19A     -1.046090    20A     -1.007976    21A     -0.992357
      22A     -0.934341    23A     -0.869666    24A     -0.841687
      25A     -0.821025    26A     -0.798713    27A     -0.724183
      28A     -0.715751    29A     -0.670473    30A     -0.653683
      31A     -0.635563    32A     -0.621830    33A     -0.595797
      34A     -0.594104    35A     -0.588076    36A     -0.579549
      37A     -0.569017    38A     -0.564009    39A     -0.546474
      40A     -0.515000    41A     -0.510298    42A     -0.503633
      43A     -0.487400    44A     -0.454958    45A     -0.414821
      46A     -0.381083    47A     -0.338078    48A     -0.330557
      49A     -0.277924

  @DF-RHF Final Energy:  -570.49886531892173

   => Energetics <=

    Nuclear Repulsion Energy =            791.0726068758920064
    One-Electron Energy =               -2342.2698034171053223
    Two-Electron Energy =                 980.6983312222915856
    Total Energy =                       -570.4988653189217302
  Basis Set: (AUG-CC-PVTZ AUX)
    Blend: AUG-CC-PVTZ-RI
    Molecular point group: c1

    Geometry (in Angstrom), charge = 0, multiplicity = 1:

       Center              X                  Y                   Z               Mass
    ------------   -----------------  -----------------  -----------------  -----------------
         N           -0.458440943189     1.068283313107    -0.311402709796    14.003074004430
         N            1.041560056811    -0.722511686893    -0.008335709796    14.003074004430
         C           -1.677062943189     0.394184313107    -0.119303709796    12.000000000000
         C            0.837884056811     0.594050313107    -0.150096709796    12.000000000000
         C            3.411462756811    -0.326189486893     0.116128990204    12.000000000000
         C            1.901844056811     1.520905313107    -0.175550709796    12.000000000000
         C            3.197131056811     1.052918313107    -0.038527709796    12.000000000000
         C           -2.785790943189     1.168241313107     0.262760290204    12.000000000000
         C           -1.853675943189    -0.975354686893    -0.375122709796    12.000000000000
         C            2.313339056811    -1.147193686893     0.121989290204    12.000000000000
         C            4.826067056811    -0.874278686893     0.267116290204    12.000000000000
         C           -4.042520943189     0.586906313107     0.409893290204    12.000000000000
         C           -3.115357943189    -1.546922686893    -0.205070709796    12.000000000000
         C           -4.216323943189    -0.778770686893     0.177076290204    12.000000000000
         H           -0.535347943189     2.076611313107    -0.235441709796     1.007825032230
         H            1.706003056811     2.584504313107    -0.297578709796     1.007825032230
         H            4.029871056811     1.754910313107    -0.051452709796     1.007825032230
         H           -2.654828943189     2.231466313107     0.462830290204     1.007825032230
         H           -1.006599943189    -1.577904686893    -0.673254709796     1.007825032230
         H            2.429220056811    -2.225307686893     0.238347290204     1.007825032230
         H            5.442499056811    -0.640795686893    -0.606965709796     1.007825032230
         H            5.326591056811    -0.455898686893     1.146264290204     1.007825032230
         H            4.801599056811    -1.961641686893     0.380238290204     1.007825032230
         H           -4.885498943189     1.205454313107     0.709243290204     1.007825032230
         H           -3.237743943189    -2.610599686893    -0.397111709796     1.007825032230
         H           -5.193854943189    -1.237908686893     0.299073290204     1.007825032230

  Basis Set: AUG-CC-PVTZ
    Blend: AUG-CC-PVTZ
  Basis Set: (AUG-CC-PVTZ AUX)
    Blend: AUG-CC-PVTZ-JKFIT
	 Reference Energy          =    -570.4988653189217302 [Eh]
	 Singles Energy            =      -0.0000000000000000 [Eh]
	 Same-Spin Energy          =      -0.6361566836698671 [Eh]
	 Opposite-Spin Energy      =      -1.9705966747986128 [Eh]
	 Correlation Energy        =      -2.6067533584684801 [Eh]
	 Total Energy              =    -573.1056186773902255 [Eh]

	 ================> DF-SCS-MP2 Energies <==================
	-----------------------------------------------------------
	 SCS Same-Spin Scale       =       0.3333333333333333 [-]
	 SCS Opposite-Spin Scale   =       1.2000000000000000 [-]
	 SCS Same-Spin Energy      =      -0.2120522278899557 [Eh]
	 SCS Opposite-Spin Energy  =      -2.3647160097583351 [Eh]
	 SCS Correlation Energy    =      -2.5767682376482908 [Eh]
	 SCS Total Energy          =    -573.0756335565699828 [Eh]
	-----------------------------------------------------------

  Dipole Moment: [D]
     X:     1.8454      Y:     1.8819      Z:     0.1587     Total:     2.6406

*** Psi4 exiting successfully. Buy a developer a beer!
