                               Psi4 1.4a3.dev225

  ==> Input File <==

--------------------------------------------------------------------------
#psi4
#
memory 32 gb

molecule  {
0 1
  N       -0.4914050     1.0723760    -0.3164170
  N        1.0085960    -0.7184190    -0.0133500
  C       -1.7100270     0.3982770    -0.1243180
  C        0.8049200     0.5981430    -0.1551110
  C        3.4026260    -0.3179870     0.1123840
  C        1.8688800     1.5249980    -0.1805650
  C        3.1641670     1.0570110    -0.0435420
  C       -2.8187550     1.1723340     0.2577460
  C       -1.8866400    -0.9712620    -0.3801370
  C        2.2803750    -1.1431010     0.1169750
  C        4.7931030    -0.8701860     0.2621020
  C       -4.0754850     0.5909990     0.4048790
  C       -3.1483220    -1.5428300    -0.2100850
  C       -4.2492880    -0.7746780     0.1720620
  H       -0.5683120     2.0807040    -0.2404560
  H        1.6730390     2.5885970    -0.3025930
  H        3.9969070     1.7590030    -0.0564670
  H       -2.6877930     2.2355590     0.4578160
  H       -1.0395640    -1.5738120    -0.6782690
  H        2.3962560    -2.2212150     0.2333330
  H        5.4124656    -0.6553877    -0.6146955
  H        5.2936270    -0.4518060     1.1412500
  H        4.7686350    -1.9575490     0.3752240
  H       -4.9184630     1.2095470     0.7042290
  H       -3.2707080    -2.6065070    -0.4021260
  H       -5.2268190    -1.2338160     0.2940590
units angstrom
no_reorient  #important for SAPT in psi4, default
symmetry c1  #important for SAPT in psi4, default
}

set PROPERTIES_ORIGIN ["COM"]
properties('MP2/aug-cc-pvtz', properties = ['dipole'])
--------------------------------------------------------------------------

    Molecular point group: c1
  Charge       = 0
  Multiplicity = 1
  Basis Set: AUG-CC-PVTZ
    Blend: AUG-CC-PVTZ
  Basis Set: (AUG-CC-PVTZ AUX)
    Blend: AUG-CC-PVTZ-JKFIT

    Orbital Energies [Eh]
    ---------------------

    Doubly Occupied:

       1A    -15.589160     2A    -15.553748     3A    -11.323049
       4A    -11.280959     5A    -11.272860     6A    -11.258459
       7A    -11.238829     8A    -11.235353     9A    -11.233746
      10A    -11.230321    11A    -11.228837    12A    -11.228616
      13A    -11.221463    14A    -11.218434    15A     -1.293159
      16A     -1.220152    17A     -1.132816    18A     -1.096895
      19A     -1.045948    20A     -1.008060    21A     -0.993072
      22A     -0.934893    23A     -0.868518    24A     -0.841301
      25A     -0.821231    26A     -0.797949    27A     -0.723675
      28A     -0.715541    29A     -0.670593    30A     -0.653260
      31A     -0.637294    32A     -0.621287    33A     -0.595633
      34A     -0.593585    35A     -0.588776    36A     -0.579598
      37A     -0.569536    38A     -0.562877    39A     -0.545512
      40A     -0.519139    41A     -0.511304    42A     -0.504109
      43A     -0.487376    44A     -0.454175    45A     -0.414397
      46A     -0.381445    47A     -0.336650    48A     -0.330506
      49A     -0.276985

  @DF-RHF Final Energy:  -570.49892667926076

   => Energetics <=

    Nuclear Repulsion Energy =            790.7495469375006678
    One-Electron Energy =               -2341.6147867123227115
    Two-Electron Energy =                 980.3663130955611678
    Total Energy =                       -570.4989266792607623
  Basis Set: (AUG-CC-PVTZ AUX)
    Blend: AUG-CC-PVTZ-RI
    Molecular point group: c1

    Geometry (in Angstrom), charge = 0, multiplicity = 1:

       Center              X                  Y                   Z               Mass
    ------------   -----------------  -----------------  -----------------  -----------------
         N           -0.460029650713     1.068117714609    -0.311470579692    14.003074004430
         N            1.039971349287    -0.722677285391    -0.008403579692    14.003074004430
         C           -1.678651650713     0.394018714609    -0.119371579692    12.000000000000
         C            0.836295349287     0.593884714609    -0.150164579692    12.000000000000
         C            3.434001349287    -0.322245285391     0.117330420308    12.000000000000
         C            1.900255349287     1.520739714609    -0.175618579692    12.000000000000
         C            3.195542349287     1.052752714609    -0.038595579692    12.000000000000
         C           -2.787379650713     1.168075714609     0.262692420308    12.000000000000
         C           -1.855264650713    -0.975520285391    -0.375190579692    12.000000000000
         C            2.311750349287    -1.147359285391     0.121921420308    12.000000000000
         C            4.824478349287    -0.874444285391     0.267048420308    12.000000000000
         C           -4.044109650713     0.586740714609     0.409825420308    12.000000000000
         C           -3.116946650713    -1.547088285391    -0.205138579692    12.000000000000
         C           -4.217912650713    -0.778936285391     0.177008420308    12.000000000000
         H           -0.536936650713     2.076445714609    -0.235509579692     1.007825032230
         H            1.704414349287     2.584338714609    -0.297646579692     1.007825032230
         H            4.028282349287     1.754744714609    -0.051520579692     1.007825032230
         H           -2.656417650713     2.231300714609     0.462762420308     1.007825032230
         H           -1.008188650713    -1.578070285391    -0.673322579692     1.007825032230
         H            2.427631349287    -2.225473285391     0.238279420308     1.007825032230
         H            5.443840949287    -0.659645985391    -0.609749079692     1.007825032230
         H            5.325002349287    -0.456064285391     1.146196420308     1.007825032230
         H            4.800010349287    -1.961807285391     0.380170420308     1.007825032230
         H           -4.887087650713     1.205288714609     0.709175420308     1.007825032230
         H           -3.239332650713    -2.610765285391    -0.397179579692     1.007825032230
         H           -5.195443650713    -1.238074285391     0.299005420308     1.007825032230

  Basis Set: AUG-CC-PVTZ
    Blend: AUG-CC-PVTZ
  Basis Set: (AUG-CC-PVTZ AUX)
    Blend: AUG-CC-PVTZ-JKFIT
	 Reference Energy          =    -570.4989266792607623 [Eh]
	 Singles Energy            =      -0.0000000000000000 [Eh]
	 Same-Spin Energy          =      -0.6364037987451664 [Eh]
	 Opposite-Spin Energy      =      -1.9708711369220624 [Eh]
	 Correlation Energy        =      -2.6072749356672289 [Eh]
	 Total Energy              =    -573.1062016149279543 [Eh]

	 ================> DF-SCS-MP2 Energies <==================
	-----------------------------------------------------------
	 SCS Same-Spin Scale       =       0.3333333333333333 [-]
	 SCS Opposite-Spin Scale   =       1.2000000000000000 [-]
	 SCS Same-Spin Energy      =      -0.2121345995817221 [Eh]
	 SCS Opposite-Spin Energy  =      -2.3650453643064746 [Eh]
	 SCS Correlation Energy    =      -2.5771799638881969 [Eh]
	 SCS Total Energy          =    -573.0761066431489326 [Eh]
	-----------------------------------------------------------

  Dipole Moment: [D]
     X:     1.8659      Y:     1.8492      Z:     0.1598     Total:     2.6318

*** Psi4 exiting successfully. Buy a developer a beer!
