                               Psi4 1.4a3.dev225

  ==> Input File <==

--------------------------------------------------------------------------
#psi4
#
memory 32 gb

molecule  {
0 1
  N       -0.4914050     1.0723760    -0.3164170
  N        1.0085960    -0.7184190    -0.0133500
  C       -1.7100270     0.3982770    -0.1243180
  C        0.8049200     0.5981430    -0.1551110
  C        3.4026260    -0.3179870     0.1123840
  C        1.8688800     1.5249980    -0.1805650
  C        3.1641670     1.0570110    -0.0435420
  C       -2.8187550     1.1723340     0.2577460
  C       -1.8866400    -0.9712620    -0.3801370
  C        2.2803750    -1.1431010     0.1169750
  C        4.7931030    -0.8701860     0.2621020
  C       -4.0754850     0.5909990     0.4048790
  C       -3.1483220    -1.5428300    -0.2100850
  C       -4.2492880    -0.7746780     0.1720620
  H       -0.5683120     2.0807040    -0.2404560
  H        1.6730390     2.5885970    -0.3025930
  H        3.9969070     1.7590030    -0.0564670
  H       -2.6877930     2.2355590     0.4578160
  H       -1.0395640    -1.5738120    -0.6782690
  H        2.3962560    -2.2212150     0.2333330
  H        5.4095350    -0.6367030    -0.6119800
  H        5.2707667    -0.4709146     1.1010969
  H        4.7686350    -1.9575490     0.3752240
  H       -4.9184630     1.2095470     0.7042290
  H       -3.2707080    -2.6065070    -0.4021260
  H       -5.2268190    -1.2338160     0.2940590
units angstrom
no_reorient  #important for SAPT in psi4, default
symmetry c1  #important for SAPT in psi4, default
}

set PROPERTIES_ORIGIN ["COM"]
properties('MP2/aug-cc-pvtz', properties = ['dipole'])
--------------------------------------------------------------------------

    Molecular point group: c1
  Charge       = 0
  Multiplicity = 1
  Basis Set: AUG-CC-PVTZ
    Blend: AUG-CC-PVTZ
  Basis Set: (AUG-CC-PVTZ AUX)
    Blend: AUG-CC-PVTZ-JKFIT

    Orbital Energies [Eh]
    ---------------------

    Doubly Occupied:

       1A    -15.588958     2A    -15.553562     3A    -11.322780
       4A    -11.280844     5A    -11.272483     6A    -11.258299
       7A    -11.238706     8A    -11.234943     9A    -11.233650
      10A    -11.230222    11A    -11.228502    12A    -11.222802
      13A    -11.221357    14A    -11.218313    15A     -1.292956
      16A     -1.219956    17A     -1.132705    18A     -1.097248
      19A     -1.046303    20A     -1.007979    21A     -0.993713
      22A     -0.937858    23A     -0.868352    24A     -0.842041
      25A     -0.821199    26A     -0.798015    27A     -0.723549
      28A     -0.715457    29A     -0.670454    30A     -0.653729
      31A     -0.637124    32A     -0.621143    33A     -0.597303
      34A     -0.593812    35A     -0.589742    36A     -0.579753
      37A     -0.572500    38A     -0.562842    39A     -0.548453
      40A     -0.518889    41A     -0.511371    42A     -0.504102
      43A     -0.487271    44A     -0.454223    45A     -0.414237
      46A     -0.381348    47A     -0.336584    48A     -0.330413
      49A     -0.276840

  @DF-RHF Final Energy:  -570.49793927854910

   => Energetics <=

    Nuclear Repulsion Energy =            790.9937627346124600
    One-Electron Energy =               -2342.0936312611265748
    Two-Electron Energy =                 980.6019292479649039
    Total Energy =                       -570.4979392785490973
  Basis Set: (AUG-CC-PVTZ AUX)
    Blend: AUG-CC-PVTZ-RI
    Molecular point group: c1

    Geometry (in Angstrom), charge = 0, multiplicity = 1:

       Center              X                  Y                   Z               Mass
    ------------   -----------------  -----------------  -----------------  -----------------
         N           -0.459888462729     1.068120035179    -0.311265633790    14.003074004430
         N            1.040112537271    -0.722674964821    -0.008198633790    14.003074004430
         C           -1.678510462729     0.394021035179    -0.119166633790    12.000000000000
         C            0.836436537271     0.593887035179    -0.149959633790    12.000000000000
         C            3.434142537271    -0.322242964821     0.117535366210    12.000000000000
         C            1.900396537271     1.520742035179    -0.175413633790    12.000000000000
         C            3.195683537271     1.052755035179    -0.038390633790    12.000000000000
         C           -2.787238462729     1.168078035179     0.262897366210    12.000000000000
         C           -1.855123462729    -0.975517964821    -0.374985633790    12.000000000000
         C            2.311891537271    -1.147356964821     0.122126366210    12.000000000000
         C            4.824619537271    -0.874441964821     0.267253366210    12.000000000000
         C           -4.043968462729     0.586743035179     0.410030366210    12.000000000000
         C           -3.116805462729    -1.547085964821    -0.204933633790    12.000000000000
         C           -4.217771462729    -0.778933964821     0.177213366210    12.000000000000
         H           -0.536795462729     2.076448035179    -0.235304633790     1.007825032230
         H            1.704555537271     2.584341035179    -0.297441633790     1.007825032230
         H            4.028423537271     1.754747035179    -0.051315633790     1.007825032230
         H           -2.656276462729     2.231303035179     0.462967366210     1.007825032230
         H           -1.008047462729    -1.578067964821    -0.673117633790     1.007825032230
         H            2.427772537271    -2.225470964821     0.238484366210     1.007825032230
         H            5.441051537271    -0.640958964821    -0.606828633790     1.007825032230
         H            5.302283237271    -0.475170564821     1.106248266210     1.007825032230
         H            4.800151537271    -1.961804964821     0.380375366210     1.007825032230
         H           -4.886946462729     1.205291035179     0.709380366210     1.007825032230
         H           -3.239191462729    -2.610762964821    -0.396974633790     1.007825032230
         H           -5.195302462729    -1.238071964821     0.299210366210     1.007825032230

  Basis Set: AUG-CC-PVTZ
    Blend: AUG-CC-PVTZ
  Basis Set: (AUG-CC-PVTZ AUX)
    Blend: AUG-CC-PVTZ-JKFIT
	 Reference Energy          =    -570.4979392785490973 [Eh]
	 Singles Energy            =      -0.0000000000000000 [Eh]
	 Same-Spin Energy          =      -0.6364375970025768 [Eh]
	 Opposite-Spin Energy      =      -1.9706404564551889 [Eh]
	 Correlation Energy        =      -2.6070780534577658 [Eh]
	 Total Energy              =    -573.1050173320068097 [Eh]

	 ================> DF-SCS-MP2 Energies <==================
	-----------------------------------------------------------
	 SCS Same-Spin Scale       =       0.3333333333333333 [-]
	 SCS Opposite-Spin Scale   =       1.2000000000000000 [-]
	 SCS Same-Spin Energy      =      -0.2121458656675256 [Eh]
	 SCS Opposite-Spin Energy  =      -2.3647685477462268 [Eh]
	 SCS Correlation Energy    =      -2.5769144134137525 [Eh]
	 SCS Total Energy          =    -573.0748536919628577 [Eh]
	-----------------------------------------------------------

  Dipole Moment: [D]
     X:     1.8976      Y:     1.8547      Z:     0.1780     Total:     2.6594

*** Psi4 exiting successfully. Buy a developer a beer!
