                               Psi4 1.4a3.dev225

  ==> Input File <==

--------------------------------------------------------------------------
#psi4
#
memory 32 gb

molecule  {
0 1
  N       -0.4914050     1.0723760    -0.3164170
  N        1.0085960    -0.7184190    -0.0133500
  C       -1.7100270     0.3982770    -0.1243180
  C        0.8049200     0.5981430    -0.1551110
  C        3.4026260    -0.3179870     0.1123840
  C        1.8688800     1.5249980    -0.1805650
  C        3.2109608     1.0401044    -0.0385919
  C       -2.8187550     1.1723340     0.2577460
  C       -1.8866400    -0.9712620    -0.3801370
  C        2.2803750    -1.1431010     0.1169750
  C        4.7931030    -0.8701860     0.2621020
  C       -4.0754850     0.5909990     0.4048790
  C       -3.1483220    -1.5428300    -0.2100850
  C       -4.2492880    -0.7746780     0.1720620
  H       -0.5683120     2.0807040    -0.2404560
  H        1.6730390     2.5885970    -0.3025930
  H        3.9969070     1.7590030    -0.0564670
  H       -2.6877930     2.2355590     0.4578160
  H       -1.0395640    -1.5738120    -0.6782690
  H        2.3962560    -2.2212150     0.2333330
  H        5.4095350    -0.6367030    -0.6119800
  H        5.2936270    -0.4518060     1.1412500
  H        4.7686350    -1.9575490     0.3752240
  H       -4.9184630     1.2095470     0.7042290
  H       -3.2707080    -2.6065070    -0.4021260
  H       -5.2268190    -1.2338160     0.2940590
units angstrom
no_reorient  #important for SAPT in psi4, default
symmetry c1  #important for SAPT in psi4, default
}

set PROPERTIES_ORIGIN ["COM"]
properties('MP2/aug-cc-pvtz', properties = ['dipole'])
--------------------------------------------------------------------------

    Molecular point group: c1
  Charge       = 0
  Multiplicity = 1
  Basis Set: AUG-CC-PVTZ
    Blend: AUG-CC-PVTZ
  Basis Set: (AUG-CC-PVTZ AUX)
    Blend: AUG-CC-PVTZ-JKFIT

    Orbital Energies [Eh]
    ---------------------

    Doubly Occupied:

       1A    -15.587553     2A    -15.556086     3A    -11.321667
       4A    -11.280487     5A    -11.276040     6A    -11.259600
       7A    -11.241839     8A    -11.235030     9A    -11.233321
      10A    -11.229973    11A    -11.228614    12A    -11.227927
      13A    -11.220863    14A    -11.217911    15A     -1.292483
      16A     -1.220174    17A     -1.132409    18A     -1.098370
      19A     -1.041706    20A     -1.007586    21A     -0.990362
      22A     -0.935473    23A     -0.872878    24A     -0.840020
      25A     -0.820648    26A     -0.798568    27A     -0.724877
      28A     -0.714697    29A     -0.669389    30A     -0.653639
      31A     -0.634977    32A     -0.622579    33A     -0.597172
      34A     -0.593867    35A     -0.588797    36A     -0.579233
      37A     -0.569917    38A     -0.565263    39A     -0.547562
      40A     -0.516034    41A     -0.510565    42A     -0.503137
      43A     -0.487125    44A     -0.454088    45A     -0.416572
      46A     -0.376849    47A     -0.337310    48A     -0.330334
      49A     -0.276397

  @DF-RHF Final Energy:  -570.49488846942074

   => Energetics <=

    Nuclear Repulsion Energy =            790.2908101271756323
    One-Electron Energy =               -2340.6954604622219449
    Two-Electron Energy =                 979.9097618656256827
    Total Energy =                       -570.4948884694207436
  Basis Set: (AUG-CC-PVTZ AUX)
    Blend: AUG-CC-PVTZ-RI
    Molecular point group: c1

    Geometry (in Angstrom), charge = 0, multiplicity = 1:

       Center              X                  Y                   Z               Mass
    ------------   -----------------  -----------------  -----------------  -----------------
         N           -0.463063718725     1.069117433475    -0.311808102411    14.003074004430
         N            1.036937281275    -0.721677566525    -0.008741102411    14.003074004430
         C           -1.681685718725     0.395018433475    -0.119709102411    12.000000000000
         C            0.833261281275     0.594884433475    -0.150502102411    12.000000000000
         C            3.430967281275    -0.321245566525     0.116992897589    12.000000000000
         C            1.897221281275     1.521739433475    -0.175956102411    12.000000000000
         C            3.239302081275     1.036845833475    -0.033983002411    12.000000000000
         C           -2.790413718725     1.169075433475     0.262354897589    12.000000000000
         C           -1.858298718725    -0.974520566525    -0.375528102411    12.000000000000
         C            2.308716281275    -1.146359566525     0.121583897589    12.000000000000
         C            4.821444281275    -0.873444566525     0.266710897589    12.000000000000
         C           -4.047143718725     0.587740433475     0.409487897589    12.000000000000
         C           -3.119980718725    -1.546088566525    -0.205476102411    12.000000000000
         C           -4.220946718725    -0.777936566525     0.176670897589    12.000000000000
         H           -0.539970718725     2.077445433475    -0.235847102411     1.007825032230
         H            1.701380281275     2.585338433475    -0.297984102411     1.007825032230
         H            4.025248281275     1.755744433475    -0.051858102411     1.007825032230
         H           -2.659451718725     2.232300433475     0.462424897589     1.007825032230
         H           -1.011222718725    -1.577070566525    -0.673660102411     1.007825032230
         H            2.424597281275    -2.224473566525     0.237941897589     1.007825032230
         H            5.437876281275    -0.639961566525    -0.607371102411     1.007825032230
         H            5.321968281275    -0.455064566525     1.145858897589     1.007825032230
         H            4.796976281275    -1.960807566525     0.379832897589     1.007825032230
         H           -4.890121718725     1.206288433475     0.708837897589     1.007825032230
         H           -3.242366718725    -2.609765566525    -0.397517102411     1.007825032230
         H           -5.198477718725    -1.237074566525     0.298667897589     1.007825032230

  Basis Set: AUG-CC-PVTZ
    Blend: AUG-CC-PVTZ
  Basis Set: (AUG-CC-PVTZ AUX)
    Blend: AUG-CC-PVTZ-JKFIT
	 Reference Energy          =    -570.4948884694207436 [Eh]
	 Singles Energy            =      -0.0000000000000000 [Eh]
	 Same-Spin Energy          =      -0.6367549924195152 [Eh]
	 Opposite-Spin Energy      =      -1.9714633960833743 [Eh]
	 Correlation Energy        =      -2.6082183885028893 [Eh]
	 Total Energy              =    -573.1031068579236489 [Eh]

	 ================> DF-SCS-MP2 Energies <==================
	-----------------------------------------------------------
	 SCS Same-Spin Scale       =       0.3333333333333333 [-]
	 SCS Opposite-Spin Scale   =       1.2000000000000000 [-]
	 SCS Same-Spin Energy      =      -0.2122516641398384 [Eh]
	 SCS Opposite-Spin Energy  =      -2.3657560753000491 [Eh]
	 SCS Correlation Energy    =      -2.5780077394398875 [Eh]
	 SCS Total Energy          =    -573.0728962088605840 [Eh]
	-----------------------------------------------------------

  Dipole Moment: [D]
     X:     1.9263      Y:     1.8346      Z:     0.1666     Total:     2.6654

*** Psi4 exiting successfully. Buy a developer a beer!
