                               Psi4 1.4a3.dev225

  ==> Input File <==

--------------------------------------------------------------------------
#psi4
#
memory 32 gb

molecule  {
0 1
  N       -0.4914050     1.0723760    -0.3164170
  N        1.0085960    -0.7184190    -0.0133500
  C       -1.7100270     0.3982770    -0.1243180
  C        0.8049200     0.5981430    -0.1551110
  C        3.4983357    -0.2973738     0.1169826
  C        1.8688800     1.5249980    -0.1805650
  C        3.1641670     1.0570110    -0.0435420
  C       -2.8187550     1.1723340     0.2577460
  C       -1.8866400    -0.9712620    -0.3801370
  C        2.2803750    -1.1431010     0.1169750
  C        4.7931030    -0.8701860     0.2621020
  C       -4.0754850     0.5909990     0.4048790
  C       -3.1483220    -1.5428300    -0.2100850
  C       -4.2492880    -0.7746780     0.1720620
  H       -0.5683120     2.0807040    -0.2404560
  H        1.6730390     2.5885970    -0.3025930
  H        3.9969070     1.7590030    -0.0564670
  H       -2.6877930     2.2355590     0.4578160
  H       -1.0395640    -1.5738120    -0.6782690
  H        2.3962560    -2.2212150     0.2333330
  H        5.4095350    -0.6367030    -0.6119800
  H        5.2936270    -0.4518060     1.1412500
  H        4.7686350    -1.9575490     0.3752240
  H       -4.9184630     1.2095470     0.7042290
  H       -3.2707080    -2.6065070    -0.4021260
  H       -5.2268190    -1.2338160     0.2940590
units angstrom
no_reorient  #important for SAPT in psi4, default
symmetry c1  #important for SAPT in psi4, default
}

set PROPERTIES_ORIGIN ["COM"]
properties('MP2/aug-cc-pvtz', properties = ['dipole'])
--------------------------------------------------------------------------

    Molecular point group: c1
  Charge       = 0
  Multiplicity = 1
  Basis Set: AUG-CC-PVTZ
    Blend: AUG-CC-PVTZ
  Basis Set: (AUG-CC-PVTZ AUX)
    Blend: AUG-CC-PVTZ-JKFIT

    Orbital Energies [Eh]
    ---------------------

    Doubly Occupied:

       1A    -15.588877     2A    -15.557906     3A    -11.322803
       4A    -11.284941     5A    -11.281019     6A    -11.256288
       7A    -11.241613     8A    -11.236175     9A    -11.233792
      10A    -11.230474    11A    -11.228501    12A    -11.226845
      13A    -11.221398    14A    -11.218558    15A     -1.292659
      16A     -1.218145    17A     -1.132550    18A     -1.101367
      19A     -1.047211    20A     -1.008295    21A     -0.996375
      22A     -0.936264    23A     -0.865568    24A     -0.838153
      25A     -0.821766    26A     -0.793876    27A     -0.721698
      28A     -0.714739    29A     -0.671251    30A     -0.652970
      31A     -0.643620    32A     -0.619342    33A     -0.595938
      34A     -0.593422    35A     -0.589951    36A     -0.579978
      37A     -0.571622    38A     -0.559938    39A     -0.550600
      40A     -0.532186    41A     -0.509765    42A     -0.503738
      43A     -0.486963    44A     -0.451026    45A     -0.410004
      46A     -0.382829    47A     -0.332501    48A     -0.328833
      49A     -0.272370

  @DF-RHF Final Energy:  -570.48414488003766

   => Energetics <=

    Nuclear Repulsion Energy =            789.6527346371374279
    One-Electron Energy =               -2339.3603528986873243
    Two-Electron Energy =                 979.2234733815122354
    Total Energy =                       -570.4841448800376611
  Basis Set: (AUG-CC-PVTZ AUX)
    Blend: AUG-CC-PVTZ-RI
    Molecular point group: c1

    Geometry (in Angstrom), charge = 0, multiplicity = 1:

       Center              X                  Y                   Z               Mass
    ------------   -----------------  -----------------  -----------------  -----------------
         N           -0.466252152433     1.066671819778    -0.311785190955    14.003074004430
         N            1.033748847567    -0.724123180222    -0.008718190955    14.003074004430
         C           -1.684874152433     0.392572819778    -0.119686190955    12.000000000000
         C            0.830072847567     0.592438819778    -0.150479190955    12.000000000000
         C            3.523488547567    -0.303077980222     0.121614409045    12.000000000000
         C            1.894032847567     1.519293819778    -0.175933190955    12.000000000000
         C            3.189319847567     1.051306819778    -0.038910190955    12.000000000000
         C           -2.793602152433     1.166629819778     0.262377809045    12.000000000000
         C           -1.861487152433    -0.976966180222    -0.375505190955    12.000000000000
         C            2.305527847567    -1.148805180222     0.121606809045    12.000000000000
         C            4.818255847567    -0.875890180222     0.266733809045    12.000000000000
         C           -4.050332152433     0.585294819778     0.409510809045    12.000000000000
         C           -3.123169152433    -1.548534180222    -0.205453190955    12.000000000000
         C           -4.224135152433    -0.780382180222     0.176693809045    12.000000000000
         H           -0.543159152433     2.074999819778    -0.235824190955     1.007825032230
         H            1.698191847567     2.582892819778    -0.297961190955     1.007825032230
         H            4.022059847567     1.753298819778    -0.051835190955     1.007825032230
         H           -2.662640152433     2.229854819778     0.462447809045     1.007825032230
         H           -1.014411152433    -1.579516180222    -0.673637190955     1.007825032230
         H            2.421408847567    -2.226919180222     0.237964809045     1.007825032230
         H            5.434687847567    -0.642407180222    -0.607348190955     1.007825032230
         H            5.318779847567    -0.457510180222     1.145881809045     1.007825032230
         H            4.793787847567    -1.963253180222     0.379855809045     1.007825032230
         H           -4.893310152433     1.203842819778     0.708860809045     1.007825032230
         H           -3.245555152433    -2.612211180222    -0.397494190955     1.007825032230
         H           -5.201666152433    -1.239520180222     0.298690809045     1.007825032230

  Basis Set: AUG-CC-PVTZ
    Blend: AUG-CC-PVTZ
  Basis Set: (AUG-CC-PVTZ AUX)
    Blend: AUG-CC-PVTZ-JKFIT
	 Reference Energy          =    -570.4841448800376611 [Eh]
	 Singles Energy            =      -0.0000000000000000 [Eh]
	 Same-Spin Energy          =      -0.6378294819660487 [Eh]
	 Opposite-Spin Energy      =      -1.9729838753252813 [Eh]
	 Correlation Energy        =      -2.6108133572913301 [Eh]
	 Total Energy              =    -573.0949582373290241 [Eh]

	 ================> DF-SCS-MP2 Energies <==================
	-----------------------------------------------------------
	 SCS Same-Spin Scale       =       0.3333333333333333 [-]
	 SCS Opposite-Spin Scale   =       1.2000000000000000 [-]
	 SCS Same-Spin Energy      =      -0.2126098273220162 [Eh]
	 SCS Opposite-Spin Energy  =      -2.3675806503903374 [Eh]
	 SCS Correlation Energy    =      -2.5801904777123537 [Eh]
	 SCS Total Energy          =    -573.0643353577499965 [Eh]
	-----------------------------------------------------------

  Dipole Moment: [D]
     X:     1.9814      Y:     1.7354      Z:     0.1816     Total:     2.6401

*** Psi4 exiting successfully. Buy a developer a beer!
