                               Psi4 1.4a3.dev225

  ==> Input File <==

--------------------------------------------------------------------------
#psi4
#
memory 32 gb

molecule  {
0 1
  N       -0.4914050     1.0723760    -0.3164170
  N        1.0085960    -0.7184190    -0.0133500
  C       -1.7100270     0.3982770    -0.1243180
  C        0.8049200     0.5981430    -0.1551110
  C        3.4062740    -0.3035634     0.1340012
  C        1.8688800     1.5249980    -0.1805650
  C        3.1641670     1.0570110    -0.0435420
  C       -2.8187550     1.1723340     0.2577460
  C       -1.8866400    -0.9712620    -0.3801370
  C        2.2803750    -1.1431010     0.1169750
  C        4.7931030    -0.8701860     0.2621020
  C       -4.0754850     0.5909990     0.4048790
  C       -3.1483220    -1.5428300    -0.2100850
  C       -4.2492880    -0.7746780     0.1720620
  H       -0.5683120     2.0807040    -0.2404560
  H        1.6730390     2.5885970    -0.3025930
  H        3.9969070     1.7590030    -0.0564670
  H       -2.6877930     2.2355590     0.4578160
  H       -1.0395640    -1.5738120    -0.6782690
  H        2.3962560    -2.2212150     0.2333330
  H        5.4095350    -0.6367030    -0.6119800
  H        5.2936270    -0.4518060     1.1412500
  H        4.7686350    -1.9575490     0.3752240
  H       -4.9184630     1.2095470     0.7042290
  H       -3.2707080    -2.6065070    -0.4021260
  H       -5.2268190    -1.2338160     0.2940590
units angstrom
no_reorient  #important for SAPT in psi4, default
symmetry c1  #important for SAPT in psi4, default
}

set PROPERTIES_ORIGIN ["COM"]
properties('MP2/aug-cc-pvtz', properties = ['dipole'])
--------------------------------------------------------------------------

    Molecular point group: c1
  Charge       = 0
  Multiplicity = 1
  Basis Set: AUG-CC-PVTZ
    Blend: AUG-CC-PVTZ
  Basis Set: (AUG-CC-PVTZ AUX)
    Blend: AUG-CC-PVTZ-JKFIT

    Orbital Energies [Eh]
    ---------------------

    Doubly Occupied:

       1A    -15.588820     2A    -15.554579     3A    -11.322701
       4A    -11.280876     5A    -11.274975     6A    -11.256907
       7A    -11.238200     8A    -11.235655     9A    -11.233678
      10A    -11.230278    11A    -11.229040    12A    -11.228481
      13A    -11.221349    14A    -11.218343    15A     -1.293102
      16A     -1.220106    17A     -1.132689    18A     -1.098170
      19A     -1.045199    20A     -1.007987    21A     -0.992931
      22A     -0.934607    23A     -0.868721    24A     -0.841030
      25A     -0.821487    26A     -0.797465    27A     -0.723618
      28A     -0.715502    29A     -0.670656    30A     -0.653091
      31A     -0.637361    32A     -0.621184    33A     -0.595572
      34A     -0.593399    35A     -0.588528    36A     -0.579547
      37A     -0.568960    38A     -0.562421    39A     -0.545965
      40A     -0.521134    41A     -0.511609    42A     -0.504254
      43A     -0.487335    44A     -0.454022    45A     -0.414043
      46A     -0.382290    47A     -0.336030    48A     -0.330392
      49A     -0.276327

  @DF-RHF Final Energy:  -570.49834484534563

   => Energetics <=

    Nuclear Repulsion Energy =            790.7365040281772508
    One-Electron Energy =               -2341.5884624985201299
    Two-Electron Energy =                 980.3536136249972515
    Total Energy =                       -570.4983448453456276
  Basis Set: (AUG-CC-PVTZ AUX)
    Blend: AUG-CC-PVTZ-RI
    Molecular point group: c1

    Geometry (in Angstrom), charge = 0, multiplicity = 1:

       Center              X                  Y                   Z               Mass
    ------------   -----------------  -----------------  -----------------  -----------------
         N           -0.460251391382     1.067075269970    -0.312894496476    14.003074004430
         N            1.039749608618    -0.723719730030    -0.009827496476    14.003074004430
         C           -1.678873391382     0.392976269970    -0.120795496476    12.000000000000
         C            0.836073608618     0.592842269970    -0.151588496476    12.000000000000
         C            3.437427608618    -0.308864130030     0.137523703524    12.000000000000
         C            1.900033608618     1.519697269970    -0.177042496476    12.000000000000
         C            3.195320608618     1.051710269970    -0.040019496476    12.000000000000
         C           -2.787601391382     1.167033269970     0.261268503524    12.000000000000
         C           -1.855486391382    -0.976562730030    -0.376614496476    12.000000000000
         C            2.311528608618    -1.148401730030     0.120497503524    12.000000000000
         C            4.824256608618    -0.875486730030     0.265624503524    12.000000000000
         C           -4.044331391382     0.585698269970     0.408401503524    12.000000000000
         C           -3.117168391382    -1.548130730030    -0.206562496476    12.000000000000
         C           -4.218134391382    -0.779978730030     0.175584503524    12.000000000000
         H           -0.537158391382     2.075403269970    -0.236933496476     1.007825032230
         H            1.704192608618     2.583296269970    -0.299070496476     1.007825032230
         H            4.028060608618     1.753702269970    -0.052944496476     1.007825032230
         H           -2.656639391382     2.230258269970     0.461338503524     1.007825032230
         H           -1.008410391382    -1.579112730030    -0.674746496476     1.007825032230
         H            2.427409608618    -2.226515730030     0.236855503524     1.007825032230
         H            5.440688608618    -0.642003730030    -0.608457496476     1.007825032230
         H            5.324780608618    -0.457106730030     1.144772503524     1.007825032230
         H            4.799788608618    -1.962849730030     0.378746503524     1.007825032230
         H           -4.887309391382     1.204246269970     0.707751503524     1.007825032230
         H           -3.239554391382    -2.611807730030    -0.398603496476     1.007825032230
         H           -5.195665391382    -1.239116730030     0.297581503524     1.007825032230

  Basis Set: AUG-CC-PVTZ
    Blend: AUG-CC-PVTZ
  Basis Set: (AUG-CC-PVTZ AUX)
    Blend: AUG-CC-PVTZ-JKFIT
	 Reference Energy          =    -570.4983448453456276 [Eh]
	 Singles Energy            =      -0.0000000000000000 [Eh]
	 Same-Spin Energy          =      -0.6365369437708898 [Eh]
	 Opposite-Spin Energy      =      -1.9710063655209824 [Eh]
	 Correlation Energy        =      -2.6075433092918723 [Eh]
	 Total Energy              =    -573.1058881546374550 [Eh]

	 ================> DF-SCS-MP2 Energies <==================
	-----------------------------------------------------------
	 SCS Same-Spin Scale       =       0.3333333333333333 [-]
	 SCS Opposite-Spin Scale   =       1.2000000000000000 [-]
	 SCS Same-Spin Energy      =      -0.2121789812569632 [Eh]
	 SCS Opposite-Spin Energy  =      -2.3652076386251788 [Eh]
	 SCS Correlation Energy    =      -2.5773866198821422 [Eh]
	 SCS Total Energy          =    -573.0757314652278183 [Eh]
	-----------------------------------------------------------

  Dipole Moment: [D]
     X:     1.8832      Y:     1.8331      Z:     0.1584     Total:     2.6328

*** Psi4 exiting successfully. Buy a developer a beer!
