                               Psi4 1.4a3.dev225

  ==> Input File <==

--------------------------------------------------------------------------
#psi4
#
memory 32 gb

molecule  {
0 1
  N       -0.4914050     1.0723760    -0.3164170
  N        1.0085960    -0.7184190    -0.0133500
  C       -1.7319513     0.4416428    -0.1174908
  C        0.8049200     0.5981430    -0.1551110
  C        3.4026260    -0.3179870     0.1123840
  C        1.8688800     1.5249980    -0.1805650
  C        3.1641670     1.0570110    -0.0435420
  C       -2.8187550     1.1723340     0.2577460
  C       -1.8866400    -0.9712620    -0.3801370
  C        2.2803750    -1.1431010     0.1169750
  C        4.7931030    -0.8701860     0.2621020
  C       -4.0754850     0.5909990     0.4048790
  C       -3.1483220    -1.5428300    -0.2100850
  C       -4.2492880    -0.7746780     0.1720620
  H       -0.5683120     2.0807040    -0.2404560
  H        1.6730390     2.5885970    -0.3025930
  H        3.9969070     1.7590030    -0.0564670
  H       -2.6877930     2.2355590     0.4578160
  H       -1.0395640    -1.5738120    -0.6782690
  H        2.3962560    -2.2212150     0.2333330
  H        5.4095350    -0.6367030    -0.6119800
  H        5.2936270    -0.4518060     1.1412500
  H        4.7686350    -1.9575490     0.3752240
  H       -4.9184630     1.2095470     0.7042290
  H       -3.2707080    -2.6065070    -0.4021260
  H       -5.2268190    -1.2338160     0.2940590
units angstrom
no_reorient  #important for SAPT in psi4, default
symmetry c1  #important for SAPT in psi4, default
}

set PROPERTIES_ORIGIN ["COM"]
properties('MP2/aug-cc-pvtz', properties = ['dipole'])
--------------------------------------------------------------------------

    Molecular point group: c1
  Charge       = 0
  Multiplicity = 1
  Basis Set: AUG-CC-PVTZ
    Blend: AUG-CC-PVTZ
  Basis Set: (AUG-CC-PVTZ AUX)
    Blend: AUG-CC-PVTZ-JKFIT

    Orbital Energies [Eh]
    ---------------------

    Doubly Occupied:

       1A    -15.588704     2A    -15.553949     3A    -11.324125
       4A    -11.280471     5A    -11.272902     6A    -11.258636
       7A    -11.239208     8A    -11.235512     9A    -11.233812
      10A    -11.229316    11A    -11.229050    12A    -11.223985
      13A    -11.222929    14A    -11.221708    15A     -1.292927
      16A     -1.220723    17A     -1.133416    18A     -1.097148
      19A     -1.046818    20A     -1.009394    21A     -0.991774
      22A     -0.935097    23A     -0.868502    24A     -0.842483
      25A     -0.819087    26A     -0.799123    27A     -0.725654
      28A     -0.713762    29A     -0.670835    30A     -0.653269
      31A     -0.637216    32A     -0.621941    33A     -0.596311
      34A     -0.592340    35A     -0.587824    36A     -0.580334
      37A     -0.569034    38A     -0.562483    39A     -0.546885
      40A     -0.519508    41A     -0.511780    42A     -0.504595
      43A     -0.485259    44A     -0.454212    45A     -0.414946
      46A     -0.381589    47A     -0.340629    48A     -0.327109
      49A     -0.277053

  @DF-RHF Final Energy:  -570.49600150891877

   => Energetics <=

    Nuclear Repulsion Energy =            790.5910009196176134
    One-Electron Energy =               -2341.2832677484097985
    Two-Electron Energy =                 980.1962653198733051
    Total Energy =                       -570.4960015089187664
  Basis Set: (AUG-CC-PVTZ AUX)
    Blend: AUG-CC-PVTZ-RI
    Molecular point group: c1

    Geometry (in Angstrom), charge = 0, multiplicity = 1:

       Center              X                  Y                   Z               Mass
    ------------   -----------------  -----------------  -----------------  -----------------
         N           -0.458584539023     1.065188760961    -0.311930455447    14.003074004430
         N            1.041416460977    -0.725606239039    -0.008863455447    14.003074004430
         C           -1.699130839023     0.434455560961    -0.113004255447    12.000000000000
         C            0.837740460977     0.590955760961    -0.150624455447    12.000000000000
         C            3.435446460977    -0.325174239039     0.116870544553    12.000000000000
         C            1.901700460977     1.517810760961    -0.176078455447    12.000000000000
         C            3.196987460977     1.049823760961    -0.039055455447    12.000000000000
         C           -2.785934539023     1.165146760961     0.262232544553    12.000000000000
         C           -1.853819539023    -0.978449239039    -0.375650455447    12.000000000000
         C            2.313195460977    -1.150288239039     0.121461544553    12.000000000000
         C            4.825923460977    -0.877373239039     0.266588544553    12.000000000000
         C           -4.042664539023     0.583811760961     0.409365544553    12.000000000000
         C           -3.115501539023    -1.550017239039    -0.205598455447    12.000000000000
         C           -4.216467539023    -0.781865239039     0.176548544553    12.000000000000
         H           -0.535491539023     2.073516760961    -0.235969455447     1.007825032230
         H            1.705859460977     2.581409760961    -0.298106455447     1.007825032230
         H            4.029727460977     1.751815760961    -0.051980455447     1.007825032230
         H           -2.654972539023     2.228371760961     0.462302544553     1.007825032230
         H           -1.006743539023    -1.580999239039    -0.673782455447     1.007825032230
         H            2.429076460977    -2.228402239039     0.237819544553     1.007825032230
         H            5.442355460977    -0.643890239039    -0.607493455447     1.007825032230
         H            5.326447460977    -0.458993239039     1.145736544553     1.007825032230
         H            4.801455460977    -1.964736239039     0.379710544553     1.007825032230
         H           -4.885642539023     1.202359760961     0.708715544553     1.007825032230
         H           -3.237887539023    -2.613694239039    -0.397639455447     1.007825032230
         H           -5.193998539023    -1.241003239039     0.298545544553     1.007825032230

  Basis Set: AUG-CC-PVTZ
    Blend: AUG-CC-PVTZ
  Basis Set: (AUG-CC-PVTZ AUX)
    Blend: AUG-CC-PVTZ-JKFIT
	 Reference Energy          =    -570.4960015089187664 [Eh]
	 Singles Energy            =      -0.0000000000000000 [Eh]
	 Same-Spin Energy          =      -0.6363318435365192 [Eh]
	 Opposite-Spin Energy      =      -1.9709735061983296 [Eh]
	 Correlation Energy        =      -2.6073053497348488 [Eh]
	 Total Energy              =    -573.1033068586535819 [Eh]

	 ================> DF-SCS-MP2 Energies <==================
	-----------------------------------------------------------
	 SCS Same-Spin Scale       =       0.3333333333333333 [-]
	 SCS Opposite-Spin Scale   =       1.2000000000000000 [-]
	 SCS Same-Spin Energy      =      -0.2121106145121731 [Eh]
	 SCS Opposite-Spin Energy  =      -2.3651682074379954 [Eh]
	 SCS Correlation Energy    =      -2.5772788219501686 [Eh]
	 SCS Total Energy          =    -573.0732803308688972 [Eh]
	-----------------------------------------------------------

  Dipole Moment: [D]
     X:     1.8889      Y:     1.8449      Z:     0.1714     Total:     2.6459

*** Psi4 exiting successfully. Buy a developer a beer!
