                               Psi4 1.4a3.dev225

  ==> Input File <==

--------------------------------------------------------------------------
#psi4
#
memory 32 gb

molecule  {
0 1
  N       -0.4914050     1.0723760    -0.3164170
  N        1.0085960    -0.7184190    -0.0133500
  C       -1.7100270     0.3982770    -0.1243180
  C        0.8049200     0.5981430    -0.1551110
  C        3.4308242    -0.2341206     0.2425405
  C        1.8688800     1.5249980    -0.1805650
  C        3.1641670     1.0570110    -0.0435420
  C       -2.8187550     1.1723340     0.2577460
  C       -1.8866400    -0.9712620    -0.3801370
  C        2.2803750    -1.1431010     0.1169750
  C        4.7931030    -0.8701860     0.2621020
  C       -4.0754850     0.5909990     0.4048790
  C       -3.1483220    -1.5428300    -0.2100850
  C       -4.2492880    -0.7746780     0.1720620
  H       -0.5683120     2.0807040    -0.2404560
  H        1.6730390     2.5885970    -0.3025930
  H        3.9969070     1.7590030    -0.0564670
  H       -2.6877930     2.2355590     0.4578160
  H       -1.0395640    -1.5738120    -0.6782690
  H        2.3962560    -2.2212150     0.2333330
  H        5.4095350    -0.6367030    -0.6119800
  H        5.2936270    -0.4518060     1.1412500
  H        4.7686350    -1.9575490     0.3752240
  H       -4.9184630     1.2095470     0.7042290
  H       -3.2707080    -2.6065070    -0.4021260
  H       -5.2268190    -1.2338160     0.2940590
units angstrom
no_reorient  #important for SAPT in psi4, default
symmetry c1  #important for SAPT in psi4, default
}

set PROPERTIES_ORIGIN ["COM"]
properties('MP2/aug-cc-pvtz', properties = ['dipole'])
--------------------------------------------------------------------------

    Molecular point group: c1
  Charge       = 0
  Multiplicity = 1
  Basis Set: AUG-CC-PVTZ
    Blend: AUG-CC-PVTZ
  Basis Set: (AUG-CC-PVTZ AUX)
    Blend: AUG-CC-PVTZ-JKFIT

    Orbital Energies [Eh]
    ---------------------

    Doubly Occupied:

       1A    -15.588125     2A    -15.558584     3A    -11.322236
       4A    -11.286658     5A    -11.280867     6A    -11.250172
       7A    -11.238167     8A    -11.234475     9A    -11.233681
      10A    -11.230393    11A    -11.229547    12A    -11.228260
      13A    -11.221199    14A    -11.218320    15A     -1.293314
      16A     -1.220041    17A     -1.132446    18A     -1.103429
      19A     -1.041655    20A     -1.007997    21A     -0.992447
      22A     -0.933500    23A     -0.870441    24A     -0.838684
      25A     -0.822679    26A     -0.794402    27A     -0.723562
      28A     -0.714939    29A     -0.670995    30A     -0.651405
      31A     -0.638682    32A     -0.620830    33A     -0.595438
      34A     -0.592511    35A     -0.588689    36A     -0.579644
      37A     -0.569031    38A     -0.560360    39A     -0.542229
      40A     -0.529498    41A     -0.510408    42A     -0.504245
      43A     -0.487254    44A     -0.453530    45A     -0.411070
      46A     -0.386531    47A     -0.333715    48A     -0.329885
      49A     -0.273799

  @DF-RHF Final Energy:  -570.48406883306131

   => Energetics <=

    Nuclear Repulsion Energy =            790.3274422395198826
    One-Electron Energy =               -2340.7430824206262514
    Two-Electron Energy =                 979.9315713480451677
    Total Energy =                       -570.4840688330613148
  Basis Set: (AUG-CC-PVTZ AUX)
    Blend: AUG-CC-PVTZ-RI
    Molecular point group: c1

    Geometry (in Angstrom), charge = 0, multiplicity = 1:

       Center              X                  Y                   Z               Mass
    ------------   -----------------  -----------------  -----------------  -----------------
         N           -0.461851621271     1.062548852909    -0.319969299613    14.003074004430
         N            1.038149378729    -0.728246147091    -0.016902299613    14.003074004430
         C           -1.680473621271     0.388449852909    -0.127870299613    12.000000000000
         C            0.834473378729     0.588315852909    -0.158663299613    12.000000000000
         C            3.460377578729    -0.243947747091     0.238988200387    12.000000000000
         C            1.898433378729     1.515170852909    -0.184117299613    12.000000000000
         C            3.193720378729     1.047183852909    -0.047094299613    12.000000000000
         C           -2.789201621271     1.162506852909     0.254193700387    12.000000000000
         C           -1.857086621271    -0.981089147091    -0.383689299613    12.000000000000
         C            2.309928378729    -1.152928147091     0.113422700387    12.000000000000
         C            4.822656378729    -0.880013147091     0.258549700387    12.000000000000
         C           -4.045931621271     0.581171852909     0.401326700387    12.000000000000
         C           -3.118768621271    -1.552657147091    -0.213637299613    12.000000000000
         C           -4.219734621271    -0.784505147091     0.168509700387    12.000000000000
         H           -0.538758621271     2.070876852909    -0.244008299613     1.007825032230
         H            1.702592378729     2.578769852909    -0.306145299613     1.007825032230
         H            4.026460378729     1.749175852909    -0.060019299613     1.007825032230
         H           -2.658239621271     2.225731852909     0.454263700387     1.007825032230
         H           -1.010010621271    -1.583639147091    -0.681821299613     1.007825032230
         H            2.425809378729    -2.231042147091     0.229780700387     1.007825032230
         H            5.439088378729    -0.646530147091    -0.615532299613     1.007825032230
         H            5.323180378729    -0.461633147091     1.137697700387     1.007825032230
         H            4.798188378729    -1.967376147091     0.371671700387     1.007825032230
         H           -4.888909621271     1.199719852909     0.700676700387     1.007825032230
         H           -3.241154621271    -2.616334147091    -0.405678299613     1.007825032230
         H           -5.197265621271    -1.243643147091     0.290506700387     1.007825032230

  Basis Set: AUG-CC-PVTZ
    Blend: AUG-CC-PVTZ
  Basis Set: (AUG-CC-PVTZ AUX)
    Blend: AUG-CC-PVTZ-JKFIT
	 Reference Energy          =    -570.4840688330613148 [Eh]
	 Singles Energy            =      -0.0000000000000000 [Eh]
	 Same-Spin Energy          =      -0.6371167617522969 [Eh]
	 Opposite-Spin Energy      =      -1.9722389222006889 [Eh]
	 Correlation Energy        =      -2.6093556839529857 [Eh]
	 Total Energy              =    -573.0934245170143413 [Eh]

	 ================> DF-SCS-MP2 Energies <==================
	-----------------------------------------------------------
	 SCS Same-Spin Scale       =       0.3333333333333333 [-]
	 SCS Opposite-Spin Scale   =       1.2000000000000000 [-]
	 SCS Same-Spin Energy      =      -0.2123722539174323 [Eh]
	 SCS Opposite-Spin Energy  =      -2.3666867066408264 [Eh]
	 SCS Correlation Energy    =      -2.5790589605582586 [Eh]
	 SCS Total Energy          =    -573.0631277936196284 [Eh]
	-----------------------------------------------------------

  Dipole Moment: [D]
     X:     1.8780      Y:     1.7386      Z:     0.1341     Total:     2.5627

*** Psi4 exiting successfully. Buy a developer a beer!
