                               Psi4 1.4a3.dev225

  ==> Input File <==

--------------------------------------------------------------------------
#psi4
#
memory 32 gb

molecule  {
0 1
  N       -0.4914050     1.0723760    -0.3164170
  N        1.0085960    -0.7184190    -0.0133500
  C       -1.7100270     0.3982770    -0.1243180
  C        0.8049200     0.5981430    -0.1551110
  C        3.4026260    -0.3179870     0.1123840
  C        1.8688800     1.5249980    -0.1805650
  C        3.1641670     1.0570110    -0.0435420
  C       -2.8187550     1.1723340     0.2577460
  C       -1.8866400    -0.9712620    -0.3801370
  C        2.3206585    -1.1134833     0.1168102
  C        4.7931030    -0.8701860     0.2621020
  C       -4.0754850     0.5909990     0.4048790
  C       -3.1483220    -1.5428300    -0.2100850
  C       -4.2492880    -0.7746780     0.1720620
  H       -0.5683120     2.0807040    -0.2404560
  H        1.6730390     2.5885970    -0.3025930
  H        3.9969070     1.7590030    -0.0564670
  H       -2.6877930     2.2355590     0.4578160
  H       -1.0395640    -1.5738120    -0.6782690
  H        2.3962560    -2.2212150     0.2333330
  H        5.4095350    -0.6367030    -0.6119800
  H        5.2936270    -0.4518060     1.1412500
  H        4.7686350    -1.9575490     0.3752240
  H       -4.9184630     1.2095470     0.7042290
  H       -3.2707080    -2.6065070    -0.4021260
  H       -5.2268190    -1.2338160     0.2940590
units angstrom
no_reorient  #important for SAPT in psi4, default
symmetry c1  #important for SAPT in psi4, default
}

set PROPERTIES_ORIGIN ["COM"]
properties('MP2/aug-cc-pvtz', properties = ['dipole'])
--------------------------------------------------------------------------

    Molecular point group: c1
  Charge       = 0
  Multiplicity = 1
  Basis Set: AUG-CC-PVTZ
    Blend: AUG-CC-PVTZ
  Basis Set: (AUG-CC-PVTZ AUX)
    Blend: AUG-CC-PVTZ-JKFIT

    Orbital Energies [Eh]
    ---------------------

    Doubly Occupied:

       1A    -15.589537     2A    -15.553163     3A    -11.322812
       4A    -11.280947     5A    -11.268652     6A    -11.260743
       7A    -11.240608     8A    -11.233741     9A    -11.230674
      10A    -11.230241    11A    -11.229118    12A    -11.228771
      13A    -11.221586    14A    -11.218445    15A     -1.291464
      16A     -1.217016    17A     -1.132926    18A     -1.099483
      19A     -1.047738    20A     -1.008046    21A     -0.993735
      22A     -0.935936    23A     -0.870487    24A     -0.841881
      25A     -0.820574    26A     -0.797642    27A     -0.721941
      28A     -0.715305    29A     -0.670875    30A     -0.653644
      31A     -0.637258    32A     -0.619668    33A     -0.595569
      34A     -0.593139    35A     -0.588975    36A     -0.579446
      37A     -0.569157    38A     -0.561829    39A     -0.544179
      40A     -0.516307    41A     -0.509903    42A     -0.503445
      43A     -0.487259    44A     -0.454954    45A     -0.418175
      46A     -0.377670    47A     -0.340737    48A     -0.330729
      49A     -0.280390

  @DF-RHF Final Energy:  -570.49584657547246

   => Energetics <=

    Nuclear Repulsion Energy =            791.0473538996866409
    One-Electron Energy =               -2342.2133613514329227
    Two-Electron Energy =                 980.6701608762738260
    Total Energy =                       -570.4958465754724557
  Basis Set: (AUG-CC-PVTZ AUX)
    Blend: AUG-CC-PVTZ-RI
    Molecular point group: c1

    Geometry (in Angstrom), charge = 0, multiplicity = 1:

       Center              X                  Y                   Z               Mass
    ------------   -----------------  -----------------  -----------------  -----------------
         N           -0.462639364681     1.066084888916    -0.311474703259    14.003074004430
         N            1.037361635319    -0.724710111084    -0.008407703259    14.003074004430
         C           -1.681261364681     0.391985888916    -0.119375703259    12.000000000000
         C            0.833685635319     0.591851888916    -0.150168703259    12.000000000000
         C            3.431391635319    -0.324278111084     0.117326296741    12.000000000000
         C            1.897645635319     1.518706888916    -0.175622703259    12.000000000000
         C            3.192932635319     1.050719888916    -0.038599703259    12.000000000000
         C           -2.789989364681     1.166042888916     0.262688296741    12.000000000000
         C           -1.857874364681    -0.977553111084    -0.375194703259    12.000000000000
         C            2.349424135319    -1.119774411084     0.121752496741    12.000000000000
         C            4.821868635319    -0.876477111084     0.267044296741    12.000000000000
         C           -4.046719364681     0.584707888916     0.409821296741    12.000000000000
         C           -3.119556364681    -1.549121111084    -0.205142703259    12.000000000000
         C           -4.220522364681    -0.780969111084     0.177004296741    12.000000000000
         H           -0.539546364681     2.074412888916    -0.235513703259     1.007825032230
         H            1.701804635319     2.582305888916    -0.297650703259     1.007825032230
         H            4.025672635319     1.752711888916    -0.051524703259     1.007825032230
         H           -2.659027364681     2.229267888916     0.462758296741     1.007825032230
         H           -1.010798364681    -1.580103111084    -0.673326703259     1.007825032230
         H            2.425021635319    -2.227506111084     0.238275296741     1.007825032230
         H            5.438300635319    -0.642994111084    -0.607037703259     1.007825032230
         H            5.322392635319    -0.458097111084     1.146192296741     1.007825032230
         H            4.797400635319    -1.963840111084     0.380166296741     1.007825032230
         H           -4.889697364681     1.203255888916     0.709171296741     1.007825032230
         H           -3.241942364681    -2.612798111084    -0.397183703259     1.007825032230
         H           -5.198053364681    -1.240107111084     0.299001296741     1.007825032230

  Basis Set: AUG-CC-PVTZ
    Blend: AUG-CC-PVTZ
  Basis Set: (AUG-CC-PVTZ AUX)
    Blend: AUG-CC-PVTZ-JKFIT
	 Reference Energy          =    -570.4958465754724557 [Eh]
	 Singles Energy            =      -0.0000000000000000 [Eh]
	 Same-Spin Energy          =      -0.6361276092545044 [Eh]
	 Opposite-Spin Energy      =      -1.9711742084822548 [Eh]
	 Correlation Energy        =      -2.6073018177367593 [Eh]
	 Total Energy              =    -573.1031483932092669 [Eh]

	 ================> DF-SCS-MP2 Energies <==================
	-----------------------------------------------------------
	 SCS Same-Spin Scale       =       0.3333333333333333 [-]
	 SCS Opposite-Spin Scale   =       1.2000000000000000 [-]
	 SCS Same-Spin Energy      =      -0.2120425364181681 [Eh]
	 SCS Opposite-Spin Energy  =      -2.3654090501787057 [Eh]
	 SCS Correlation Energy    =      -2.5774515865968737 [Eh]
	 SCS Total Energy          =    -573.0732981620693636 [Eh]
	-----------------------------------------------------------

  Dipole Moment: [D]
     X:     1.8533      Y:     1.9299      Z:     0.1561     Total:     2.6802

*** Psi4 exiting successfully. Buy a developer a beer!
