                               Psi4 1.4a3.dev225

  ==> Input File <==

--------------------------------------------------------------------------
#psi4
#
memory 32 gb

molecule  {
0 1
  N       -0.4914050     1.0723760    -0.3164170
  N        1.0085960    -0.7184190    -0.0133500
  C       -1.7100270     0.3982770    -0.1243180
  C        0.8049200     0.5981430    -0.1551110
  C        3.4506553    -0.3085123     0.1147797
  C        1.8688800     1.5249980    -0.1805650
  C        3.1641670     1.0570110    -0.0435420
  C       -2.8187550     1.1723340     0.2577460
  C       -1.8866400    -0.9712620    -0.3801370
  C        2.2803750    -1.1431010     0.1169750
  C        4.7931030    -0.8701860     0.2621020
  C       -4.0754850     0.5909990     0.4048790
  C       -3.1483220    -1.5428300    -0.2100850
  C       -4.2492880    -0.7746780     0.1720620
  H       -0.5683120     2.0807040    -0.2404560
  H        1.6730390     2.5885970    -0.3025930
  H        3.9969070     1.7590030    -0.0564670
  H       -2.6877930     2.2355590     0.4578160
  H       -1.0395640    -1.5738120    -0.6782690
  H        2.3962560    -2.2212150     0.2333330
  H        5.4095350    -0.6367030    -0.6119800
  H        5.2936270    -0.4518060     1.1412500
  H        4.7686350    -1.9575490     0.3752240
  H       -4.9184630     1.2095470     0.7042290
  H       -3.2707080    -2.6065070    -0.4021260
  H       -5.2268190    -1.2338160     0.2940590
units angstrom
no_reorient  #important for SAPT in psi4, default
symmetry c1  #important for SAPT in psi4, default
}

set PROPERTIES_ORIGIN ["COM"]
properties('MP2/aug-cc-pvtz', properties = ['dipole'])
--------------------------------------------------------------------------

    Molecular point group: c1
  Charge       = 0
  Multiplicity = 1
  Basis Set: AUG-CC-PVTZ
    Blend: AUG-CC-PVTZ
  Basis Set: (AUG-CC-PVTZ AUX)
    Blend: AUG-CC-PVTZ-JKFIT

    Orbital Energies [Eh]
    ---------------------

    Doubly Occupied:

       1A    -15.589019     2A    -15.555855     3A    -11.322941
       4A    -11.280992     5A    -11.279137     6A    -11.257307
       7A    -11.238432     8A    -11.237506     9A    -11.233771
      10A    -11.230400    11A    -11.228561    12A    -11.227883
      13A    -11.221433    14A    -11.218499    15A     -1.292862
      16A     -1.219011    17A     -1.132665    18A     -1.098767
      19A     -1.046253    20A     -1.008174    21A     -0.994684
      22A     -0.935724    23A     -0.866700    24A     -0.839906
      25A     -0.821502    26A     -0.796101    27A     -0.722651
      28A     -0.715145    29A     -0.670850    30A     -0.652823
      31A     -0.640423    32A     -0.620230    33A     -0.595380
      34A     -0.593139    35A     -0.589406    36A     -0.579731
      37A     -0.570565    38A     -0.560467    39A     -0.547350
      40A     -0.528366    41A     -0.510672    42A     -0.504110
      43A     -0.487217    44A     -0.452499    45A     -0.412730
      46A     -0.382109    47A     -0.334022    48A     -0.330055
      49A     -0.274749

  @DF-RHF Final Energy:  -570.49447624615289

   => Energetics <=

    Nuclear Repulsion Energy =            790.1867829663328848
    One-Electron Energy =               -2340.4649703388286071
    Two-Electron Energy =                 979.7837111263428369
    Total Energy =                       -570.4944762461528853
  Basis Set: (AUG-CC-PVTZ AUX)
    Blend: AUG-CC-PVTZ-RI
    Molecular point group: c1

    Geometry (in Angstrom), charge = 0, multiplicity = 1:

       Center              X                  Y                   Z               Mass
    ------------   -----------------  -----------------  -----------------  -----------------
         N           -0.463144251023     1.067397848919    -0.311641601640    14.003074004430
         N            1.036856748977    -0.723397151081    -0.008574601640    14.003074004430
         C           -1.681766251023     0.393298848919    -0.119542601640    12.000000000000
         C            0.833180748977     0.593164848919    -0.150335601640    12.000000000000
         C            3.478916048977    -0.313490451081     0.119555098360    12.000000000000
         C            1.897140748977     1.520019848919    -0.175789601640    12.000000000000
         C            3.192427748977     1.052032848919    -0.038766601640    12.000000000000
         C           -2.790494251023     1.167355848919     0.262521398360    12.000000000000
         C           -1.858379251023    -0.976240151081    -0.375361601640    12.000000000000
         C            2.308635748977    -1.148079151081     0.121750398360    12.000000000000
         C            4.821363748977    -0.875164151081     0.266877398360    12.000000000000
         C           -4.047224251023     0.586020848919     0.409654398360    12.000000000000
         C           -3.120061251023    -1.547808151081    -0.205309601640    12.000000000000
         C           -4.221027251023    -0.779656151081     0.176837398360    12.000000000000
         H           -0.540051251023     2.075725848919    -0.235680601640     1.007825032230
         H            1.701299748977     2.583618848919    -0.297817601640     1.007825032230
         H            4.025167748977     1.754024848919    -0.051691601640     1.007825032230
         H           -2.659532251023     2.230580848919     0.462591398360     1.007825032230
         H           -1.011303251023    -1.578790151081    -0.673493601640     1.007825032230
         H            2.424516748977    -2.226193151081     0.238108398360     1.007825032230
         H            5.437795748977    -0.641681151081    -0.607204601640     1.007825032230
         H            5.321887748977    -0.456784151081     1.146025398360     1.007825032230
         H            4.796895748977    -1.962527151081     0.379999398360     1.007825032230
         H           -4.890202251023     1.204568848919     0.709004398360     1.007825032230
         H           -3.242447251023    -2.611485151081    -0.397350601640     1.007825032230
         H           -5.198558251023    -1.238794151081     0.298834398360     1.007825032230

  Basis Set: AUG-CC-PVTZ
    Blend: AUG-CC-PVTZ
  Basis Set: (AUG-CC-PVTZ AUX)
    Blend: AUG-CC-PVTZ-JKFIT
	 Reference Energy          =    -570.4944762461528853 [Eh]
	 Singles Energy            =      -0.0000000000000000 [Eh]
	 Same-Spin Energy          =      -0.6370466849116716 [Eh]
	 Opposite-Spin Energy      =      -1.9717550103334951 [Eh]
	 Correlation Energy        =      -2.6088016952451669 [Eh]
	 Total Energy              =    -573.1032779413980052 [Eh]

	 ================> DF-SCS-MP2 Energies <==================
	-----------------------------------------------------------
	 SCS Same-Spin Scale       =       0.3333333333333333 [-]
	 SCS Opposite-Spin Scale   =       1.2000000000000000 [-]
	 SCS Same-Spin Energy      =      -0.2123488949705572 [Eh]
	 SCS Opposite-Spin Energy  =      -2.3661060124001940 [Eh]
	 SCS Correlation Energy    =      -2.5784549073707512 [Eh]
	 SCS Total Energy          =    -573.0729311535236548 [Eh]
	-----------------------------------------------------------

  Dipole Moment: [D]
     X:     1.9229      Y:     1.7955      Z:     0.1721     Total:     2.6365

*** Psi4 exiting successfully. Buy a developer a beer!
