                               Psi4 1.4a3.dev225

  ==> Input File <==

--------------------------------------------------------------------------
#psi4
#
memory 32 gb

molecule  {
0 1
  N       -0.4914050     1.0723760    -0.3164170
  N        1.0085960    -0.7184190    -0.0133500
  C       -1.7100270     0.3982770    -0.1243180
  C        0.8049200     0.5981430    -0.1551110
  C        3.4026260    -0.3179870     0.1123840
  C        1.8688800     1.5249980    -0.1805650
  C        3.1641670     1.0570110    -0.0435420
  C       -2.8187550     1.1723340     0.2577460
  C       -1.8866400    -0.9712620    -0.3801370
  C        2.2803750    -1.1431010     0.1169750
  C        4.7931030    -0.8701860     0.2621020
  C       -4.0754850     0.5909990     0.4048790
  C       -3.1483220    -1.5428300    -0.2100850
  C       -4.2492880    -0.7746780     0.1720620
  H       -0.5683120     2.0807040    -0.2404560
  H        1.6640418     2.6374603    -0.3081991
  H        3.9969070     1.7590030    -0.0564670
  H       -2.6877930     2.2355590     0.4578160
  H       -1.0395640    -1.5738120    -0.6782690
  H        2.3962560    -2.2212150     0.2333330
  H        5.4095350    -0.6367030    -0.6119800
  H        5.2936270    -0.4518060     1.1412500
  H        4.7686350    -1.9575490     0.3752240
  H       -4.9184630     1.2095470     0.7042290
  H       -3.2707080    -2.6065070    -0.4021260
  H       -5.2268190    -1.2338160     0.2940590
units angstrom
no_reorient  #important for SAPT in psi4, default
symmetry c1  #important for SAPT in psi4, default
}

set PROPERTIES_ORIGIN ["COM"]
properties('MP2/aug-cc-pvtz', properties = ['dipole'])
--------------------------------------------------------------------------

    Molecular point group: c1
  Charge       = 0
  Multiplicity = 1
  Basis Set: AUG-CC-PVTZ
    Blend: AUG-CC-PVTZ
  Basis Set: (AUG-CC-PVTZ AUX)
    Blend: AUG-CC-PVTZ-JKFIT

    Orbital Energies [Eh]
    ---------------------

    Doubly Occupied:

       1A    -15.589032     2A    -15.554192     3A    -11.323555
       4A    -11.280908     5A    -11.273034     6A    -11.258976
       7A    -11.244616     8A    -11.235699     9A    -11.233717
      10A    -11.230304    11A    -11.229166    12A    -11.228572
      13A    -11.221434    14A    -11.218416    15A     -1.293238
      16A     -1.220317    17A     -1.132775    18A     -1.096897
      19A     -1.045056    20A     -1.008033    21A     -0.992964
      22A     -0.935090    23A     -0.867581    24A     -0.840436
      25A     -0.820335    26A     -0.797956    27A     -0.723522
      28A     -0.715313    29A     -0.670576    30A     -0.652396
      31A     -0.631378    32A     -0.619401    33A     -0.595210
      34A     -0.593531    35A     -0.588364    36A     -0.579479
      37A     -0.569473    38A     -0.563019    39A     -0.546836
      40A     -0.518421    41A     -0.510849    42A     -0.503900
      43A     -0.487329    44A     -0.454160    45A     -0.414385
      46A     -0.381783    47A     -0.336718    48A     -0.330500
      49A     -0.277004

  @DF-RHF Final Energy:  -570.49642707061798

   => Energetics <=

    Nuclear Repulsion Energy =            790.5073555814271913
    One-Electron Energy =               -2341.1358714441130360
    Two-Electron Energy =                 980.1320887920678615
    Total Energy =                       -570.4964270706179832
  Basis Set: (AUG-CC-PVTZ AUX)
    Blend: AUG-CC-PVTZ-RI
    Molecular point group: c1

    Geometry (in Angstrom), charge = 0, multiplicity = 1:

       Center              X                  Y                   Z               Mass
    ------------   -----------------  -----------------  -----------------  -----------------
         N           -0.459964353959     1.067747934341    -0.311454755584    14.003074004430
         N            1.040036646041    -0.723047065659    -0.008387755584    14.003074004430
         C           -1.678586353959     0.393648934341    -0.119355755584    12.000000000000
         C            0.836360646041     0.593514934341    -0.150148755584    12.000000000000
         C            3.434066646041    -0.322615065659     0.117346244416    12.000000000000
         C            1.900320646041     1.520369934341    -0.175602755584    12.000000000000
         C            3.195607646041     1.052382934341    -0.038579755584    12.000000000000
         C           -2.787314353959     1.167705934341     0.262708244416    12.000000000000
         C           -1.855199353959    -0.975890065659    -0.375174755584    12.000000000000
         C            2.311815646041    -1.147729065659     0.121937244416    12.000000000000
         C            4.824543646041    -0.874814065659     0.267064244416    12.000000000000
         C           -4.044044353959     0.586370934341     0.409841244416    12.000000000000
         C           -3.116881353959    -1.547458065659    -0.205122755584    12.000000000000
         C           -4.217847353959    -0.779306065659     0.177024244416    12.000000000000
         H           -0.536871353959     2.076075934341    -0.235493755584     1.007825032230
         H            1.695482446041     2.632832234341    -0.303236855584     1.007825032230
         H            4.028347646041     1.754374934341    -0.051504755584     1.007825032230
         H           -2.656352353959     2.230930934341     0.462778244416     1.007825032230
         H           -1.008123353959    -1.578440065659    -0.673306755584     1.007825032230
         H            2.427696646041    -2.225843065659     0.238295244416     1.007825032230
         H            5.440975646041    -0.641331065659    -0.607017755584     1.007825032230
         H            5.325067646041    -0.456434065659     1.146212244416     1.007825032230
         H            4.800075646041    -1.962177065659     0.380186244416     1.007825032230
         H           -4.887022353959     1.204918934341     0.709191244416     1.007825032230
         H           -3.239267353959    -2.611135065659    -0.397163755584     1.007825032230
         H           -5.195378353959    -1.238444065659     0.299021244416     1.007825032230

  Basis Set: AUG-CC-PVTZ
    Blend: AUG-CC-PVTZ
  Basis Set: (AUG-CC-PVTZ AUX)
    Blend: AUG-CC-PVTZ-JKFIT
	 Reference Energy          =    -570.4964270706179832 [Eh]
	 Singles Energy            =      -0.0000000000000000 [Eh]
	 Same-Spin Energy          =      -0.6365476215751696 [Eh]
	 Opposite-Spin Energy      =      -1.9713579563558958 [Eh]
	 Correlation Energy        =      -2.6079055779310654 [Eh]
	 Total Energy              =    -573.1043326485490752 [Eh]

	 ================> DF-SCS-MP2 Energies <==================
	-----------------------------------------------------------
	 SCS Same-Spin Scale       =       0.3333333333333333 [-]
	 SCS Opposite-Spin Scale   =       1.2000000000000000 [-]
	 SCS Same-Spin Energy      =      -0.2121825405250565 [Eh]
	 SCS Opposite-Spin Energy  =      -2.3656295476270750 [Eh]
	 SCS Correlation Energy    =      -2.5778120881521316 [Eh]
	 SCS Total Energy          =    -573.0742391587700695 [Eh]
	-----------------------------------------------------------

  Dipole Moment: [D]
     X:     1.8783      Y:     1.8347      Z:     0.1654     Total:     2.6309

*** Psi4 exiting successfully. Buy a developer a beer!
