                               Psi4 1.4a3.dev225

  ==> Input File <==

--------------------------------------------------------------------------
#psi4
#
memory 32 gb

molecule  {
0 1
  N       -0.4914050     1.0723760    -0.3164170
  N        1.0085960    -0.7184190    -0.0133500
  C       -1.7100270     0.3982770    -0.1243180
  C        0.8049200     0.5981430    -0.1551110
  C        3.4026260    -0.3179870     0.1123840
  C        1.8688800     1.5249980    -0.1805650
  C        3.1641670     1.0570110    -0.0435420
  C       -2.8187550     1.1723340     0.2577460
  C       -1.8866400    -0.9712620    -0.3801370
  C        2.2803750    -1.1431010     0.1169750
  C        4.7931030    -0.8701860     0.2621020
  C       -4.0754850     0.5909990     0.4048790
  C       -3.1483220    -1.5428300    -0.2100850
  C       -4.2492880    -0.7746780     0.1720620
  H       -0.5683120     2.0807040    -0.2404560
  H        1.6730390     2.5885970    -0.3025930
  H        3.9969070     1.7590030    -0.0564670
  H       -2.6877930     2.2355590     0.4578160
  H       -1.0395640    -1.5738120    -0.6782690
  H        2.3962560    -2.2212150     0.2333330
  H        5.4031115    -0.5995526    -0.6057512
  H        5.2936270    -0.4518060     1.1412500
  H        4.7686350    -1.9575490     0.3752240
  H       -4.9184630     1.2095470     0.7042290
  H       -3.2707080    -2.6065070    -0.4021260
  H       -5.2268190    -1.2338160     0.2940590
units angstrom
no_reorient  #important for SAPT in psi4, default
symmetry c1  #important for SAPT in psi4, default
}

set PROPERTIES_ORIGIN ["COM"]
properties('MP2/aug-cc-pvtz', properties = ['dipole'])
--------------------------------------------------------------------------

    Molecular point group: c1
  Charge       = 0
  Multiplicity = 1
  Basis Set: AUG-CC-PVTZ
    Blend: AUG-CC-PVTZ
  Basis Set: (AUG-CC-PVTZ AUX)
    Blend: AUG-CC-PVTZ-JKFIT

    Orbital Energies [Eh]
    ---------------------

    Doubly Occupied:

       1A    -15.589048     2A    -15.553670     3A    -11.322874
       4A    -11.280900     5A    -11.272595     6A    -11.258413
       7A    -11.238903     8A    -11.235198     9A    -11.233697
      10A    -11.230271    11A    -11.229102    12A    -11.228556
      13A    -11.221407    14A    -11.218370    15A     -1.293050
      16A     -1.220050    17A     -1.132758    18A     -1.097051
      19A     -1.045975    20A     -1.008008    21A     -0.993074
      22A     -0.934901    23A     -0.868516    24A     -0.841084
      25A     -0.821119    26A     -0.797907    27A     -0.723606
      28A     -0.715575    29A     -0.670538    30A     -0.653360
      31A     -0.636919    32A     -0.621213    33A     -0.595534
      34A     -0.593768    35A     -0.587806    36A     -0.579493
      37A     -0.569099    38A     -0.562309    39A     -0.549229
      40A     -0.519153    41A     -0.510689    42A     -0.504239
      43A     -0.487333    44A     -0.453949    45A     -0.414304
      46A     -0.381337    47A     -0.336425    48A     -0.330433
      49A     -0.276789

  @DF-RHF Final Energy:  -570.49876675466567

   => Energetics <=

    Nuclear Repulsion Energy =            790.7994266979046643
    One-Electron Energy =               -2341.7171984957903987
    Two-Electron Energy =                 980.4190050432200678
    Total Energy =                       -570.4987667546656667
  Basis Set: (AUG-CC-PVTZ AUX)
    Blend: AUG-CC-PVTZ-RI
    Molecular point group: c1

    Geometry (in Angstrom), charge = 0, multiplicity = 1:

       Center              X                  Y                   Z               Mass
    ------------   -----------------  -----------------  -----------------  -----------------
         N           -0.459978443251     1.067812054659    -0.311519543771    14.003074004430
         N            1.040022556749    -0.722982945341    -0.008452543771    14.003074004430
         C           -1.678600443251     0.393713054659    -0.119420543771    12.000000000000
         C            0.836346556749     0.593579054659    -0.150213543771    12.000000000000
         C            3.434052556749    -0.322550945341     0.117281456229    12.000000000000
         C            1.900306556749     1.520434054659    -0.175667543771    12.000000000000
         C            3.195593556749     1.052447054659    -0.038644543771    12.000000000000
         C           -2.787328443251     1.167770054659     0.262643456229    12.000000000000
         C           -1.855213443251    -0.975825945341    -0.375239543771    12.000000000000
         C            2.311801556749    -1.147664945341     0.121872456229    12.000000000000
         C            4.824529556749    -0.874749945341     0.266999456229    12.000000000000
         C           -4.044058443251     0.586435054659     0.409776456229    12.000000000000
         C           -3.116895443251    -1.547393945341    -0.205187543771    12.000000000000
         C           -4.217861443251    -0.779241945341     0.176959456229    12.000000000000
         H           -0.536885443251     2.076140054659    -0.235558543771     1.007825032230
         H            1.704465556749     2.584033054659    -0.297695543771     1.007825032230
         H            4.028333556749     1.754439054659    -0.051569543771     1.007825032230
         H           -2.656366443251     2.230995054659     0.462713456229     1.007825032230
         H           -1.008137443251    -1.578375945341    -0.673371543771     1.007825032230
         H            2.427682556749    -2.225778945341     0.238230456229     1.007825032230
         H            5.434538056749    -0.604116545341    -0.600853743771     1.007825032230
         H            5.325053556749    -0.456369945341     1.146147456229     1.007825032230
         H            4.800061556749    -1.962112945341     0.380121456229     1.007825032230
         H           -4.887036443251     1.204983054659     0.709126456229     1.007825032230
         H           -3.239281443251    -2.611070945341    -0.397228543771     1.007825032230
         H           -5.195392443251    -1.238379945341     0.298956456229     1.007825032230

  Basis Set: AUG-CC-PVTZ
    Blend: AUG-CC-PVTZ
  Basis Set: (AUG-CC-PVTZ AUX)
    Blend: AUG-CC-PVTZ-JKFIT
	 Reference Energy          =    -570.4987667546656667 [Eh]
	 Singles Energy            =      -0.0000000000000000 [Eh]
	 Same-Spin Energy          =      -0.6364430344333799 [Eh]
	 Opposite-Spin Energy      =      -1.9709410974363590 [Eh]
	 Correlation Energy        =      -2.6073841318697388 [Eh]
	 Total Energy              =    -573.1061508865353744 [Eh]

	 ================> DF-SCS-MP2 Energies <==================
	-----------------------------------------------------------
	 SCS Same-Spin Scale       =       0.3333333333333333 [-]
	 SCS Opposite-Spin Scale   =       1.2000000000000000 [-]
	 SCS Same-Spin Energy      =      -0.2121476781444600 [Eh]
	 SCS Opposite-Spin Energy  =      -2.3651293169236309 [Eh]
	 SCS Correlation Energy    =      -2.5772769950680909 [Eh]
	 SCS Total Energy          =    -573.0760437497337989 [Eh]
	-----------------------------------------------------------

  Dipole Moment: [D]
     X:     1.8790      Y:     1.8619      Z:     0.1700     Total:     2.6508

*** Psi4 exiting successfully. Buy a developer a beer!
