                               Psi4 1.4a3.dev225

  ==> Input File <==

--------------------------------------------------------------------------
#psi4
#
memory 32 gb

molecule  {
0 1
  N       -0.4914050     1.0723760    -0.3164170
  N        1.0085960    -0.7184190    -0.0133500
  C       -1.7100270     0.3982770    -0.1243180
  C        0.8049200     0.5981430    -0.1551110
  C        3.4026260    -0.3179870     0.1123840
  C        1.8688800     1.5249980    -0.1805650
  C        3.1641670     1.0570110    -0.0435420
  C       -2.8187550     1.1723340     0.2577460
  C       -1.8866400    -0.9712620    -0.3801370
  C        2.2803750    -1.1431010     0.1169750
  C        4.7931030    -0.8701860     0.2621020
  C       -4.0754850     0.5909990     0.4048790
  C       -3.1483220    -1.5428300    -0.2100850
  C       -4.2492880    -0.7746780     0.1720620
  H       -0.5667953     2.0608179    -0.2419541
  H        1.6730390     2.5885970    -0.3025930
  H        3.9969070     1.7590030    -0.0564670
  H       -2.6877930     2.2355590     0.4578160
  H       -1.0395640    -1.5738120    -0.6782690
  H        2.3962560    -2.2212150     0.2333330
  H        5.4095350    -0.6367030    -0.6119800
  H        5.2936270    -0.4518060     1.1412500
  H        4.7686350    -1.9575490     0.3752240
  H       -4.9184630     1.2095470     0.7042290
  H       -3.2707080    -2.6065070    -0.4021260
  H       -5.2268190    -1.2338160     0.2940590
units angstrom
no_reorient  #important for SAPT in psi4, default
symmetry c1  #important for SAPT in psi4, default
}

set PROPERTIES_ORIGIN ["COM"]
properties('MP2/aug-cc-pvtz', properties = ['dipole'])
--------------------------------------------------------------------------

    Molecular point group: c1
  Charge       = 0
  Multiplicity = 1
  Basis Set: AUG-CC-PVTZ
    Blend: AUG-CC-PVTZ
  Basis Set: (AUG-CC-PVTZ AUX)
    Blend: AUG-CC-PVTZ-JKFIT

    Orbital Energies [Eh]
    ---------------------

    Doubly Occupied:

       1A    -15.587174     2A    -15.553767     3A    -11.322980
       4A    -11.280895     5A    -11.272808     6A    -11.258507
       7A    -11.238934     8A    -11.235375     9A    -11.233762
      10A    -11.230313    11A    -11.228968    12A    -11.228649
      13A    -11.221492    14A    -11.218412    15A     -1.294280
      16A     -1.221283    17A     -1.133114    18A     -1.097052
      19A     -1.046079    20A     -1.008081    21A     -0.993452
      22A     -0.935510    23A     -0.868672    24A     -0.841579
      25A     -0.821365    26A     -0.798815    27A     -0.724866
      28A     -0.716909    29A     -0.670612    30A     -0.654273
      31A     -0.637332    32A     -0.621351    33A     -0.596253
      34A     -0.593759    35A     -0.588655    36A     -0.579751
      37A     -0.569643    38A     -0.562810    39A     -0.546875
      40A     -0.519193    41A     -0.511186    42A     -0.504202
      43A     -0.487419    44A     -0.454268    45A     -0.414412
      46A     -0.381454    47A     -0.336644    48A     -0.330499
      49A     -0.277091

  @DF-RHF Final Energy:  -570.49945251826148

   => Energetics <=

    Nuclear Repulsion Energy =            790.8939480144566687
    One-Electron Energy =               -2341.8852438071094184
    Two-Electron Energy =                 980.4918432743911580
    Total Energy =                       -570.4994525182614780
  Basis Set: (AUG-CC-PVTZ AUX)
    Blend: AUG-CC-PVTZ-RI
    Molecular point group: c1

    Geometry (in Angstrom), charge = 0, multiplicity = 1:

       Center              X                  Y                   Z               Mass
    ------------   -----------------  -----------------  -----------------  -----------------
         N           -0.460021910553     1.068124291473    -0.311477244145    14.003074004430
         N            1.039979089447    -0.722670708527    -0.008410244145    14.003074004430
         C           -1.678643910553     0.394025291473    -0.119378244145    12.000000000000
         C            0.836303089447     0.593891291473    -0.150171244145    12.000000000000
         C            3.434009089447    -0.322238708527     0.117323755855    12.000000000000
         C            1.900263089447     1.520746291473    -0.175625244145    12.000000000000
         C            3.195550089447     1.052759291473    -0.038602244145    12.000000000000
         C           -2.787371910553     1.168082291473     0.262685755855    12.000000000000
         C           -1.855256910553    -0.975513708527    -0.375197244145    12.000000000000
         C            2.311758089447    -1.147352708527     0.121914755855    12.000000000000
         C            4.824486089447    -0.874437708527     0.267041755855    12.000000000000
         C           -4.044101910553     0.586747291473     0.409818755855    12.000000000000
         C           -3.116938910553    -1.547081708527    -0.205145244145    12.000000000000
         C           -4.217904910553    -0.778929708527     0.177001755855    12.000000000000
         H           -0.535412210553     2.056566191473    -0.237014344145     1.007825032230
         H            1.704422089447     2.584345291473    -0.297653244145     1.007825032230
         H            4.028290089447     1.754751291473    -0.051527244145     1.007825032230
         H           -2.656409910553     2.231307291473     0.462755755855     1.007825032230
         H           -1.008180910553    -1.578063708527    -0.673329244145     1.007825032230
         H            2.427639089447    -2.225466708527     0.238272755855     1.007825032230
         H            5.440918089447    -0.640954708527    -0.607040244145     1.007825032230
         H            5.325010089447    -0.456057708527     1.146189755855     1.007825032230
         H            4.800018089447    -1.961800708527     0.380163755855     1.007825032230
         H           -4.887079910553     1.205295291473     0.709168755855     1.007825032230
         H           -3.239324910553    -2.610758708527    -0.397186244145     1.007825032230
         H           -5.195435910553    -1.238067708527     0.298998755855     1.007825032230

  Basis Set: AUG-CC-PVTZ
    Blend: AUG-CC-PVTZ
  Basis Set: (AUG-CC-PVTZ AUX)
    Blend: AUG-CC-PVTZ-JKFIT
	 Reference Energy          =    -570.4994525182614780 [Eh]
	 Singles Energy            =      -0.0000000000000000 [Eh]
	 Same-Spin Energy          =      -0.6362348809397019 [Eh]
	 Opposite-Spin Energy      =      -1.9704798848587330 [Eh]
	 Correlation Energy        =      -2.6067147657984351 [Eh]
	 Total Energy              =    -573.1061672840598931 [Eh]

	 ================> DF-SCS-MP2 Energies <==================
	-----------------------------------------------------------
	 SCS Same-Spin Scale       =       0.3333333333333333 [-]
	 SCS Opposite-Spin Scale   =       1.2000000000000000 [-]
	 SCS Same-Spin Energy      =      -0.2120782936465673 [Eh]
	 SCS Opposite-Spin Energy  =      -2.3645758618304797 [Eh]
	 SCS Correlation Energy    =      -2.5766541554770472 [Eh]
	 SCS Total Energy          =    -573.0761066737385363 [Eh]
	-----------------------------------------------------------

  Dipole Moment: [D]
     X:     1.8752      Y:     1.8400      Z:     0.1629     Total:     2.6322

*** Psi4 exiting successfully. Buy a developer a beer!
