                               Psi4 1.4a3.dev225

  ==> Input File <==

--------------------------------------------------------------------------
#psi4
#
memory 32 gb

molecule  {
0 1
  N       -0.4914050     1.0723760    -0.3164170
  N        1.0085960    -0.7184190    -0.0133500
  C       -1.7100270     0.3982770    -0.1243180
  C        0.8049200     0.5981430    -0.1551110
  C        3.4026260    -0.3179870     0.1123840
  C        1.8688800     1.5249980    -0.1805650
  C        3.1641670     1.0570110    -0.0435420
  C       -2.8187550     1.1723340     0.2577460
  C       -1.8866400    -0.9712620    -0.3801370
  C        2.2803750    -1.1431010     0.1169750
  C        4.7931030    -0.8701860     0.2621020
  C       -4.0754850     0.5909990     0.4048790
  C       -3.1483220    -1.5428300    -0.2100850
  C       -4.2492880    -0.7746780     0.1720620
  H       -0.5683120     2.0807040    -0.2404560
  H        1.6730390     2.5885970    -0.3025930
  H        3.9969070     1.7590030    -0.0564670
  H       -2.6877930     2.2355590     0.4578160
  H       -1.0395640    -1.5738120    -0.6782690
  H        2.3962560    -2.2212150     0.2333330
  H        5.4095350    -0.6367030    -0.6119800
  H        5.2911804    -0.4342628     1.1340866
  H        4.7686350    -1.9575490     0.3752240
  H       -4.9184630     1.2095470     0.7042290
  H       -3.2707080    -2.6065070    -0.4021260
  H       -5.2268190    -1.2338160     0.2940590
units angstrom
no_reorient  #important for SAPT in psi4, default
symmetry c1  #important for SAPT in psi4, default
}

set PROPERTIES_ORIGIN ["COM"]
properties('MP2/aug-cc-pvtz', properties = ['dipole'])
--------------------------------------------------------------------------

    Molecular point group: c1
  Charge       = 0
  Multiplicity = 1
  Basis Set: AUG-CC-PVTZ
    Blend: AUG-CC-PVTZ
  Basis Set: (AUG-CC-PVTZ AUX)
    Blend: AUG-CC-PVTZ-JKFIT

    Orbital Energies [Eh]
    ---------------------

    Doubly Occupied:

       1A    -15.589086     2A    -15.553697     3A    -11.322932
       4A    -11.280920     5A    -11.272685     6A    -11.258428
       7A    -11.238877     8A    -11.235246     9A    -11.233713
      10A    -11.230289    11A    -11.229011    12A    -11.228577
      13A    -11.221426    14A    -11.218393    15A     -1.293086
      16A     -1.220084    17A     -1.132778    18A     -1.096995
      19A     -1.045964    20A     -1.008026    21A     -0.993072
      22A     -0.934891    23A     -0.868516    24A     -0.841155
      25A     -0.821156    26A     -0.797921    27A     -0.723629
      28A     -0.715563    29A     -0.670552    30A     -0.653324
      31A     -0.637033    32A     -0.621248    33A     -0.595583
      34A     -0.593468    35A     -0.588381    36A     -0.579509
      37A     -0.568935    38A     -0.562825    39A     -0.547968
      40A     -0.518990    41A     -0.511202    42A     -0.504069
      43A     -0.487347    44A     -0.454033    45A     -0.414335
      46A     -0.381373    47A     -0.336501    48A     -0.330455
      49A     -0.276859

  @DF-RHF Final Energy:  -570.49888904798479

   => Energetics <=

    Nuclear Repulsion Energy =            790.7823037604362071
    One-Electron Energy =               -2341.6821722154954841
    Two-Electron Energy =                 980.4009794070744874
    Total Energy =                       -570.4988890479847896
  Basis Set: (AUG-CC-PVTZ AUX)
    Blend: AUG-CC-PVTZ-RI
    Molecular point group: c1

    Geometry (in Angstrom), charge = 0, multiplicity = 1:

       Center              X                  Y                   Z               Mass
    ------------   -----------------  -----------------  -----------------  -----------------
         N           -0.460000214127     1.067919391008    -0.311446230404    14.003074004430
         N            1.040000785873    -0.722875608992    -0.008379230404    14.003074004430
         C           -1.678622214127     0.393820391008    -0.119347230404    12.000000000000
         C            0.836324785873     0.593686391008    -0.150140230404    12.000000000000
         C            3.434030785873    -0.322443608992     0.117354769596    12.000000000000
         C            1.900284785873     1.520541391008    -0.175594230404    12.000000000000
         C            3.195571785873     1.052554391008    -0.038571230404    12.000000000000
         C           -2.787350214127     1.167877391008     0.262716769596    12.000000000000
         C           -1.855235214127    -0.975718608992    -0.375166230404    12.000000000000
         C            2.311779785873    -1.147557608992     0.121945769596    12.000000000000
         C            4.824507785873    -0.874642608992     0.267072769596    12.000000000000
         C           -4.044080214127     0.586542391008     0.409849769596    12.000000000000
         C           -3.116917214127    -1.547286608992    -0.205114230404    12.000000000000
         C           -4.217883214127    -0.779134608992     0.177032769596    12.000000000000
         H           -0.536907214127     2.076247391008    -0.235485230404     1.007825032230
         H            1.704443785873     2.584140391008    -0.297622230404     1.007825032230
         H            4.028311785873     1.754546391008    -0.051496230404     1.007825032230
         H           -2.656388214127     2.231102391008     0.462786769596     1.007825032230
         H           -1.008159214127    -1.578268608992    -0.673298230404     1.007825032230
         H            2.427660785873    -2.225671608992     0.238303769596     1.007825032230
         H            5.440939785873    -0.641159608992    -0.607009230404     1.007825032230
         H            5.322585185873    -0.438719408992     1.139057369596     1.007825032230
         H            4.800039785873    -1.962005608992     0.380194769596     1.007825032230
         H           -4.887058214127     1.205090391008     0.709199769596     1.007825032230
         H           -3.239303214127    -2.610963608992    -0.397155230404     1.007825032230
         H           -5.195414214127    -1.238272608992     0.299029769596     1.007825032230

  Basis Set: AUG-CC-PVTZ
    Blend: AUG-CC-PVTZ
  Basis Set: (AUG-CC-PVTZ AUX)
    Blend: AUG-CC-PVTZ-JKFIT
	 Reference Energy          =    -570.4988890479847896 [Eh]
	 Singles Energy            =      -0.0000000000000000 [Eh]
	 Same-Spin Energy          =      -0.6364266759149475 [Eh]
	 Opposite-Spin Energy      =      -1.9709136886872436 [Eh]
	 Correlation Energy        =      -2.6073403646021909 [Eh]
	 Total Energy              =    -573.1062294125870267 [Eh]

	 ================> DF-SCS-MP2 Energies <==================
	-----------------------------------------------------------
	 SCS Same-Spin Scale       =       0.3333333333333333 [-]
	 SCS Opposite-Spin Scale   =       1.2000000000000000 [-]
	 SCS Same-Spin Energy      =      -0.2121422253049825 [Eh]
	 SCS Opposite-Spin Energy  =      -2.3650964264246923 [Eh]
	 SCS Correlation Energy    =      -2.5772386517296746 [Eh]
	 SCS Total Energy          =    -573.0761276997144478 [Eh]
	-----------------------------------------------------------

  Dipole Moment: [D]
     X:     1.8749      Y:     1.8571      Z:     0.1592     Total:     2.6438

*** Psi4 exiting successfully. Buy a developer a beer!
