                               Psi4 1.4a3.dev225

  ==> Input File <==

--------------------------------------------------------------------------
#psi4
#
memory 32 gb

molecule  {
0 1
  N       -0.4914050     1.0723760    -0.3164170
  N        1.0085960    -0.7184190    -0.0133500
  C       -1.7100270     0.3982770    -0.1243180
  C        0.8049200     0.5981430    -0.1551110
  C        3.4026260    -0.3179870     0.1123840
  C        1.8688800     1.5249980    -0.1805650
  C        3.1641670     1.0570110    -0.0435420
  C       -2.8187550     1.1723340     0.2577460
  C       -1.8866400    -0.9712620    -0.3801370
  C        2.2803750    -1.1431010     0.1169750
  C        4.7931030    -0.8701860     0.2621020
  C       -4.0754850     0.5909990     0.4048790
  C       -3.1483220    -1.5428300    -0.2100850
  C       -4.2492880    -0.7746780     0.1720620
  H       -0.5683120     2.0807040    -0.2404560
  H        1.6730390     2.5885970    -0.3025930
  H        3.9969070     1.7590030    -0.0564670
  H       -2.6877930     2.2355590     0.4578160
  H       -1.0395640    -1.5738120    -0.6782690
  H        2.3962560    -2.2212150     0.2333330
  H        5.4095350    -0.6367030    -0.6119800
  H        5.2936270    -0.4518060     1.1412500
  H        4.7686350    -1.9575490     0.3752240
  H       -4.9184630     1.2095470     0.7042290
  H       -3.2729582    -2.6260638    -0.4056569
  H       -5.2268190    -1.2338160     0.2940590
units angstrom
no_reorient  #important for SAPT in psi4, default
symmetry c1  #important for SAPT in psi4, default
}

set PROPERTIES_ORIGIN ["COM"]
properties('MP2/aug-cc-pvtz', properties = ['dipole'])
--------------------------------------------------------------------------

    Molecular point group: c1
  Charge       = 0
  Multiplicity = 1
  Basis Set: AUG-CC-PVTZ
    Blend: AUG-CC-PVTZ
  Basis Set: (AUG-CC-PVTZ AUX)
    Blend: AUG-CC-PVTZ-JKFIT

    Orbital Energies [Eh]
    ---------------------

    Doubly Occupied:

       1A    -15.589199     2A    -15.553758     3A    -11.323030
       4A    -11.281081     5A    -11.272799     6A    -11.258471
       7A    -11.238886     8A    -11.235327     9A    -11.233874
      10A    -11.232645    11A    -11.228941    12A    -11.228676
      13A    -11.221646    14A    -11.218607    15A     -1.293178
      16A     -1.220174    17A     -1.132794    18A     -1.096971
      19A     -1.045950    20A     -1.007645    21A     -0.993081
      22A     -0.934897    23A     -0.868537    24A     -0.841142
      25A     -0.820288    26A     -0.797923    27A     -0.723654
      28A     -0.714619    29A     -0.670654    30A     -0.653016
      31A     -0.636905    32A     -0.621015    33A     -0.595608
      34A     -0.593391    35A     -0.588303    36A     -0.578307
      37A     -0.569411    38A     -0.562749    39A     -0.546798
      40A     -0.519203    41A     -0.511186    42A     -0.503924
      43A     -0.486477    44A     -0.454182    45A     -0.414406
      46A     -0.381437    47A     -0.336651    48A     -0.330595
      49A     -0.276999

  @DF-RHF Final Energy:  -570.49830208876949

   => Energetics <=

    Nuclear Repulsion Energy =            790.6629959799817016
    One-Electron Energy =               -2341.4445794350726828
    Two-Electron Energy =                 980.2832813663216029
    Total Energy =                       -570.4983020887694920
  Basis Set: (AUG-CC-PVTZ AUX)
    Blend: AUG-CC-PVTZ-RI
    Molecular point group: c1

    Geometry (in Angstrom), charge = 0, multiplicity = 1:

       Center              X                  Y                   Z               Mass
    ------------   -----------------  -----------------  -----------------  -----------------
         N           -0.460001289286     1.068122488775    -0.311466115920    14.003074004430
         N            1.039999710714    -0.722672511225    -0.008399115920    14.003074004430
         C           -1.678623289286     0.394023488775    -0.119367115920    12.000000000000
         C            0.836323710714     0.593889488775    -0.150160115920    12.000000000000
         C            3.434029710714    -0.322240511225     0.117334884080    12.000000000000
         C            1.900283710714     1.520744488775    -0.175614115920    12.000000000000
         C            3.195570710714     1.052757488775    -0.038591115920    12.000000000000
         C           -2.787351289286     1.168080488775     0.262696884080    12.000000000000
         C           -1.855236289286    -0.975515511225    -0.375186115920    12.000000000000
         C            2.311778710714    -1.147354511225     0.121925884080    12.000000000000
         C            4.824506710714    -0.874439511225     0.267052884080    12.000000000000
         C           -4.044081289286     0.586745488775     0.409829884080    12.000000000000
         C           -3.116918289286    -1.547083511225    -0.205134115920    12.000000000000
         C           -4.217884289286    -0.778931511225     0.177012884080    12.000000000000
         H           -0.536908289286     2.076450488775    -0.235505115920     1.007825032230
         H            1.704442710714     2.584343488775    -0.297642115920     1.007825032230
         H            4.028310710714     1.754749488775    -0.051516115920     1.007825032230
         H           -2.656389289286     2.231305488775     0.462766884080     1.007825032230
         H           -1.008160289286    -1.578065511225    -0.673318115920     1.007825032230
         H            2.427659710714    -2.225468511225     0.238283884080     1.007825032230
         H            5.440938710714    -0.640956511225    -0.607029115920     1.007825032230
         H            5.325030710714    -0.456059511225     1.146200884080     1.007825032230
         H            4.800038710714    -1.961802511225     0.380174884080     1.007825032230
         H           -4.887059289286     1.205293488775     0.709179884080     1.007825032230
         H           -3.241554489286    -2.630317311225    -0.400706015920     1.007825032230
         H           -5.195415289286    -1.238069511225     0.299009884080     1.007825032230

  Basis Set: AUG-CC-PVTZ
    Blend: AUG-CC-PVTZ
  Basis Set: (AUG-CC-PVTZ AUX)
    Blend: AUG-CC-PVTZ-JKFIT
	 Reference Energy          =    -570.4983020887694920 [Eh]
	 Singles Energy            =      -0.0000000000000000 [Eh]
	 Same-Spin Energy          =      -0.6364491642838869 [Eh]
	 Opposite-Spin Energy      =      -1.9710456645304728 [Eh]
	 Correlation Energy        =      -2.6074948288143598 [Eh]
	 Total Energy              =    -573.1057969175838025 [Eh]

	 ================> DF-SCS-MP2 Energies <==================
	-----------------------------------------------------------
	 SCS Same-Spin Scale       =       0.3333333333333333 [-]
	 SCS Opposite-Spin Scale   =       1.2000000000000000 [-]
	 SCS Same-Spin Energy      =      -0.2121497214279623 [Eh]
	 SCS Opposite-Spin Energy  =      -2.3652547974365672 [Eh]
	 SCS Correlation Energy    =      -2.5774045188645296 [Eh]
	 SCS Total Energy          =    -573.0757066076340607 [Eh]
	-----------------------------------------------------------

  Dipole Moment: [D]
     X:     1.8741      Y:     1.8622      Z:     0.1646     Total:     2.6471

*** Psi4 exiting successfully. Buy a developer a beer!
