                               Psi4 1.4a3.dev225

  ==> Input File <==

--------------------------------------------------------------------------
#psi4
#
memory 32 gb

molecule  {
0 1
  N       -0.4914050     1.0723760    -0.3164170
  N        1.0085960    -0.7184190    -0.0133500
  C       -1.7100270     0.3982770    -0.1243180
  C        0.8049200     0.5981430    -0.1551110
  C        3.4026260    -0.3179870     0.1123840
  C        1.8688800     1.5249980    -0.1805650
  C        3.1641670     1.0570110    -0.0435420
  C       -2.8187550     1.1723340     0.2577460
  C       -1.8866400    -0.9712620    -0.3801370
  C        2.3275783    -1.1588635     0.1218121
  C        4.7931030    -0.8701860     0.2621020
  C       -4.0754850     0.5909990     0.4048790
  C       -3.1483220    -1.5428300    -0.2100850
  C       -4.2492880    -0.7746780     0.1720620
  H       -0.5683120     2.0807040    -0.2404560
  H        1.6730390     2.5885970    -0.3025930
  H        3.9969070     1.7590030    -0.0564670
  H       -2.6877930     2.2355590     0.4578160
  H       -1.0395640    -1.5738120    -0.6782690
  H        2.3962560    -2.2212150     0.2333330
  H        5.4095350    -0.6367030    -0.6119800
  H        5.2936270    -0.4518060     1.1412500
  H        4.7686350    -1.9575490     0.3752240
  H       -4.9184630     1.2095470     0.7042290
  H       -3.2707080    -2.6065070    -0.4021260
  H       -5.2268190    -1.2338160     0.2940590
units angstrom
no_reorient  #important for SAPT in psi4, default
symmetry c1  #important for SAPT in psi4, default
}

set PROPERTIES_ORIGIN ["COM"]
properties('MP2/aug-cc-pvtz', properties = ['dipole'])
--------------------------------------------------------------------------

    Molecular point group: c1
  Charge       = 0
  Multiplicity = 1
  Basis Set: AUG-CC-PVTZ
    Blend: AUG-CC-PVTZ
  Basis Set: (AUG-CC-PVTZ AUX)
    Blend: AUG-CC-PVTZ-JKFIT

    Orbital Energies [Eh]
    ---------------------

    Doubly Occupied:

       1A    -15.588842     2A    -15.553455     3A    -11.322141
       4A    -11.280438     5A    -11.270350     6A    -11.260397
       7A    -11.241473     8A    -11.234316     9A    -11.233315
      10A    -11.229786    11A    -11.228552    12A    -11.228302
      13A    -11.221141    14A    -11.217859    15A     -1.288731
      16A     -1.211747    17A     -1.132168    18A     -1.096182
      19A     -1.047582    20A     -1.007550    21A     -0.993337
      22A     -0.934848    23A     -0.872072    24A     -0.839409
      25A     -0.820850    26A     -0.795745    27A     -0.724290
      28A     -0.714473    29A     -0.670240    30A     -0.652496
      31A     -0.637538    32A     -0.623549    33A     -0.595588
      34A     -0.594481    35A     -0.588213    36A     -0.579007
      37A     -0.568883    38A     -0.562816    39A     -0.544530
      40A     -0.517291    41A     -0.510033    42A     -0.503477
      43A     -0.487228    44A     -0.453180    45A     -0.414339
      46A     -0.375792    47A     -0.339245    48A     -0.330202
      49A     -0.279451

  @DF-RHF Final Energy:  -570.49511815709832

   => Energetics <=

    Nuclear Repulsion Energy =            790.1720847227499007
    One-Electron Energy =               -2340.5005434947483991
    Two-Electron Energy =                 979.8333406149002940
    Total Energy =                       -570.4951181570983181
  Basis Set: (AUG-CC-PVTZ AUX)
    Blend: AUG-CC-PVTZ-RI
    Molecular point group: c1

    Geometry (in Angstrom), charge = 0, multiplicity = 1:

       Center              X                  Y                   Z               Mass
    ------------   -----------------  -----------------  -----------------  -----------------
         N           -0.463090410733     1.069042858807    -0.311800736850    14.003074004430
         N            1.036910589267    -0.721752141193    -0.008733736850    14.003074004430
         C           -1.681712410733     0.394943858807    -0.119701736850    12.000000000000
         C            0.833234589267     0.594809858807    -0.150494736850    12.000000000000
         C            3.430940589267    -0.321320141193     0.117000263150    12.000000000000
         C            1.897194589267     1.521664858807    -0.175948736850    12.000000000000
         C            3.192481589267     1.053677858807    -0.038925736850    12.000000000000
         C           -2.790440410733     1.169000858807     0.262362263150    12.000000000000
         C           -1.858325410733    -0.974595141193    -0.375520736850    12.000000000000
         C            2.355892889267    -1.162196641193     0.126428363150    12.000000000000
         C            4.821417589267    -0.873519141193     0.266718263150    12.000000000000
         C           -4.047170410733     0.587665858807     0.409495263150    12.000000000000
         C           -3.120007410733    -1.546163141193    -0.205468736850    12.000000000000
         C           -4.220973410733    -0.778011141193     0.176678263150    12.000000000000
         H           -0.539997410733     2.077370858807    -0.235839736850     1.007825032230
         H            1.701353589267     2.585263858807    -0.297976736850     1.007825032230
         H            4.025221589267     1.755669858807    -0.051850736850     1.007825032230
         H           -2.659478410733     2.232225858807     0.462432263150     1.007825032230
         H           -1.011249410733    -1.577145141193    -0.673652736850     1.007825032230
         H            2.424570589267    -2.224548141193     0.237949263150     1.007825032230
         H            5.437849589267    -0.640036141193    -0.607363736850     1.007825032230
         H            5.321941589267    -0.455139141193     1.145866263150     1.007825032230
         H            4.796949589267    -1.960882141193     0.379840263150     1.007825032230
         H           -4.890148410733     1.206213858807     0.708845263150     1.007825032230
         H           -3.242393410733    -2.609840141193    -0.397509736850     1.007825032230
         H           -5.198504410733    -1.237149141193     0.298675263150     1.007825032230

  Basis Set: AUG-CC-PVTZ
    Blend: AUG-CC-PVTZ
  Basis Set: (AUG-CC-PVTZ AUX)
    Blend: AUG-CC-PVTZ-JKFIT
	 Reference Energy          =    -570.4951181570983181 [Eh]
	 Singles Energy            =      -0.0000000000000000 [Eh]
	 Same-Spin Energy          =      -0.6363360343360368 [Eh]
	 Opposite-Spin Energy      =      -1.9717950841624623 [Eh]
	 Correlation Energy        =      -2.6081311184984992 [Eh]
	 Total Energy              =    -573.1032492755967951 [Eh]

	 ================> DF-SCS-MP2 Energies <==================
	-----------------------------------------------------------
	 SCS Same-Spin Scale       =       0.3333333333333333 [-]
	 SCS Opposite-Spin Scale   =       1.2000000000000000 [-]
	 SCS Same-Spin Energy      =      -0.2121120114453456 [Eh]
	 SCS Opposite-Spin Energy  =      -2.3661541009949545 [Eh]
	 SCS Correlation Energy    =      -2.5782661124402999 [Eh]
	 SCS Total Energy          =    -573.0733842695385647 [Eh]
	-----------------------------------------------------------

  Dipole Moment: [D]
     X:     1.9173      Y:     1.8652      Z:     0.1643     Total:     2.6800

*** Psi4 exiting successfully. Buy a developer a beer!
