                               Psi4 1.4a3.dev225

  ==> Input File <==

--------------------------------------------------------------------------
#psi4
#
memory 32 gb

molecule  {
0 1
  N       -0.4914050     1.0723760    -0.3164170
  N        1.0085960    -0.7184190    -0.0133500
  C       -1.7100270     0.3982770    -0.1243180
  C        0.8049200     0.5981430    -0.1551110
  C        3.4026260    -0.3179870     0.1123840
  C        1.8688800     1.5249980    -0.1805650
  C        3.1882986     1.0611144    -0.0423361
  C       -2.8187550     1.1723340     0.2577460
  C       -1.8866400    -0.9712620    -0.3801370
  C        2.2803750    -1.1431010     0.1169750
  C        4.7931030    -0.8701860     0.2621020
  C       -4.0754850     0.5909990     0.4048790
  C       -3.1483220    -1.5428300    -0.2100850
  C       -4.2492880    -0.7746780     0.1720620
  H       -0.5683120     2.0807040    -0.2404560
  H        1.6730390     2.5885970    -0.3025930
  H        3.9969070     1.7590030    -0.0564670
  H       -2.6877930     2.2355590     0.4578160
  H       -1.0395640    -1.5738120    -0.6782690
  H        2.3962560    -2.2212150     0.2333330
  H        5.4095350    -0.6367030    -0.6119800
  H        5.2936270    -0.4518060     1.1412500
  H        4.7686350    -1.9575490     0.3752240
  H       -4.9184630     1.2095470     0.7042290
  H       -3.2707080    -2.6065070    -0.4021260
  H       -5.2268190    -1.2338160     0.2940590
units angstrom
no_reorient  #important for SAPT in psi4, default
symmetry c1  #important for SAPT in psi4, default
}

set PROPERTIES_ORIGIN ["COM"]
properties('MP2/aug-cc-pvtz', properties = ['dipole'])
--------------------------------------------------------------------------

    Molecular point group: c1
  Charge       = 0
  Multiplicity = 1
  Basis Set: AUG-CC-PVTZ
    Blend: AUG-CC-PVTZ
  Basis Set: (AUG-CC-PVTZ AUX)
    Blend: AUG-CC-PVTZ-JKFIT

    Orbital Energies [Eh]
    ---------------------

    Doubly Occupied:

       1A    -15.588624     2A    -15.554552     3A    -11.322663
       4A    -11.280806     5A    -11.273625     6A    -11.259473
       7A    -11.240728     8A    -11.236162     9A    -11.233586
      10A    -11.230184    11A    -11.228587    12A    -11.228372
      13A    -11.221244    14A    -11.218238    15A     -1.292750
      16A     -1.219796    17A     -1.132630    18A     -1.096090
      19A     -1.044184    20A     -1.007879    21A     -0.992037
      22A     -0.934794    23A     -0.870587    24A     -0.840310
      25A     -0.820713    26A     -0.798748    27A     -0.724826
      28A     -0.714955    29A     -0.669896    30A     -0.653227
      31A     -0.635349    32A     -0.622586    33A     -0.596791
      34A     -0.593701    35A     -0.588373    36A     -0.579546
      37A     -0.570155    38A     -0.565592    39A     -0.546947
      40A     -0.516944    41A     -0.510432    42A     -0.503508
      43A     -0.487274    44A     -0.453825    45A     -0.415433
      46A     -0.378840    47A     -0.336674    48A     -0.330406
      49A     -0.276631

  @DF-RHF Final Energy:  -570.49758716151280

   => Energetics <=

    Nuclear Repulsion Energy =            790.3440332349747450
    One-Electron Energy =               -2340.8046973101545518
    Two-Electron Energy =                 979.9630769136671233
    Total Energy =                       -570.4975871615127971
  Basis Set: (AUG-CC-PVTZ AUX)
    Blend: AUG-CC-PVTZ-RI
    Molecular point group: c1

    Geometry (in Angstrom), charge = 0, multiplicity = 1:

       Center              X                  Y                   Z               Mass
    ------------   -----------------  -----------------  -----------------  -----------------
         N           -0.461586552356     1.067747960722    -0.311564048156    14.003074004430
         N            1.038414447644    -0.723047039278    -0.008497048156    14.003074004430
         C           -1.680208552356     0.393648960722    -0.119465048156    12.000000000000
         C            0.834738447644     0.593514960722    -0.150258048156    12.000000000000
         C            3.432444447644    -0.322615039278     0.117236951844    12.000000000000
         C            1.898698447644     1.520369960722    -0.175712048156    12.000000000000
         C            3.218117047644     1.056486360722    -0.037483148156    12.000000000000
         C           -2.788936552356     1.167705960722     0.262598951844    12.000000000000
         C           -1.856821552356    -0.975890039278    -0.375284048156    12.000000000000
         C            2.310193447644    -1.147729039278     0.121827951844    12.000000000000
         C            4.822921447644    -0.874814039278     0.266954951844    12.000000000000
         C           -4.045666552356     0.586370960722     0.409731951844    12.000000000000
         C           -3.118503552356    -1.547458039278    -0.205232048156    12.000000000000
         C           -4.219469552356    -0.779306039278     0.176914951844    12.000000000000
         H           -0.538493552356     2.076075960722    -0.235603048156     1.007825032230
         H            1.702857447644     2.583968960722    -0.297740048156     1.007825032230
         H            4.026725447644     1.754374960722    -0.051614048156     1.007825032230
         H           -2.657974552356     2.230930960722     0.462668951844     1.007825032230
         H           -1.009745552356    -1.578440039278    -0.673416048156     1.007825032230
         H            2.426074447644    -2.225843039278     0.238185951844     1.007825032230
         H            5.439353447644    -0.641331039278    -0.607127048156     1.007825032230
         H            5.323445447644    -0.456434039278     1.146102951844     1.007825032230
         H            4.798453447644    -1.962177039278     0.380076951844     1.007825032230
         H           -4.888644552356     1.204918960722     0.709081951844     1.007825032230
         H           -3.240889552356    -2.611135039278    -0.397273048156     1.007825032230
         H           -5.197000552356    -1.238444039278     0.298911951844     1.007825032230

  Basis Set: AUG-CC-PVTZ
    Blend: AUG-CC-PVTZ
  Basis Set: (AUG-CC-PVTZ AUX)
    Blend: AUG-CC-PVTZ-JKFIT
	 Reference Energy          =    -570.4975871615127971 [Eh]
	 Singles Energy            =      -0.0000000000000000 [Eh]
	 Same-Spin Energy          =      -0.6365541867350334 [Eh]
	 Opposite-Spin Energy      =      -1.9711919474471415 [Eh]
	 Correlation Energy        =      -2.6077461341821748 [Eh]
	 Total Energy              =    -573.1053332956950044 [Eh]

	 ================> DF-SCS-MP2 Energies <==================
	-----------------------------------------------------------
	 SCS Same-Spin Scale       =       0.3333333333333333 [-]
	 SCS Opposite-Spin Scale   =       1.2000000000000000 [-]
	 SCS Same-Spin Energy      =      -0.2121847289116778 [Eh]
	 SCS Opposite-Spin Energy  =      -2.3654303369365697 [Eh]
	 SCS Correlation Energy    =      -2.5776150658482475 [Eh]
	 SCS Total Energy          =    -573.0752022273610464 [Eh]
	-----------------------------------------------------------

  Dipole Moment: [D]
     X:     1.8935      Y:     1.8544      Z:     0.1641     Total:     2.6553

*** Psi4 exiting successfully. Buy a developer a beer!
