                               Psi4 1.4a3.dev225

  ==> Input File <==

--------------------------------------------------------------------------
#psi4
#
memory 32 gb

molecule  {
0 1
  N       -0.4914050     1.0723760    -0.3164170
  N        1.0085960    -0.7184190    -0.0133500
  C       -1.7100270     0.3982770    -0.1243180
  C        0.8049200     0.5981430    -0.1551110
  C        3.4026260    -0.3179870     0.1123840
  C        1.8688800     1.5249980    -0.1805650
  C        3.1641670     1.0570110    -0.0435420
  C       -2.8187550     1.1723340     0.2577460
  C       -1.8866400    -0.9712620    -0.3801370
  C        2.2803750    -1.1431010     0.1169750
  C        4.7931030    -0.8701860     0.2621020
  C       -4.0754850     0.5909990     0.4048790
  C       -3.1483220    -1.5428300    -0.2100850
  C       -4.2492880    -0.7746780     0.1720620
  H       -0.5683120     2.0807040    -0.2404560
  H        1.6730390     2.5885970    -0.3025930
  H        3.9969070     1.7590030    -0.0564670
  H       -2.6877930     2.2355590     0.4578160
  H       -1.0395640    -1.5738120    -0.6782690
  H        2.3962560    -2.2212150     0.2333330
  H        5.4095350    -0.6367030    -0.6119800
  H        5.2936270    -0.4518060     1.1412500
  H        4.7681875    -1.9774367     0.3772930
  H       -4.9184630     1.2095470     0.7042290
  H       -3.2707080    -2.6065070    -0.4021260
  H       -5.2268190    -1.2338160     0.2940590
units angstrom
no_reorient  #important for SAPT in psi4, default
symmetry c1  #important for SAPT in psi4, default
}

set PROPERTIES_ORIGIN ["COM"]
properties('MP2/aug-cc-pvtz', properties = ['dipole'])
--------------------------------------------------------------------------

    Molecular point group: c1
  Charge       = 0
  Multiplicity = 1
  Basis Set: AUG-CC-PVTZ
    Blend: AUG-CC-PVTZ
  Basis Set: (AUG-CC-PVTZ AUX)
    Blend: AUG-CC-PVTZ-JKFIT

    Orbital Energies [Eh]
    ---------------------

    Doubly Occupied:

       1A    -15.589168     2A    -15.553767     3A    -11.323057
       4A    -11.280965     5A    -11.272821     6A    -11.258598
       7A    -11.238930     8A    -11.235479     9A    -11.233750
      10A    -11.231323    11A    -11.230325    12A    -11.228621
      13A    -11.221466    14A    -11.218438    15A     -1.293174
      16A     -1.220165    17A     -1.132819    18A     -1.096915
      19A     -1.045788    20A     -1.008057    21A     -0.992818
      22A     -0.933919    23A     -0.868536    24A     -0.840949
      25A     -0.821128    26A     -0.797962    27A     -0.723696
      28A     -0.715524    29A     -0.670442    30A     -0.653343
      31A     -0.636671    32A     -0.621289    33A     -0.595647
      34A     -0.593511    35A     -0.588571    36A     -0.579601
      37A     -0.569506    38A     -0.562628    39A     -0.544394
      40A     -0.518534    41A     -0.510988    42A     -0.504095
      43A     -0.487379    44A     -0.454152    45A     -0.414421
      46A     -0.381500    47A     -0.336627    48A     -0.330508
      49A     -0.276970

  @DF-RHF Final Energy:  -570.49840267167940

   => Energetics <=

    Nuclear Repulsion Energy =            790.6819160768333177
    One-Electron Energy =               -2341.4827665447901381
    Two-Electron Energy =                 980.3024477962775336
    Total Energy =                       -570.4984026716794006
  Basis Set: (AUG-CC-PVTZ AUX)
    Blend: AUG-CC-PVTZ-RI
    Molecular point group: c1

    Geometry (in Angstrom), charge = 0, multiplicity = 1:

       Center              X                  Y                   Z               Mass
    ------------   -----------------  -----------------  -----------------  -----------------
         N           -0.460011157867     1.068124300232    -0.311496771640    14.003074004430
         N            1.039989842133    -0.722670699768    -0.008429771640    14.003074004430
         C           -1.678633157867     0.394025300232    -0.119397771640    12.000000000000
         C            0.836313842133     0.593891300232    -0.150190771640    12.000000000000
         C            3.434019842133    -0.322238699768     0.117304228360    12.000000000000
         C            1.900273842133     1.520746300232    -0.175644771640    12.000000000000
         C            3.195560842133     1.052759300232    -0.038621771640    12.000000000000
         C           -2.787361157867     1.168082300232     0.262666228360    12.000000000000
         C           -1.855246157867    -0.975513699768    -0.375216771640    12.000000000000
         C            2.311768842133    -1.147352699768     0.121895228360    12.000000000000
         C            4.824496842133    -0.874437699768     0.267022228360    12.000000000000
         C           -4.044091157867     0.586747300232     0.409799228360    12.000000000000
         C           -3.116928157867    -1.547081699768    -0.205164771640    12.000000000000
         C           -4.217894157867    -0.778929699768     0.176982228360    12.000000000000
         H           -0.536918157867     2.076452300232    -0.235535771640     1.007825032230
         H            1.704432842133     2.584345300232    -0.297672771640     1.007825032230
         H            4.028300842133     1.754751300232    -0.051546771640     1.007825032230
         H           -2.656399157867     2.231307300232     0.462736228360     1.007825032230
         H           -1.008170157867    -1.578063699768    -0.673348771640     1.007825032230
         H            2.427649842133    -2.225466699768     0.238253228360     1.007825032230
         H            5.440928842133    -0.640954699768    -0.607059771640     1.007825032230
         H            5.325020842133    -0.456057699768     1.146170228360     1.007825032230
         H            4.799581342133    -1.981688399768     0.382213228360     1.007825032230
         H           -4.887069157867     1.205295300232     0.709149228360     1.007825032230
         H           -3.239314157867    -2.610758699768    -0.397205771640     1.007825032230
         H           -5.195425157867    -1.238067699768     0.298979228360     1.007825032230

  Basis Set: AUG-CC-PVTZ
    Blend: AUG-CC-PVTZ
  Basis Set: (AUG-CC-PVTZ AUX)
    Blend: AUG-CC-PVTZ-JKFIT
	 Reference Energy          =    -570.4984026716794006 [Eh]
	 Singles Energy            =      -0.0000000000000000 [Eh]
	 Same-Spin Energy          =      -0.6364193884455820 [Eh]
	 Opposite-Spin Energy      =      -1.9710340907813524 [Eh]
	 Correlation Energy        =      -2.6074534792269342 [Eh]
	 Total Energy              =    -573.1058561509063338 [Eh]

	 ================> DF-SCS-MP2 Energies <==================
	-----------------------------------------------------------
	 SCS Same-Spin Scale       =       0.3333333333333333 [-]
	 SCS Opposite-Spin Scale   =       1.2000000000000000 [-]
	 SCS Same-Spin Energy      =      -0.2121397961485273 [Eh]
	 SCS Opposite-Spin Energy  =      -2.3652409089376230 [Eh]
	 SCS Correlation Energy    =      -2.5773807050861501 [Eh]
	 SCS Total Energy          =    -573.0757833767655711 [Eh]
	-----------------------------------------------------------

  Dipole Moment: [D]
     X:     1.8637      Y:     1.8638      Z:     0.1616     Total:     2.6407

*** Psi4 exiting successfully. Buy a developer a beer!
