                               Psi4 1.4a3.dev225

  ==> Input File <==

--------------------------------------------------------------------------
#psi4
#
memory 32 gb

molecule  {
0 1
  N       -0.4914050     1.0723760    -0.3164170
  N        1.0085960    -0.7184190    -0.0133500
  C       -1.7100270     0.3982770    -0.1243180
  C        0.8049200     0.5981430    -0.1551110
  C        3.4026260    -0.3179870     0.1123840
  C        1.8688800     1.5249980    -0.1805650
  C        3.1641670     1.0570110    -0.0435420
  C       -2.8187550     1.1723340     0.2577460
  C       -1.8866400    -0.9712620    -0.3801370
  C        2.2803750    -1.1431010     0.1169750
  C        4.7931030    -0.8701860     0.2621020
  C       -4.0754850     0.5909990     0.4048790
  C       -3.1483220    -1.5428300    -0.2100850
  C       -4.2492880    -0.7746780     0.1720620
  H       -0.5683120     2.0807040    -0.2404560
  H        1.6730390     2.5885970    -0.3025930
  H        3.9969070     1.7590030    -0.0564670
  H       -2.6877930     2.2355590     0.4578160
  H       -1.0395640    -1.5738120    -0.6782690
  H        2.3962560    -2.2212150     0.2333330
  H        5.4095350    -0.6367030    -0.6119800
  H        5.2479064    -0.4900231     1.0609438
  H        4.7686350    -1.9575490     0.3752240
  H       -4.9184630     1.2095470     0.7042290
  H       -3.2707080    -2.6065070    -0.4021260
  H       -5.2268190    -1.2338160     0.2940590
units angstrom
no_reorient  #important for SAPT in psi4, default
symmetry c1  #important for SAPT in psi4, default
}

set PROPERTIES_ORIGIN ["COM"]
properties('MP2/aug-cc-pvtz', properties = ['dipole'])
--------------------------------------------------------------------------

    Molecular point group: c1
  Charge       = 0
  Multiplicity = 1
  Basis Set: AUG-CC-PVTZ
    Blend: AUG-CC-PVTZ
  Basis Set: (AUG-CC-PVTZ AUX)
    Blend: AUG-CC-PVTZ-JKFIT

    Orbital Energies [Eh]
    ---------------------

    Doubly Occupied:

       1A    -15.588829     2A    -15.553434     3A    -11.322617
       4A    -11.280770     5A    -11.272255     6A    -11.258195
       7A    -11.238584     8A    -11.234641     9A    -11.233587
      10A    -11.230157    11A    -11.228428    12A    -11.221288
      13A    -11.218234    14A    -11.216572    15A     -1.292826
      16A     -1.219832    17A     -1.132637    18A     -1.097720
      19A     -1.046831    20A     -1.007945    21A     -0.994603
      22A     -0.941290    23A     -0.868221    24A     -0.842980
      25A     -0.821232    26A     -0.798135    27A     -0.723485
      28A     -0.715398    29A     -0.670367    30A     -0.654427
      31A     -0.637218    32A     -0.621057    33A     -0.601210
      34A     -0.593905    35A     -0.590598    36A     -0.580064
      37A     -0.574790    38A     -0.562851    39A     -0.549368
      40A     -0.518670    41A     -0.511535    42A     -0.504045
      43A     -0.487199    44A     -0.454328    45A     -0.414137
      46A     -0.381311    47A     -0.336607    48A     -0.330362
      49A     -0.276786

  @DF-RHF Final Energy:  -570.49289679751314

   => Energetics <=

    Nuclear Repulsion Energy =            791.2367874827110654
    One-Electron Energy =               -2342.5562446982057736
    Two-Electron Energy =                 980.8265604179816819
    Total Energy =                       -570.4928967975131400
  Basis Set: (AUG-CC-PVTZ AUX)
    Blend: AUG-CC-PVTZ-RI
    Molecular point group: c1

    Geometry (in Angstrom), charge = 0, multiplicity = 1:

       Center              X                  Y                   Z               Mass
    ------------   -----------------  -----------------  -----------------  -----------------
         N           -0.459763317826     1.068224641477    -0.311045822336    14.003074004430
         N            1.040237682174    -0.722570358523    -0.007978822336    14.003074004430
         C           -1.678385317826     0.394125641477    -0.118946822336    12.000000000000
         C            0.836561682174     0.593991641477    -0.149739822336    12.000000000000
         C            3.434267682174    -0.322138358523     0.117755177664    12.000000000000
         C            1.900521682174     1.520846641477    -0.175193822336    12.000000000000
         C            3.195808682174     1.052859641477    -0.038170822336    12.000000000000
         C           -2.787113317826     1.168182641477     0.263117177664    12.000000000000
         C           -1.854998317826    -0.975413358523    -0.374765822336    12.000000000000
         C            2.312016682174    -1.147252358523     0.122346177664    12.000000000000
         C            4.824744682174    -0.874337358523     0.267473177664    12.000000000000
         C           -4.043843317826     0.586847641477     0.410250177664    12.000000000000
         C           -3.116680317826    -1.546981358523    -0.204713822336    12.000000000000
         C           -4.217646317826    -0.778829358523     0.177433177664    12.000000000000
         H           -0.536670317826     2.076552641477    -0.235084822336     1.007825032230
         H            1.704680682174     2.584445641477    -0.297221822336     1.007825032230
         H            4.028548682174     1.754851641477    -0.051095822336     1.007825032230
         H           -2.656151317826     2.231407641477     0.463187177664     1.007825032230
         H           -1.007922317826    -1.577963358523    -0.672897822336     1.007825032230
         H            2.427897682174    -2.225366358523     0.238704177664     1.007825032230
         H            5.441176682174    -0.640854358523    -0.606608822336     1.007825032230
         H            5.279548082174    -0.494174458523     1.066314977664     1.007825032230
         H            4.800276682174    -1.961700358523     0.380595177664     1.007825032230
         H           -4.886821317826     1.205395641477     0.709600177664     1.007825032230
         H           -3.239066317826    -2.610658358523    -0.396754822336     1.007825032230
         H           -5.195177317826    -1.237967358523     0.299430177664     1.007825032230

  Basis Set: AUG-CC-PVTZ
    Blend: AUG-CC-PVTZ
  Basis Set: (AUG-CC-PVTZ AUX)
    Blend: AUG-CC-PVTZ-JKFIT
	 Reference Energy          =    -570.4928967975131400 [Eh]
	 Singles Energy            =      -0.0000000000000000 [Eh]
	 Same-Spin Energy          =      -0.6364693643243058 [Eh]
	 Opposite-Spin Energy      =      -1.9704529614046953 [Eh]
	 Correlation Energy        =      -2.6069223257290011 [Eh]
	 Total Energy              =    -573.0998191232421277 [Eh]

	 ================> DF-SCS-MP2 Energies <==================
	-----------------------------------------------------------
	 SCS Same-Spin Scale       =       0.3333333333333333 [-]
	 SCS Opposite-Spin Scale   =       1.2000000000000000 [-]
	 SCS Same-Spin Energy      =      -0.2121564547747686 [Eh]
	 SCS Opposite-Spin Energy  =      -2.3645435536856341 [Eh]
	 SCS Correlation Energy    =      -2.5767000084604028 [Eh]
	 SCS Total Energy          =    -573.0695968059735605 [Eh]
	-----------------------------------------------------------

  Dipole Moment: [D]
     X:     1.9194      Y:     1.8555      Z:     0.1897     Total:     2.6764

*** Psi4 exiting successfully. Buy a developer a beer!
