                               Psi4 1.4a3.dev225

  ==> Input File <==

--------------------------------------------------------------------------
#psi4
#
memory 32 gb

molecule  {
0 1
  N       -0.4914050     1.0723760    -0.3164170
  N        1.0085960    -0.7184190    -0.0133500
  C       -1.7100270     0.3982770    -0.1243180
  C        0.8049200     0.5981430    -0.1551110
  C        3.4026260    -0.3179870     0.1123840
  C        1.8688800     1.5249980    -0.1805650
  C        3.1641670     1.0570110    -0.0435420
  C       -2.8187550     1.1723340     0.2577460
  C       -1.8929280    -1.0200217    -0.3892449
  C        2.2803750    -1.1431010     0.1169750
  C        4.7931030    -0.8701860     0.2621020
  C       -4.0754850     0.5909990     0.4048790
  C       -3.1483220    -1.5428300    -0.2100850
  C       -4.2492880    -0.7746780     0.1720620
  H       -0.5683120     2.0807040    -0.2404560
  H        1.6730390     2.5885970    -0.3025930
  H        3.9969070     1.7590030    -0.0564670
  H       -2.6877930     2.2355590     0.4578160
  H       -1.0395640    -1.5738120    -0.6782690
  H        2.3962560    -2.2212150     0.2333330
  H        5.4095350    -0.6367030    -0.6119800
  H        5.2936270    -0.4518060     1.1412500
  H        4.7686350    -1.9575490     0.3752240
  H       -4.9184630     1.2095470     0.7042290
  H       -3.2707080    -2.6065070    -0.4021260
  H       -5.2268190    -1.2338160     0.2940590
units angstrom
no_reorient  #important for SAPT in psi4, default
symmetry c1  #important for SAPT in psi4, default
}

set PROPERTIES_ORIGIN ["COM"]
properties('MP2/aug-cc-pvtz', properties = ['dipole'])
--------------------------------------------------------------------------

    Molecular point group: c1
  Charge       = 0
  Multiplicity = 1
  Basis Set: AUG-CC-PVTZ
    Blend: AUG-CC-PVTZ
  Basis Set: (AUG-CC-PVTZ AUX)
    Blend: AUG-CC-PVTZ-JKFIT

    Orbital Energies [Eh]
    ---------------------

    Doubly Occupied:

       1A    -15.590678     2A    -15.554705     3A    -11.323656
       4A    -11.286415     5A    -11.273447     6A    -11.259038
       7A    -11.239518     8A    -11.235951     9A    -11.233803
      10A    -11.229358    11A    -11.227471    12A    -11.227295
      13A    -11.220618    14A    -11.219941    15A     -1.293579
      16A     -1.220098    17A     -1.131402    18A     -1.097577
      19A     -1.046157    20A     -1.011117    21A     -0.989455
      22A     -0.934822    23A     -0.869431    24A     -0.841762
      25A     -0.817868    26A     -0.799711    27A     -0.724657
      28A     -0.714374    29A     -0.673436    30A     -0.653566
      31A     -0.638069    32A     -0.622577    33A     -0.595445
      34A     -0.590434    35A     -0.587707    36A     -0.583002
      37A     -0.569277    38A     -0.563687    39A     -0.547262
      40A     -0.520819    41A     -0.511927    42A     -0.504624
      43A     -0.482311    44A     -0.454648    45A     -0.416310
      46A     -0.382088    47A     -0.338397    48A     -0.330231
      49A     -0.274589

  @DF-RHF Final Energy:  -570.49574634306305

   => Energetics <=

    Nuclear Repulsion Energy =            790.0838253690543524
    One-Electron Energy =               -2340.2505222205127211
    Two-Electron Energy =                 979.6709505083952081
    Total Energy =                       -570.4957463430630469
  Basis Set: (AUG-CC-PVTZ AUX)
    Blend: AUG-CC-PVTZ-RI
    Molecular point group: c1

    Geometry (in Angstrom), charge = 0, multiplicity = 1:

       Center              X                  Y                   Z               Mass
    ------------   -----------------  -----------------  -----------------  -----------------
         N           -0.459603743535     1.071193680620    -0.310891774569    14.003074004430
         N            1.040397256465    -0.719601319380    -0.007824774569    14.003074004430
         C           -1.678225743535     0.397094680620    -0.118792774569    12.000000000000
         C            0.836721256465     0.596960680620    -0.149585774569    12.000000000000
         C            3.434427256465    -0.319169319380     0.117909225431    12.000000000000
         C            1.900681256465     1.523815680620    -0.175039774569    12.000000000000
         C            3.195968256465     1.055828680620    -0.038016774569    12.000000000000
         C           -2.786953743535     1.171151680620     0.263271225431    12.000000000000
         C           -1.861126743535    -1.021204019380    -0.383719674569    12.000000000000
         C            2.312176256465    -1.144283319380     0.122500225431    12.000000000000
         C            4.824904256465    -0.871368319380     0.267627225431    12.000000000000
         C           -4.043683743535     0.589816680620     0.410404225431    12.000000000000
         C           -3.116520743535    -1.544012319380    -0.204559774569    12.000000000000
         C           -4.217486743535    -0.775860319380     0.177587225431    12.000000000000
         H           -0.536510743535     2.079521680620    -0.234930774569     1.007825032230
         H            1.704840256465     2.587414680620    -0.297067774569     1.007825032230
         H            4.028708256465     1.757820680620    -0.050941774569     1.007825032230
         H           -2.655991743535     2.234376680620     0.463341225431     1.007825032230
         H           -1.007762743535    -1.574994319380    -0.672743774569     1.007825032230
         H            2.428057256465    -2.222397319380     0.238858225431     1.007825032230
         H            5.441336256465    -0.637885319380    -0.606454774569     1.007825032230
         H            5.325428256465    -0.452988319380     1.146775225431     1.007825032230
         H            4.800436256465    -1.958731319380     0.380749225431     1.007825032230
         H           -4.886661743535     1.208364680620     0.709754225431     1.007825032230
         H           -3.238906743535    -2.607689319380    -0.396600774569     1.007825032230
         H           -5.195017743535    -1.234998319380     0.299584225431     1.007825032230

  Basis Set: AUG-CC-PVTZ
    Blend: AUG-CC-PVTZ
  Basis Set: (AUG-CC-PVTZ AUX)
    Blend: AUG-CC-PVTZ-JKFIT
	 Reference Energy          =    -570.4957463430630469 [Eh]
	 Singles Energy            =      -0.0000000000000000 [Eh]
	 Same-Spin Energy          =      -0.6363460152907446 [Eh]
	 Opposite-Spin Energy      =      -1.9710802413602193 [Eh]
	 Correlation Energy        =      -2.6074262566509638 [Eh]
	 Total Energy              =    -573.1031725997139574 [Eh]

	 ================> DF-SCS-MP2 Energies <==================
	-----------------------------------------------------------
	 SCS Same-Spin Scale       =       0.3333333333333333 [-]
	 SCS Opposite-Spin Scale   =       1.2000000000000000 [-]
	 SCS Same-Spin Energy      =      -0.2121153384302482 [Eh]
	 SCS Opposite-Spin Energy  =      -2.3652962896322629 [Eh]
	 SCS Correlation Energy    =      -2.5774116280625110 [Eh]
	 SCS Total Energy          =    -573.0731579711255108 [Eh]
	-----------------------------------------------------------

  Dipole Moment: [D]
     X:     1.9500      Y:     1.8794      Z:     0.1567     Total:     2.7128

*** Psi4 exiting successfully. Buy a developer a beer!
