                               Psi4 1.4a3.dev225

  ==> Input File <==

--------------------------------------------------------------------------
#psi4
#
memory 32 gb

molecule  {
0 1
  N       -0.4914050     1.0723760    -0.3164170
  N        1.0085960    -0.7184190    -0.0133500
  C       -1.7100270     0.3982770    -0.1243180
  C        0.8451652     0.7367175    -0.1367266
  C        3.4026260    -0.3179870     0.1123840
  C        1.8688800     1.5249980    -0.1805650
  C        3.1641670     1.0570110    -0.0435420
  C       -2.8187550     1.1723340     0.2577460
  C       -1.8866400    -0.9712620    -0.3801370
  C        2.2803750    -1.1431010     0.1169750
  C        4.7931030    -0.8701860     0.2621020
  C       -4.0754850     0.5909990     0.4048790
  C       -3.1483220    -1.5428300    -0.2100850
  C       -4.2492880    -0.7746780     0.1720620
  H       -0.5683120     2.0807040    -0.2404560
  H        1.6730390     2.5885970    -0.3025930
  H        3.9969070     1.7590030    -0.0564670
  H       -2.6877930     2.2355590     0.4578160
  H       -1.0395640    -1.5738120    -0.6782690
  H        2.3962560    -2.2212150     0.2333330
  H        5.4095350    -0.6367030    -0.6119800
  H        5.2936270    -0.4518060     1.1412500
  H        4.7686350    -1.9575490     0.3752240
  H       -4.9184630     1.2095470     0.7042290
  H       -3.2707080    -2.6065070    -0.4021260
  H       -5.2268190    -1.2338160     0.2940590
units angstrom
no_reorient  #important for SAPT in psi4, default
symmetry c1  #important for SAPT in psi4, default
}

set PROPERTIES_ORIGIN ["COM"]
properties('MP2/aug-cc-pvtz', properties = ['dipole'])
--------------------------------------------------------------------------

    Molecular point group: c1
  Charge       = 0
  Multiplicity = 1
  Basis Set: AUG-CC-PVTZ
    Blend: AUG-CC-PVTZ
  Basis Set: (AUG-CC-PVTZ AUX)
    Blend: AUG-CC-PVTZ-JKFIT

    Orbital Energies [Eh]
    ---------------------

    Doubly Occupied:

       1A    -15.587354     2A    -15.562304     3A    -11.316040
       4A    -11.282860     5A    -11.274691     6A    -11.261630
       7A    -11.237106     8A    -11.232982     9A    -11.230121
      10A    -11.229275    11A    -11.228306    12A    -11.224968
      13A    -11.220912    14A    -11.217469    15A     -1.281821
      16A     -1.207557    17A     -1.133146    18A     -1.092915
      19A     -1.060770    20A     -1.007152    21A     -0.994671
      22A     -0.933411    23A     -0.872239    24A     -0.838796
      25A     -0.820449    26A     -0.797841    27A     -0.723778
      28A     -0.711924    29A     -0.672752    30A     -0.646566
      31A     -0.634960    32A     -0.623292    33A     -0.599775
      34A     -0.590012    35A     -0.586365    36A     -0.578608
      37A     -0.567783    38A     -0.562876    39A     -0.543313
      40A     -0.516104    41A     -0.508357    42A     -0.501982
      43A     -0.484618    44A     -0.453883    45A     -0.416188
      46A     -0.382130    47A     -0.338460    48A     -0.329548
      49A     -0.277107

  @DF-RHF Final Energy:  -570.46818146819442

   => Energetics <=

    Nuclear Repulsion Energy =            789.9525473445650050
    One-Electron Energy =               -2340.0471220801255186
    Two-Electron Energy =                 979.6263932673659838
    Total Energy =                       -570.4681814681944161
  Basis Set: (AUG-CC-PVTZ AUX)
    Blend: AUG-CC-PVTZ-RI
    Molecular point group: c1

    Geometry (in Angstrom), charge = 0, multiplicity = 1:

       Center              X                  Y                   Z               Mass
    ------------   -----------------  -----------------  -----------------  -----------------
         N           -0.462636868213     1.058982872315    -0.312683776271    14.003074004430
         N            1.037364131787    -0.731812127685    -0.009616776271    14.003074004430
         C           -1.681258868213     0.384883872315    -0.120584776271    12.000000000000
         C            0.873933331787     0.723324372315    -0.132993376271    12.000000000000
         C            3.431394131787    -0.331380127685     0.116117223729    12.000000000000
         C            1.897648131787     1.511604872315    -0.176831776271    12.000000000000
         C            3.192935131787     1.043617872315    -0.039808776271    12.000000000000
         C           -2.789986868213     1.158940872315     0.261479223729    12.000000000000
         C           -1.857871868213    -0.984655127685    -0.376403776271    12.000000000000
         C            2.309143131787    -1.156494127685     0.120708223729    12.000000000000
         C            4.821871131787    -0.883579127685     0.265835223729    12.000000000000
         C           -4.046716868213     0.577605872315     0.408612223729    12.000000000000
         C           -3.119553868213    -1.556223127685    -0.206351776271    12.000000000000
         C           -4.220519868213    -0.788071127685     0.175795223729    12.000000000000
         H           -0.539543868213     2.067310872315    -0.236722776271     1.007825032230
         H            1.701807131787     2.575203872315    -0.298859776271     1.007825032230
         H            4.025675131787     1.745609872315    -0.052733776271     1.007825032230
         H           -2.659024868213     2.222165872315     0.461549223729     1.007825032230
         H           -1.010795868213    -1.587205127685    -0.674535776271     1.007825032230
         H            2.425024131787    -2.234608127685     0.237066223729     1.007825032230
         H            5.438303131787    -0.650096127685    -0.608246776271     1.007825032230
         H            5.322395131787    -0.465199127685     1.144983223729     1.007825032230
         H            4.797403131787    -1.970942127685     0.378957223729     1.007825032230
         H           -4.889694868213     1.196153872315     0.707962223729     1.007825032230
         H           -3.241939868213    -2.619900127685    -0.398392776271     1.007825032230
         H           -5.198050868213    -1.247209127685     0.297792223729     1.007825032230

  Basis Set: AUG-CC-PVTZ
    Blend: AUG-CC-PVTZ
  Basis Set: (AUG-CC-PVTZ AUX)
    Blend: AUG-CC-PVTZ-JKFIT
	 Reference Energy          =    -570.4681814681944161 [Eh]
	 Singles Energy            =      -0.0000000000000000 [Eh]
	 Same-Spin Energy          =      -0.6378149924850962 [Eh]
	 Opposite-Spin Energy      =      -1.9748405372606008 [Eh]
	 Correlation Energy        =      -2.6126555297456973 [Eh]
	 Total Energy              =    -573.0808369979400823 [Eh]

	 ================> DF-SCS-MP2 Energies <==================
	-----------------------------------------------------------
	 SCS Same-Spin Scale       =       0.3333333333333333 [-]
	 SCS Opposite-Spin Scale   =       1.2000000000000000 [-]
	 SCS Same-Spin Energy      =      -0.2126049974950321 [Eh]
	 SCS Opposite-Spin Energy  =      -2.3698086447127209 [Eh]
	 SCS Correlation Energy    =      -2.5824136422077530 [Eh]
	 SCS Total Energy          =    -573.0505951104021278 [Eh]
	-----------------------------------------------------------

  Dipole Moment: [D]
     X:     1.9540      Y:     1.7913      Z:     0.1978     Total:     2.6582

*** Psi4 exiting successfully. Buy a developer a beer!
