                               Psi4 1.4a3.dev225

  ==> Input File <==

--------------------------------------------------------------------------
#psi4
#
memory 32 gb

molecule  {
0 1
  N       -0.4914050     1.0723760    -0.3164170
  N        1.0316307    -0.7145361    -0.0123127
  C       -1.7100270     0.3982770    -0.1243180
  C        0.8049200     0.5981430    -0.1551110
  C        3.4026260    -0.3179870     0.1123840
  C        1.8688800     1.5249980    -0.1805650
  C        3.1641670     1.0570110    -0.0435420
  C       -2.8187550     1.1723340     0.2577460
  C       -1.8866400    -0.9712620    -0.3801370
  C        2.2803750    -1.1431010     0.1169750
  C        4.7931030    -0.8701860     0.2621020
  C       -4.0754850     0.5909990     0.4048790
  C       -3.1483220    -1.5428300    -0.2100850
  C       -4.2492880    -0.7746780     0.1720620
  H       -0.5683120     2.0807040    -0.2404560
  H        1.6730390     2.5885970    -0.3025930
  H        3.9969070     1.7590030    -0.0564670
  H       -2.6877930     2.2355590     0.4578160
  H       -1.0395640    -1.5738120    -0.6782690
  H        2.3962560    -2.2212150     0.2333330
  H        5.4095350    -0.6367030    -0.6119800
  H        5.2936270    -0.4518060     1.1412500
  H        4.7686350    -1.9575490     0.3752240
  H       -4.9184630     1.2095470     0.7042290
  H       -3.2707080    -2.6065070    -0.4021260
  H       -5.2268190    -1.2338160     0.2940590
units angstrom
no_reorient  #important for SAPT in psi4, default
symmetry c1  #important for SAPT in psi4, default
}

set PROPERTIES_ORIGIN ["COM"]
properties('MP2/aug-cc-pvtz', properties = ['dipole'])
--------------------------------------------------------------------------

    Molecular point group: c1
  Charge       = 0
  Multiplicity = 1
  Basis Set: AUG-CC-PVTZ
    Blend: AUG-CC-PVTZ
  Basis Set: (AUG-CC-PVTZ AUX)
    Blend: AUG-CC-PVTZ-JKFIT

    Orbital Energies [Eh]
    ---------------------

    Doubly Occupied:

       1A    -15.589902     2A    -15.551606     3A    -11.323153
       4A    -11.281419     5A    -11.270553     6A    -11.257150
       7A    -11.238043     8A    -11.234165     9A    -11.234140
      10A    -11.230809    11A    -11.228932    12A    -11.228193
      13A    -11.221785    14A    -11.219032    15A     -1.294416
      16A     -1.224142    17A     -1.133442    18A     -1.096126
      19A     -1.046558    20A     -1.008488    21A     -0.993203
      22A     -0.935497    23A     -0.867427    24A     -0.841951
      25A     -0.821693    26A     -0.799223    27A     -0.724596
      28A     -0.716235    29A     -0.670860    30A     -0.654755
      31A     -0.636674    32A     -0.621508    33A     -0.596411
      34A     -0.594221    35A     -0.588993    36A     -0.579874
      37A     -0.569382    38A     -0.563330    39A     -0.546550
      40A     -0.519237    41A     -0.512047    42A     -0.504691
      43A     -0.487695    44A     -0.455166    45A     -0.410844
      46A     -0.382408    47A     -0.336429    48A     -0.330877
      49A     -0.276463

  @DF-RHF Final Energy:  -570.49954282285194

   => Energetics <=

    Nuclear Repulsion Energy =            790.9999791288895494
    One-Electron Energy =               -2342.0984472662430562
    Two-Electron Energy =                 980.5989253145014573
    Total Energy =                       -570.4995428228519359
  Basis Set: (AUG-CC-PVTZ AUX)
    Blend: AUG-CC-PVTZ-RI
    Molecular point group: c1

    Geometry (in Angstrom), charge = 0, multiplicity = 1:

       Center              X                  Y                   Z               Mass
    ------------   -----------------  -----------------  -----------------  -----------------
         N           -0.461765680005     1.067720086009    -0.311564344673    14.003074004430
         N            1.061270019995    -0.719192013991    -0.007460044673    14.003074004430
         C           -1.680387680005     0.393621086009    -0.119465344673    12.000000000000
         C            0.834559319995     0.593487086009    -0.150258344673    12.000000000000
         C            3.432265319995    -0.322642913991     0.117236655327    12.000000000000
         C            1.898519319995     1.520342086009    -0.175712344673    12.000000000000
         C            3.193806319995     1.052355086009    -0.038689344673    12.000000000000
         C           -2.789115680005     1.167678086009     0.262598655327    12.000000000000
         C           -1.857000680005    -0.975917913991    -0.375284344673    12.000000000000
         C            2.310014319995    -1.147756913991     0.121827655327    12.000000000000
         C            4.822742319995    -0.874841913991     0.266954655327    12.000000000000
         C           -4.045845680005     0.586343086009     0.409731655327    12.000000000000
         C           -3.118682680005    -1.547485913991    -0.205232344673    12.000000000000
         C           -4.219648680005    -0.779333913991     0.176914655327    12.000000000000
         H           -0.538672680005     2.076048086009    -0.235603344673     1.007825032230
         H            1.702678319995     2.583941086009    -0.297740344673     1.007825032230
         H            4.026546319995     1.754347086009    -0.051614344673     1.007825032230
         H           -2.658153680005     2.230903086009     0.462668655327     1.007825032230
         H           -1.009924680005    -1.578467913991    -0.673416344673     1.007825032230
         H            2.425895319995    -2.225870913991     0.238185655327     1.007825032230
         H            5.439174319995    -0.641358913991    -0.607127344673     1.007825032230
         H            5.323266319995    -0.456461913991     1.146102655327     1.007825032230
         H            4.798274319995    -1.962204913991     0.380076655327     1.007825032230
         H           -4.888823680005     1.204891086009     0.709081655327     1.007825032230
         H           -3.241068680005    -2.611162913991    -0.397273344673     1.007825032230
         H           -5.197179680005    -1.238471913991     0.298911655327     1.007825032230

  Basis Set: AUG-CC-PVTZ
    Blend: AUG-CC-PVTZ
  Basis Set: (AUG-CC-PVTZ AUX)
    Blend: AUG-CC-PVTZ-JKFIT
	 Reference Energy          =    -570.4995428228519359 [Eh]
	 Singles Energy            =      -0.0000000000000000 [Eh]
	 Same-Spin Energy          =      -0.6363179244289466 [Eh]
	 Opposite-Spin Energy      =      -1.9702488046282163 [Eh]
	 Correlation Energy        =      -2.6065667290571630 [Eh]
	 Total Energy              =    -573.1061095519090713 [Eh]

	 ================> DF-SCS-MP2 Energies <==================
	-----------------------------------------------------------
	 SCS Same-Spin Scale       =       0.3333333333333333 [-]
	 SCS Opposite-Spin Scale   =       1.2000000000000000 [-]
	 SCS Same-Spin Energy      =      -0.2121059748096489 [Eh]
	 SCS Opposite-Spin Energy  =      -2.3642985655538595 [Eh]
	 SCS Correlation Energy    =      -2.5764045403635083 [Eh]
	 SCS Total Energy          =    -573.0759473632153913 [Eh]
	-----------------------------------------------------------

  Dipole Moment: [D]
     X:     1.7969      Y:     1.8375      Z:     0.1613     Total:     2.5751

*** Psi4 exiting successfully. Buy a developer a beer!
