                               Psi4 1.4a3.dev225

  ==> Input File <==

--------------------------------------------------------------------------
#psi4
#
memory 32 gb

molecule  {
0 1
  N       -0.4914050     1.0723760    -0.3164170
  N        1.0085960    -0.7184190    -0.0133500
  C       -1.7100270     0.3982770    -0.1243180
  C        0.8049200     0.5981430    -0.1551110
  C        3.4026260    -0.3179870     0.1123840
  C        1.8688800     1.5249980    -0.1805650
  C        3.1641670     1.0570110    -0.0435420
  C       -2.8187550     1.1723340     0.2577460
  C       -1.8866400    -0.9712620    -0.3801370
  C        2.2803750    -1.1431010     0.1169750
  C        4.7931030    -0.8701860     0.2621020
  C       -4.1206110     0.5701247     0.4101622
  C       -3.1483220    -1.5428300    -0.2100850
  C       -4.2492880    -0.7746780     0.1720620
  H       -0.5683120     2.0807040    -0.2404560
  H        1.6730390     2.5885970    -0.3025930
  H        3.9969070     1.7590030    -0.0564670
  H       -2.6877930     2.2355590     0.4578160
  H       -1.0395640    -1.5738120    -0.6782690
  H        2.3962560    -2.2212150     0.2333330
  H        5.4095350    -0.6367030    -0.6119800
  H        5.2936270    -0.4518060     1.1412500
  H        4.7686350    -1.9575490     0.3752240
  H       -4.9184630     1.2095470     0.7042290
  H       -3.2707080    -2.6065070    -0.4021260
  H       -5.2268190    -1.2338160     0.2940590
units angstrom
no_reorient  #important for SAPT in psi4, default
symmetry c1  #important for SAPT in psi4, default
}

set PROPERTIES_ORIGIN ["COM"]
properties('MP2/aug-cc-pvtz', properties = ['dipole'])
--------------------------------------------------------------------------

    Molecular point group: c1
  Charge       = 0
  Multiplicity = 1
  Basis Set: AUG-CC-PVTZ
    Blend: AUG-CC-PVTZ
  Basis Set: (AUG-CC-PVTZ AUX)
    Blend: AUG-CC-PVTZ-JKFIT

    Orbital Energies [Eh]
    ---------------------

    Doubly Occupied:

       1A    -15.588605     2A    -15.553640     3A    -11.322931
       4A    -11.280817     5A    -11.272763     6A    -11.258397
       7A    -11.238683     8A    -11.235161     9A    -11.234277
      10A    -11.232203    11A    -11.230884    12A    -11.228854
      13A    -11.220163    14A    -11.220080    15A     -1.292914
      16A     -1.219750    17A     -1.131032    18A     -1.096869
      19A     -1.046589    20A     -1.004238    21A     -0.994595
      22A     -0.934396    23A     -0.868409    24A     -0.841307
      25A     -0.823006    26A     -0.797146    27A     -0.724328
      28A     -0.715674    29A     -0.669753    30A     -0.653868
      31A     -0.637668    32A     -0.620459    33A     -0.600692
      34A     -0.594416    35A     -0.588616    36A     -0.575998
      37A     -0.569371    38A     -0.562813    39A     -0.546598
      40A     -0.518156    41A     -0.509774    42A     -0.498446
      43A     -0.493558    44A     -0.454178    45A     -0.414355
      46A     -0.381377    47A     -0.337965    48A     -0.326016
      49A     -0.278220

  @DF-RHF Final Energy:  -570.49572326171597

   => Energetics <=

    Nuclear Repulsion Energy =            790.1446445507623366
    One-Electron Energy =               -2340.4007221821011626
    Two-Electron Energy =                 979.7603543696229735
    Total Energy =                       -570.4957232617159661
  Basis Set: (AUG-CC-PVTZ AUX)
    Blend: AUG-CC-PVTZ-RI
    Molecular point group: c1

    Geometry (in Angstrom), charge = 0, multiplicity = 1:

       Center              X                  Y                   Z               Mass
    ------------   -----------------  -----------------  -----------------  -----------------
         N           -0.457072206992     1.069376055895    -0.311829814518    14.003074004430
         N            1.042928793008    -0.721418944105    -0.008762814518    14.003074004430
         C           -1.675694206992     0.395277055895    -0.119730814518    12.000000000000
         C            0.839252793008     0.595143055895    -0.150523814518    12.000000000000
         C            3.436958793008    -0.320986944105     0.116971185482    12.000000000000
         C            1.903212793008     1.521998055895    -0.175977814518    12.000000000000
         C            3.198499793008     1.054011055895    -0.038954814518    12.000000000000
         C           -2.784422206992     1.169334055895     0.262333185482    12.000000000000
         C           -1.852307206992    -0.974261944105    -0.375549814518    12.000000000000
         C            2.314707793008    -1.146100944105     0.121562185482    12.000000000000
         C            4.827435793008    -0.873185944105     0.266689185482    12.000000000000
         C           -4.086278206992     0.567124755895     0.414749385482    12.000000000000
         C           -3.113989206992    -1.545829944105    -0.205497814518    12.000000000000
         C           -4.214955206992    -0.777677944105     0.176649185482    12.000000000000
         H           -0.533979206992     2.077704055895    -0.235868814518     1.007825032230
         H            1.707371793008     2.585597055895    -0.298005814518     1.007825032230
         H            4.031239793008     1.756003055895    -0.051879814518     1.007825032230
         H           -2.653460206992     2.232559055895     0.462403185482     1.007825032230
         H           -1.005231206992    -1.576811944105    -0.673681814518     1.007825032230
         H            2.430588793008    -2.224214944105     0.237920185482     1.007825032230
         H            5.443867793008    -0.639702944105    -0.607392814518     1.007825032230
         H            5.327959793008    -0.454805944105     1.145837185482     1.007825032230
         H            4.802967793008    -1.960548944105     0.379811185482     1.007825032230
         H           -4.884130206992     1.206547055895     0.708816185482     1.007825032230
         H           -3.236375206992    -2.609506944105    -0.397538814518     1.007825032230
         H           -5.192486206992    -1.236815944105     0.298646185482     1.007825032230

  Basis Set: AUG-CC-PVTZ
    Blend: AUG-CC-PVTZ
  Basis Set: (AUG-CC-PVTZ AUX)
    Blend: AUG-CC-PVTZ-JKFIT
	 Reference Energy          =    -570.4957232617159661 [Eh]
	 Singles Energy            =      -0.0000000000000000 [Eh]
	 Same-Spin Energy          =      -0.6363467650686728 [Eh]
	 Opposite-Spin Energy      =      -1.9711729442078876 [Eh]
	 Correlation Energy        =      -2.6075197092765605 [Eh]
	 Total Energy              =    -573.1032429709924827 [Eh]

	 ================> DF-SCS-MP2 Energies <==================
	-----------------------------------------------------------
	 SCS Same-Spin Scale       =       0.3333333333333333 [-]
	 SCS Opposite-Spin Scale   =       1.2000000000000000 [-]
	 SCS Same-Spin Energy      =      -0.2121155883562243 [Eh]
	 SCS Opposite-Spin Energy  =      -2.3654075330494648 [Eh]
	 SCS Correlation Energy    =      -2.5775231214056893 [Eh]
	 SCS Total Energy          =    -573.0732463831216137 [Eh]
	-----------------------------------------------------------

  Dipole Moment: [D]
     X:     1.8504      Y:     1.8402      Z:     0.1626     Total:     2.6147

*** Psi4 exiting successfully. Buy a developer a beer!
