                               Psi4 1.4a3.dev225

  ==> Input File <==

--------------------------------------------------------------------------
#psi4
#
memory 32 gb

molecule  {
0 1
  N       -0.4914050     1.0723760    -0.3164170
  N        1.0085960    -0.7184190    -0.0133500
  C       -1.7100270     0.3982770    -0.1243180
  C        0.8049200     0.5981430    -0.1551110
  C        3.4026260    -0.3179870     0.1123840
  C        1.8688800     1.5249980    -0.1805650
  C        3.1641670     1.0570110    -0.0435420
  C       -2.8187550     1.1723340     0.2577460
  C       -1.8866400    -0.9712620    -0.3801370
  C        2.2803750    -1.1431010     0.1169750
  C        4.7931030    -0.8701860     0.2621020
  C       -4.0574346     0.5993487     0.4027657
  C       -3.1483220    -1.5428300    -0.2100850
  C       -4.2492880    -0.7746780     0.1720620
  H       -0.5683120     2.0807040    -0.2404560
  H        1.6730390     2.5885970    -0.3025930
  H        3.9969070     1.7590030    -0.0564670
  H       -2.6877930     2.2355590     0.4578160
  H       -1.0395640    -1.5738120    -0.6782690
  H        2.3962560    -2.2212150     0.2333330
  H        5.4095350    -0.6367030    -0.6119800
  H        5.2936270    -0.4518060     1.1412500
  H        4.7686350    -1.9575490     0.3752240
  H       -4.9184630     1.2095470     0.7042290
  H       -3.2707080    -2.6065070    -0.4021260
  H       -5.2268190    -1.2338160     0.2940590
units angstrom
no_reorient  #important for SAPT in psi4, default
symmetry c1  #important for SAPT in psi4, default
}

set PROPERTIES_ORIGIN ["COM"]
properties('MP2/aug-cc-pvtz', properties = ['dipole'])
--------------------------------------------------------------------------

    Molecular point group: c1
  Charge       = 0
  Multiplicity = 1
  Basis Set: AUG-CC-PVTZ
    Blend: AUG-CC-PVTZ
  Basis Set: (AUG-CC-PVTZ AUX)
    Blend: AUG-CC-PVTZ-JKFIT

    Orbital Energies [Eh]
    ---------------------

    Doubly Occupied:

       1A    -15.589343     2A    -15.553759     3A    -11.323016
       4A    -11.280987     5A    -11.272780     6A    -11.258464
       7A    -11.238925     8A    -11.235357     9A    -11.233441
      10A    -11.230069    11A    -11.228953    12A    -11.226934
      13A    -11.222000    14A    -11.217738    15A     -1.293212
      16A     -1.220282    17A     -1.133714    18A     -1.096976
      19A     -1.045724    20A     -1.010258    21A     -0.992006
      22A     -0.935052    23A     -0.868564    24A     -0.841367
      25A     -0.820273    26A     -0.798251    27A     -0.723367
      28A     -0.715563    29A     -0.670906    30A     -0.653211
      31A     -0.637003    32A     -0.621617    33A     -0.595342
      34A     -0.591821    35A     -0.588388    36A     -0.580983
      37A     -0.569354    38A     -0.562483    39A     -0.546848
      40A     -0.519788    41A     -0.511806    42A     -0.505750
      43A     -0.484351    44A     -0.454126    45A     -0.414363
      46A     -0.381425    47A     -0.336832    48A     -0.331817
      49A     -0.276311

  @DF-RHF Final Energy:  -570.49853026143990

   => Energetics <=

    Nuclear Repulsion Energy =            791.0236977836772212
    One-Electron Energy =               -2342.1626563622489812
    Two-Electron Energy =                 980.6404283171319776
    Total Energy =                       -570.4985302614398961
  Basis Set: (AUG-CC-PVTZ AUX)
    Blend: AUG-CC-PVTZ-RI
    Molecular point group: c1

    Geometry (in Angstrom), charge = 0, multiplicity = 1:

       Center              X                  Y                   Z               Mass
    ------------   -----------------  -----------------  -----------------  -----------------
         N           -0.461190167887     1.067471178612    -0.311347696231    14.003074004430
         N            1.038810832113    -0.723323821388    -0.008280696231    14.003074004430
         C           -1.679812167887     0.393372178612    -0.119248696231    12.000000000000
         C            0.835134832113     0.593238178612    -0.150041696231    12.000000000000
         C            3.432840832113    -0.322891821388     0.117453303769    12.000000000000
         C            1.899094832113     1.520093178612    -0.175495696231    12.000000000000
         C            3.194381832113     1.052106178612    -0.038472696231    12.000000000000
         C           -2.788540167887     1.167429178612     0.262815303769    12.000000000000
         C           -1.856425167887    -0.976166821388    -0.375067696231    12.000000000000
         C            2.310589832113    -1.148005821388     0.122044303769    12.000000000000
         C            4.823317832113    -0.875090821388     0.267171303769    12.000000000000
         C           -4.027219767887     0.594443878612     0.407835003769    12.000000000000
         C           -3.118107167887    -1.547734821388    -0.205015696231    12.000000000000
         C           -4.219073167887    -0.779582821388     0.177131303769    12.000000000000
         H           -0.538097167887     2.075799178612    -0.235386696231     1.007825032230
         H            1.703253832113     2.583692178612    -0.297523696231     1.007825032230
         H            4.027121832113     1.754098178612    -0.051397696231     1.007825032230
         H           -2.657578167887     2.230654178612     0.462885303769     1.007825032230
         H           -1.009349167887    -1.578716821388    -0.673199696231     1.007825032230
         H            2.426470832113    -2.226119821388     0.238402303769     1.007825032230
         H            5.439749832113    -0.641607821388    -0.606910696231     1.007825032230
         H            5.323841832113    -0.456710821388     1.146319303769     1.007825032230
         H            4.798849832113    -1.962453821388     0.380293303769     1.007825032230
         H           -4.888248167887     1.204642178612     0.709298303769     1.007825032230
         H           -3.240493167887    -2.611411821388    -0.397056696231     1.007825032230
         H           -5.196604167887    -1.238720821388     0.299128303769     1.007825032230

  Basis Set: AUG-CC-PVTZ
    Blend: AUG-CC-PVTZ
  Basis Set: (AUG-CC-PVTZ AUX)
    Blend: AUG-CC-PVTZ-JKFIT
	 Reference Energy          =    -570.4985302614398961 [Eh]
	 Singles Energy            =      -0.0000000000000000 [Eh]
	 Same-Spin Energy          =      -0.6364199767011869 [Eh]
	 Opposite-Spin Energy      =      -1.9708575524996019 [Eh]
	 Correlation Energy        =      -2.6072775292007888 [Eh]
	 Total Energy              =    -573.1058077906407107 [Eh]

	 ================> DF-SCS-MP2 Energies <==================
	-----------------------------------------------------------
	 SCS Same-Spin Scale       =       0.3333333333333333 [-]
	 SCS Opposite-Spin Scale   =       1.2000000000000000 [-]
	 SCS Same-Spin Energy      =      -0.2121399922337290 [Eh]
	 SCS Opposite-Spin Energy  =      -2.3650290629995223 [Eh]
	 SCS Correlation Energy    =      -2.5771690552332513 [Eh]
	 SCS Total Energy          =    -573.0756993166731945 [Eh]
	-----------------------------------------------------------

  Dipole Moment: [D]
     X:     1.8784      Y:     1.8587      Z:     0.1632     Total:     2.6476

*** Psi4 exiting successfully. Buy a developer a beer!
