                               Psi4 1.4a3.dev225

  ==> Input File <==

--------------------------------------------------------------------------
#psi4
#
memory 32 gb

molecule  {
0 1
  N       -0.4914050     1.0723760    -0.3164170
  N        1.0085960    -0.7184190    -0.0133500
  C       -1.7100270     0.3982770    -0.1243180
  C        0.8049200     0.5981430    -0.1551110
  C        3.4026260    -0.3179870     0.1123840
  C        1.8688800     1.5249980    -0.1805650
  C        3.1641670     1.0570110    -0.0435420
  C       -2.8187550     1.1723340     0.2577460
  C       -1.8866400    -0.9712620    -0.3801370
  C        2.2803750    -1.1431010     0.1169750
  C        4.7931030    -0.8701860     0.2621020
  C       -4.0754850     0.5909990     0.4048790
  C       -3.1483220    -1.5428300    -0.2100850
  C       -4.2492880    -0.7746780     0.1720620
  H       -0.5683120     2.0807040    -0.2404560
  H        1.6730390     2.5885970    -0.3025930
  H        3.8440023     1.6301057    -0.0540938
  H       -2.6877930     2.2355590     0.4578160
  H       -1.0395640    -1.5738120    -0.6782690
  H        2.3962560    -2.2212150     0.2333330
  H        5.4095350    -0.6367030    -0.6119800
  H        5.2936270    -0.4518060     1.1412500
  H        4.7686350    -1.9575490     0.3752240
  H       -4.9184630     1.2095470     0.7042290
  H       -3.2707080    -2.6065070    -0.4021260
  H       -5.2268190    -1.2338160     0.2940590
units angstrom
no_reorient  #important for SAPT in psi4, default
symmetry c1  #important for SAPT in psi4, default
}

set PROPERTIES_ORIGIN ["COM"]
properties('MP2/aug-cc-pvtz', properties = ['dipole'])
--------------------------------------------------------------------------

    Molecular point group: c1
  Charge       = 0
  Multiplicity = 1
  Basis Set: AUG-CC-PVTZ
    Blend: AUG-CC-PVTZ
  Basis Set: (AUG-CC-PVTZ AUX)
    Blend: AUG-CC-PVTZ-JKFIT

    Orbital Energies [Eh]
    ---------------------

    Doubly Occupied:

       1A    -15.588591     2A    -15.553388     3A    -11.322005
       4A    -11.280629     5A    -11.271629     6A    -11.237983
       7A    -11.234901     8A    -11.233639     9A    -11.233513
      10A    -11.230084    11A    -11.229054    12A    -11.228332
      13A    -11.221207    14A    -11.218141    15A     -1.292549
      16A     -1.219687    17A     -1.132535    18A     -1.103976
      19A     -1.046023    20A     -1.007802    21A     -0.994300
      22A     -0.935348    23A     -0.884678    24A     -0.841022
      25A     -0.821020    26A     -0.806958    27A     -0.735792
      28A     -0.715189    29A     -0.670761    30A     -0.654906
      31A     -0.636629    32A     -0.629690    33A     -0.601802
      34A     -0.593303    35A     -0.588599    36A     -0.580625
      37A     -0.575259    38A     -0.567723    39A     -0.546759
      40A     -0.518377    41A     -0.510740    42A     -0.503782
      43A     -0.487168    44A     -0.453676    45A     -0.414698
      46A     -0.380938    47A     -0.336023    48A     -0.330215
      49A     -0.276369

  @DF-RHF Final Energy:  -570.46469054913382

   => Energetics <=

    Nuclear Repulsion Energy =            791.9871341836450256
    One-Electron Energy =               -2343.9476126527279121
    Two-Electron Energy =                 981.4957879199489525
    Total Energy =                       -570.4646905491338202
  Basis Set: (AUG-CC-PVTZ AUX)
    Blend: AUG-CC-PVTZ-RI
    Molecular point group: c1

    Geometry (in Angstrom), charge = 0, multiplicity = 1:

       Center              X                  Y                   Z               Mass
    ------------   -----------------  -----------------  -----------------  -----------------
         N           -0.459176556335     1.068721055119    -0.311498436932    14.003074004430
         N            1.040824443665    -0.722073944881    -0.008431436932    14.003074004430
         C           -1.677798556335     0.394622055119    -0.119399436932    12.000000000000
         C            0.837148443665     0.594488055119    -0.150192436932    12.000000000000
         C            3.434854443665    -0.321641944881     0.117302563068    12.000000000000
         C            1.901108443665     1.521343055119    -0.175646436932    12.000000000000
         C            3.196395443665     1.053356055119    -0.038623436932    12.000000000000
         C           -2.786526556335     1.168679055119     0.262664563068    12.000000000000
         C           -1.854411556335    -0.974916944881    -0.375218436932    12.000000000000
         C            2.312603443665    -1.146755944881     0.121893563068    12.000000000000
         C            4.825331443665    -0.873840944881     0.267020563068    12.000000000000
         C           -4.043256556335     0.587344055119     0.409797563068    12.000000000000
         C           -3.116093556335    -1.546484944881    -0.205166436932    12.000000000000
         C           -4.217059556335    -0.778332944881     0.176980563068    12.000000000000
         H           -0.536083556335     2.077049055119    -0.235537436932     1.007825032230
         H            1.705267443665     2.584942055119    -0.297674436932     1.007825032230
         H            3.876230743665     1.626450755119    -0.049175236932     1.007825032230
         H           -2.655564556335     2.231904055119     0.462734563068     1.007825032230
         H           -1.007335556335    -1.577466944881    -0.673350436932     1.007825032230
         H            2.428484443665    -2.224869944881     0.238251563068     1.007825032230
         H            5.441763443665    -0.640357944881    -0.607061436932     1.007825032230
         H            5.325855443665    -0.455460944881     1.146168563068     1.007825032230
         H            4.800863443665    -1.961203944881     0.380142563068     1.007825032230
         H           -4.886234556335     1.205892055119     0.709147563068     1.007825032230
         H           -3.238479556335    -2.610161944881    -0.397207436932     1.007825032230
         H           -5.194590556335    -1.237470944881     0.298977563068     1.007825032230

  Basis Set: AUG-CC-PVTZ
    Blend: AUG-CC-PVTZ
  Basis Set: (AUG-CC-PVTZ AUX)
    Blend: AUG-CC-PVTZ-JKFIT
	 Reference Energy          =    -570.4646905491338202 [Eh]
	 Singles Energy            =      -0.0000000000000000 [Eh]
	 Same-Spin Energy          =      -0.6362265671981401 [Eh]
	 Opposite-Spin Energy      =      -1.9703317329687777 [Eh]
	 Correlation Energy        =      -2.6065583001669177 [Eh]
	 Total Energy              =    -573.0712488493007868 [Eh]

	 ================> DF-SCS-MP2 Energies <==================
	-----------------------------------------------------------
	 SCS Same-Spin Scale       =       0.3333333333333333 [-]
	 SCS Opposite-Spin Scale   =       1.2000000000000000 [-]
	 SCS Same-Spin Energy      =      -0.2120755223993800 [Eh]
	 SCS Opposite-Spin Energy  =      -2.3643980795625330 [Eh]
	 SCS Correlation Energy    =      -2.5764736019619132 [Eh]
	 SCS Total Energy          =    -573.0411641510956997 [Eh]
	-----------------------------------------------------------

  Dipole Moment: [D]
     X:     1.9184      Y:     1.8803      Z:     0.1621     Total:     2.6911

*** Psi4 exiting successfully. Buy a developer a beer!
