                               Psi4 1.4a3.dev225

  ==> Input File <==

--------------------------------------------------------------------------
#psi4
#
memory 32 gb

molecule  {
0 1
  N       -0.4914050     1.0723760    -0.3164170
  N        1.0085960    -0.7184190    -0.0133500
  C       -1.7100270     0.3982770    -0.1243180
  C        0.8049200     0.5981430    -0.1551110
  C        3.4026260    -0.3179870     0.1123840
  C        1.8688800     1.5249980    -0.1805650
  C        3.1641670     1.0570110    -0.0435420
  C       -2.8187550     1.1723340     0.2577460
  C       -1.8866400    -0.9712620    -0.3801370
  C        2.2803750    -1.1431010     0.1169750
  C        4.7931030    -0.8701860     0.2621020
  C       -4.0754850     0.5909990     0.4048790
  C       -3.1483220    -1.5428300    -0.2100850
  C       -4.2098491    -0.8021948     0.1583727
  H       -0.5683120     2.0807040    -0.2404560
  H        1.6730390     2.5885970    -0.3025930
  H        3.9969070     1.7590030    -0.0564670
  H       -2.6877930     2.2355590     0.4578160
  H       -1.0395640    -1.5738120    -0.6782690
  H        2.3962560    -2.2212150     0.2333330
  H        5.4095350    -0.6367030    -0.6119800
  H        5.2936270    -0.4518060     1.1412500
  H        4.7686350    -1.9575490     0.3752240
  H       -4.9184630     1.2095470     0.7042290
  H       -3.2707080    -2.6065070    -0.4021260
  H       -5.2268190    -1.2338160     0.2940590
units angstrom
no_reorient  #important for SAPT in psi4, default
symmetry c1  #important for SAPT in psi4, default
}

set PROPERTIES_ORIGIN ["COM"]
properties('MP2/aug-cc-pvtz', properties = ['dipole'])
--------------------------------------------------------------------------

    Molecular point group: c1
  Charge       = 0
  Multiplicity = 1
  Basis Set: AUG-CC-PVTZ
    Blend: AUG-CC-PVTZ
  Basis Set: (AUG-CC-PVTZ AUX)
    Blend: AUG-CC-PVTZ-JKFIT

    Orbital Energies [Eh]
    ---------------------

    Doubly Occupied:

       1A    -15.588733     2A    -15.553402     3A    -11.322679
       4A    -11.279872     5A    -11.272488     6A    -11.258186
       7A    -11.238623     8A    -11.236452     9A    -11.235055
      10A    -11.229884    11A    -11.228752    12A    -11.224158
      13A    -11.220791    14A    -11.217557    15A     -1.292762
      16A     -1.219889    17A     -1.135590    18A     -1.096699
      19A     -1.046538    20A     -1.010361    21A     -0.992145
      22A     -0.935064    23A     -0.867678    24A     -0.843133
      25A     -0.819231    26A     -0.798050    27A     -0.723943
      28A     -0.715884    29A     -0.667190    30A     -0.653288
      31A     -0.636406    32A     -0.622088    33A     -0.596147
      34A     -0.592728    35A     -0.589950    36A     -0.580884
      37A     -0.569365    38A     -0.562377    39A     -0.546553
      40A     -0.518960    41A     -0.511656    42A     -0.500422
      43A     -0.485907    44A     -0.455547    45A     -0.414122
      46A     -0.381155    47A     -0.340378    48A     -0.328487
      49A     -0.276992

  @DF-RHF Final Energy:  -570.49581136797076

   => Energetics <=

    Nuclear Repulsion Energy =            791.3430435767276094
    One-Electron Energy =               -2342.8093123725298028
    Two-Electron Energy =                 980.9704574278313203
    Total Energy =                       -570.4958113679707594
  Basis Set: (AUG-CC-PVTZ AUX)
    Blend: AUG-CC-PVTZ-RI
    Molecular point group: c1

    Geometry (in Angstrom), charge = 0, multiplicity = 1:

       Center              X                  Y                   Z               Mass
    ------------   -----------------  -----------------  -----------------  -----------------
         N           -0.462584312007     1.069809026992    -0.310593149987    14.003074004430
         N            1.037416687993    -0.720985973008    -0.007526149987    14.003074004430
         C           -1.681206312007     0.395710026992    -0.118494149987    12.000000000000
         C            0.833740687993     0.595576026992    -0.149287149987    12.000000000000
         C            3.431446687993    -0.320553973008     0.118207850013    12.000000000000
         C            1.897700687993     1.522431026992    -0.174741149987    12.000000000000
         C            3.192987687993     1.054444026992    -0.037718149987    12.000000000000
         C           -2.789934312007     1.169767026992     0.263569850013    12.000000000000
         C           -1.857819312007    -0.973828973008    -0.374313149987    12.000000000000
         C            2.309195687993    -1.145667973008     0.122798850013    12.000000000000
         C            4.821923687993    -0.872752973008     0.267925850013    12.000000000000
         C           -4.046664312007     0.588432026992     0.410702850013    12.000000000000
         C           -3.119501312007    -1.545396973008    -0.204261149987    12.000000000000
         C           -4.181028412007    -0.804761773008     0.164196550013    12.000000000000
         H           -0.539491312007     2.078137026992    -0.234632149987     1.007825032230
         H            1.701859687993     2.586030026992    -0.296769149987     1.007825032230
         H            4.025727687993     1.756436026992    -0.050643149987     1.007825032230
         H           -2.658972312007     2.232992026992     0.463639850013     1.007825032230
         H           -1.010743312007    -1.576378973008    -0.672445149987     1.007825032230
         H            2.425076687993    -2.223781973008     0.239156850013     1.007825032230
         H            5.438355687993    -0.639269973008    -0.606156149987     1.007825032230
         H            5.322447687993    -0.454372973008     1.147073850013     1.007825032230
         H            4.797455687993    -1.960115973008     0.381047850013     1.007825032230
         H           -4.889642312007     1.206980026992     0.710052850013     1.007825032230
         H           -3.241887312007    -2.609073973008    -0.396302149987     1.007825032230
         H           -5.197998312007    -1.236382973008     0.299882850013     1.007825032230

  Basis Set: AUG-CC-PVTZ
    Blend: AUG-CC-PVTZ
  Basis Set: (AUG-CC-PVTZ AUX)
    Blend: AUG-CC-PVTZ-JKFIT
	 Reference Energy          =    -570.4958113679707594 [Eh]
	 Singles Energy            =      -0.0000000000000000 [Eh]
	 Same-Spin Energy          =      -0.6364437417716294 [Eh]
	 Opposite-Spin Energy      =      -1.9709486974462005 [Eh]
	 Correlation Energy        =      -2.6073924392178300 [Eh]
	 Total Energy              =    -573.1032038071886063 [Eh]

	 ================> DF-SCS-MP2 Energies <==================
	-----------------------------------------------------------
	 SCS Same-Spin Scale       =       0.3333333333333333 [-]
	 SCS Opposite-Spin Scale   =       1.2000000000000000 [-]
	 SCS Same-Spin Energy      =      -0.2121479139238765 [Eh]
	 SCS Opposite-Spin Energy  =      -2.3651384369354407 [Eh]
	 SCS Correlation Energy    =      -2.5772863508593171 [Eh]
	 SCS Total Energy          =    -573.0730977188301267 [Eh]
	-----------------------------------------------------------

  Dipole Moment: [D]
     X:     1.8463      Y:     1.8759      Z:     0.1688     Total:     2.6375

*** Psi4 exiting successfully. Buy a developer a beer!
