                               Psi4 1.4a3.dev225

  ==> Input File <==

--------------------------------------------------------------------------
#psi4
#
memory 32 gb

molecule  {
0 1
  N       -0.4914050     1.0723760    -0.3164170
  N        1.0085960    -0.7184190    -0.0133500
  C       -1.7100270     0.3982770    -0.1243180
  C        0.8049200     0.5981430    -0.1551110
  C        3.4026260    -0.3179870     0.1123840
  C        1.8688800     1.5249980    -0.1805650
  C        3.1161290     1.0475491    -0.0458110
  C       -2.8187550     1.1723340     0.2577460
  C       -1.8866400    -0.9712620    -0.3801370
  C        2.2803750    -1.1431010     0.1169750
  C        4.7931030    -0.8701860     0.2621020
  C       -4.0754850     0.5909990     0.4048790
  C       -3.1483220    -1.5428300    -0.2100850
  C       -4.2492880    -0.7746780     0.1720620
  H       -0.5683120     2.0807040    -0.2404560
  H        1.6730390     2.5885970    -0.3025930
  H        3.9969070     1.7590030    -0.0564670
  H       -2.6877930     2.2355590     0.4578160
  H       -1.0395640    -1.5738120    -0.6782690
  H        2.3962560    -2.2212150     0.2333330
  H        5.4095350    -0.6367030    -0.6119800
  H        5.2936270    -0.4518060     1.1412500
  H        4.7686350    -1.9575490     0.3752240
  H       -4.9184630     1.2095470     0.7042290
  H       -3.2707080    -2.6065070    -0.4021260
  H       -5.2268190    -1.2338160     0.2940590
units angstrom
no_reorient  #important for SAPT in psi4, default
symmetry c1  #important for SAPT in psi4, default
}

set PROPERTIES_ORIGIN ["COM"]
properties('MP2/aug-cc-pvtz', properties = ['dipole'])
--------------------------------------------------------------------------

    Molecular point group: c1
  Charge       = 0
  Multiplicity = 1
  Basis Set: AUG-CC-PVTZ
    Blend: AUG-CC-PVTZ
  Basis Set: (AUG-CC-PVTZ AUX)
    Blend: AUG-CC-PVTZ-JKFIT

    Orbital Energies [Eh]
    ---------------------

    Doubly Occupied:

       1A    -15.590157     2A    -15.552176     3A    -11.323707
       4A    -11.281230     5A    -11.271214     6A    -11.256474
       7A    -11.235004     8A    -11.234038     9A    -11.233885
      10A    -11.230572    11A    -11.229633    12A    -11.229068
      13A    -11.221867    14A    -11.218792    15A     -1.294022
      16A     -1.220965    17A     -1.133163    18A     -1.099439
      19A     -1.049530    20A     -1.008395    21A     -0.995047
      22A     -0.935137    23A     -0.864736    24A     -0.843358
      25A     -0.822104    26A     -0.796499    27A     -0.721724
      28A     -0.716677    29A     -0.672049    30A     -0.653822
      31A     -0.641055    32A     -0.619130    33A     -0.594328
      34A     -0.593416    35A     -0.588563    36A     -0.579683
      37A     -0.569123    38A     -0.554417    39A     -0.546358
      40A     -0.522725    41A     -0.511923    42A     -0.505106
      43A     -0.487517    44A     -0.454795    45A     -0.412072
      46A     -0.386854    47A     -0.336431    48A     -0.330651
      49A     -0.277531

  @DF-RHF Final Energy:  -570.49661920692051

   => Energetics <=

    Nuclear Repulsion Energy =            791.6413406086967370
    One-Electron Energy =               -2343.3835948961027498
    Two-Electron Energy =                 981.2456350804854992
    Total Energy =                       -570.4966192069205135
  Basis Set: (AUG-CC-PVTZ AUX)
    Blend: AUG-CC-PVTZ-RI
    Molecular point group: c1

    Geometry (in Angstrom), charge = 0, multiplicity = 1:

       Center              X                  Y                   Z               Mass
    ------------   -----------------  -----------------  -----------------  -----------------
         N           -0.456882397156     1.068632173418    -0.311337547401    14.003074004430
         N            1.043118602844    -0.722162826582    -0.008270547401    14.003074004430
         C           -1.675504397156     0.394533173418    -0.119238547401    12.000000000000
         C            0.839442602844     0.594399173418    -0.150031547401    12.000000000000
         C            3.437148602844    -0.321730826582     0.117463452599    12.000000000000
         C            1.903402602844     1.521254173418    -0.175485547401    12.000000000000
         C            3.150651602844     1.043805273418    -0.040731547401    12.000000000000
         C           -2.784232397156     1.168590173418     0.262825452599    12.000000000000
         C           -1.852117397156    -0.975005826582    -0.375057547401    12.000000000000
         C            2.314897602844    -1.146844826582     0.122054452599    12.000000000000
         C            4.827625602844    -0.873929826582     0.267181452599    12.000000000000
         C           -4.040962397156     0.587255173418     0.409958452599    12.000000000000
         C           -3.113799397156    -1.546573826582    -0.205005547401    12.000000000000
         C           -4.214765397156    -0.778421826582     0.177141452599    12.000000000000
         H           -0.533789397156     2.076960173418    -0.235376547401     1.007825032230
         H            1.707561602844     2.584853173418    -0.297513547401     1.007825032230
         H            4.031429602844     1.755259173418    -0.051387547401     1.007825032230
         H           -2.653270397156     2.231815173418     0.462895452599     1.007825032230
         H           -1.005041397156    -1.577555826582    -0.673189547401     1.007825032230
         H            2.430778602844    -2.224958826582     0.238412452599     1.007825032230
         H            5.444057602844    -0.640446826582    -0.606900547401     1.007825032230
         H            5.328149602844    -0.455549826582     1.146329452599     1.007825032230
         H            4.803157602844    -1.961292826582     0.380303452599     1.007825032230
         H           -4.883940397156     1.205803173418     0.709308452599     1.007825032230
         H           -3.236185397156    -2.610250826582    -0.397046547401     1.007825032230
         H           -5.192296397156    -1.237559826582     0.299138452599     1.007825032230

  Basis Set: AUG-CC-PVTZ
    Blend: AUG-CC-PVTZ
  Basis Set: (AUG-CC-PVTZ AUX)
    Blend: AUG-CC-PVTZ-JKFIT
	 Reference Energy          =    -570.4966192069205135 [Eh]
	 Singles Energy            =      -0.0000000000000000 [Eh]
	 Same-Spin Energy          =      -0.6362117643742815 [Eh]
	 Opposite-Spin Energy      =      -1.9705503309380110 [Eh]
	 Correlation Energy        =      -2.6067620953122925 [Eh]
	 Total Energy              =    -573.1033813022328331 [Eh]

	 ================> DF-SCS-MP2 Energies <==================
	-----------------------------------------------------------
	 SCS Same-Spin Scale       =       0.3333333333333333 [-]
	 SCS Opposite-Spin Scale   =       1.2000000000000000 [-]
	 SCS Same-Spin Energy      =      -0.2120705881247605 [Eh]
	 SCS Opposite-Spin Energy  =      -2.3646603971256130 [Eh]
	 SCS Correlation Energy    =      -2.5767309852503737 [Eh]
	 SCS Total Energy          =    -573.0733501921708921 [Eh]
	-----------------------------------------------------------

  Dipole Moment: [D]
     X:     1.8142      Y:     1.8462      Z:     0.1611     Total:     2.5934

*** Psi4 exiting successfully. Buy a developer a beer!
