                               Psi4 1.4a3.dev225

  ==> Input File <==

--------------------------------------------------------------------------
#psi4
#
memory 32 gb

molecule  {
0 1
  N       -0.4914050     1.0723760    -0.3164170
  N        1.0085960    -0.7184190    -0.0133500
  C       -1.7100270     0.3982770    -0.1243180
  C        0.8049200     0.5981430    -0.1551110
  C        3.4026260    -0.3179870     0.1123840
  C        1.8688800     1.5249980    -0.1805650
  C        3.1641670     1.0570110    -0.0435420
  C       -2.8187550     1.1723340     0.2577460
  C       -1.8866400    -0.9712620    -0.3801370
  C        2.2964884    -1.1312539     0.1169091
  C        4.7931030    -0.8701860     0.2621020
  C       -4.0754850     0.5909990     0.4048790
  C       -3.1483220    -1.5428300    -0.2100850
  C       -4.2492880    -0.7746780     0.1720620
  H       -0.5683120     2.0807040    -0.2404560
  H        1.6730390     2.5885970    -0.3025930
  H        3.9969070     1.7590030    -0.0564670
  H       -2.6877930     2.2355590     0.4578160
  H       -1.0395640    -1.5738120    -0.6782690
  H        2.3962560    -2.2212150     0.2333330
  H        5.4095350    -0.6367030    -0.6119800
  H        5.2936270    -0.4518060     1.1412500
  H        4.7686350    -1.9575490     0.3752240
  H       -4.9184630     1.2095470     0.7042290
  H       -3.2707080    -2.6065070    -0.4021260
  H       -5.2268190    -1.2338160     0.2940590
units angstrom
no_reorient  #important for SAPT in psi4, default
symmetry c1  #important for SAPT in psi4, default
}

set PROPERTIES_ORIGIN ["COM"]
properties('MP2/aug-cc-pvtz', properties = ['dipole'])
--------------------------------------------------------------------------

    Molecular point group: c1
  Charge       = 0
  Multiplicity = 1
  Basis Set: AUG-CC-PVTZ
    Blend: AUG-CC-PVTZ
  Basis Set: (AUG-CC-PVTZ AUX)
    Blend: AUG-CC-PVTZ-JKFIT

    Orbital Energies [Eh]
    ---------------------

    Doubly Occupied:

       1A    -15.589287     2A    -15.553498     3A    -11.322922
       4A    -11.280940     5A    -11.271188     6A    -11.259381
       7A    -11.239547     8A    -11.233732     9A    -11.233526
      10A    -11.230276    11A    -11.229019    12A    -11.228664
      13A    -11.221499    14A    -11.218422    15A     -1.292418
      16A     -1.218806    17A     -1.132813    18A     -1.097917
      19A     -1.046671    20A     -1.008041    21A     -0.993336
      22A     -0.935218    23A     -0.869150    24A     -0.841622
      25A     -0.820949    26A     -0.797921    27A     -0.722929
      28A     -0.715424    29A     -0.670691    30A     -0.653390
      31A     -0.637118    32A     -0.620616    33A     -0.595547
      34A     -0.593392    35A     -0.588634    36A     -0.579508
      37A     -0.569264    38A     -0.562280    39A     -0.545850
      40A     -0.518151    41A     -0.510748    42A     -0.503973
      43A     -0.487341    44A     -0.454388    45A     -0.415991
      46A     -0.379902    47A     -0.338098    48A     -0.330609
      49A     -0.278338

  @DF-RHF Final Energy:  -570.49850985991998

   => Energetics <=

    Nuclear Repulsion Energy =            790.8735029439361597
    One-Electron Energy =               -2341.8661406507417269
    Two-Electron Energy =                 980.4941278468854762
    Total Energy =                       -570.4985098599199773
  Basis Set: (AUG-CC-PVTZ AUX)
    Blend: AUG-CC-PVTZ-RI
    Molecular point group: c1

    Geometry (in Angstrom), charge = 0, multiplicity = 1:

       Center              X                  Y                   Z               Mass
    ------------   -----------------  -----------------  -----------------  -----------------
         N           -0.461063910451     1.067243211262    -0.311481149753    14.003074004430
         N            1.038937089549    -0.723551788738    -0.008414149753    14.003074004430
         C           -1.679685910451     0.393144211262    -0.119382149753    12.000000000000
         C            0.835261089549     0.593010211262    -0.150175149753    12.000000000000
         C            3.432967089549    -0.323119788738     0.117319850247    12.000000000000
         C            1.899221089549     1.519865211262    -0.175629149753    12.000000000000
         C            3.194508089549     1.051878211262    -0.038606149753    12.000000000000
         C           -2.788413910451     1.167201211262     0.262681850247    12.000000000000
         C           -1.856298910451    -0.976394788738    -0.375201149753    12.000000000000
         C            2.326829489549    -1.136386688738     0.121844950247    12.000000000000
         C            4.823444089549    -0.875318788738     0.267037850247    12.000000000000
         C           -4.045143910451     0.585866211262     0.409814850247    12.000000000000
         C           -3.117980910451    -1.547962788738    -0.205149149753    12.000000000000
         C           -4.218946910451    -0.779810788738     0.176997850247    12.000000000000
         H           -0.537970910451     2.075571211262    -0.235520149753     1.007825032230
         H            1.703380089549     2.583464211262    -0.297657149753     1.007825032230
         H            4.027248089549     1.753870211262    -0.051531149753     1.007825032230
         H           -2.657451910451     2.230426211262     0.462751850247     1.007825032230
         H           -1.009222910451    -1.578944788738    -0.673333149753     1.007825032230
         H            2.426597089549    -2.226347788738     0.238268850247     1.007825032230
         H            5.439876089549    -0.641835788738    -0.607044149753     1.007825032230
         H            5.323968089549    -0.456938788738     1.146185850247     1.007825032230
         H            4.798976089549    -1.962681788738     0.380159850247     1.007825032230
         H           -4.888121910451     1.204414211262     0.709164850247     1.007825032230
         H           -3.240366910451    -2.611639788738    -0.397190149753     1.007825032230
         H           -5.196477910451    -1.238948788738     0.298994850247     1.007825032230

  Basis Set: AUG-CC-PVTZ
    Blend: AUG-CC-PVTZ
  Basis Set: (AUG-CC-PVTZ AUX)
    Blend: AUG-CC-PVTZ-JKFIT
	 Reference Energy          =    -570.4985098599199773 [Eh]
	 Singles Energy            =      -0.0000000000000000 [Eh]
	 Same-Spin Energy          =      -0.6363061382738666 [Eh]
	 Opposite-Spin Energy      =      -1.9709734396776448 [Eh]
	 Correlation Energy        =      -2.6072795779515117 [Eh]
	 Total Energy              =    -573.1057894378715218 [Eh]

	 ================> DF-SCS-MP2 Energies <==================
	-----------------------------------------------------------
	 SCS Same-Spin Scale       =       0.3333333333333333 [-]
	 SCS Opposite-Spin Scale   =       1.2000000000000000 [-]
	 SCS Same-Spin Energy      =      -0.2121020460912889 [Eh]
	 SCS Opposite-Spin Energy  =      -2.3651681276131735 [Eh]
	 SCS Correlation Energy    =      -2.5772701737044623 [Eh]
	 SCS Total Energy          =    -573.0757800336244827 [Eh]
	-----------------------------------------------------------

  Dipole Moment: [D]
     X:     1.8647      Y:     1.8841      Z:     0.1603     Total:     2.6557

*** Psi4 exiting successfully. Buy a developer a beer!
