                               Psi4 1.4a3.dev225

  ==> Input File <==

--------------------------------------------------------------------------
#psi4
#
memory 32 gb

molecule  {
0 1
  N       -0.4914050     1.0723760    -0.3164170
  N        1.0085960    -0.7184190    -0.0133500
  C       -1.7100270     0.3982770    -0.1243180
  C        0.8049200     0.5981430    -0.1551110
  C        3.4026260    -0.3179870     0.1123840
  C        1.8688800     1.5249980    -0.1805650
  C        3.1641670     1.0570110    -0.0435420
  C       -2.8187550     1.1723340     0.2577460
  C       -1.8866400    -0.9712620    -0.3801370
  C        2.2803750    -1.1431010     0.1169750
  C        4.7931030    -0.8701860     0.2621020
  C       -4.0754850     0.5909990     0.4048790
  C       -3.1483220    -1.5428300    -0.2100850
  C       -4.2492880    -0.7746780     0.1720620
  H       -0.5645201     2.0309889    -0.2442012
  H        1.6730390     2.5885970    -0.3025930
  H        3.9969070     1.7590030    -0.0564670
  H       -2.6877930     2.2355590     0.4578160
  H       -1.0395640    -1.5738120    -0.6782690
  H        2.3962560    -2.2212150     0.2333330
  H        5.4095350    -0.6367030    -0.6119800
  H        5.2936270    -0.4518060     1.1412500
  H        4.7686350    -1.9575490     0.3752240
  H       -4.9184630     1.2095470     0.7042290
  H       -3.2707080    -2.6065070    -0.4021260
  H       -5.2268190    -1.2338160     0.2940590
units angstrom
no_reorient  #important for SAPT in psi4, default
symmetry c1  #important for SAPT in psi4, default
}

set PROPERTIES_ORIGIN ["COM"]
properties('MP2/aug-cc-pvtz', properties = ['dipole'])
--------------------------------------------------------------------------

    Molecular point group: c1
  Charge       = 0
  Multiplicity = 1
  Basis Set: AUG-CC-PVTZ
    Blend: AUG-CC-PVTZ
  Basis Set: (AUG-CC-PVTZ AUX)
    Blend: AUG-CC-PVTZ-JKFIT

    Orbital Energies [Eh]
    ---------------------

    Doubly Occupied:

       1A    -15.584133     2A    -15.553843     3A    -11.322970
       4A    -11.280835     5A    -11.272863     6A    -11.258603
       7A    -11.239057     8A    -11.235494     9A    -11.233809
      10A    -11.230328    11A    -11.229036    12A    -11.228730
      13A    -11.221566    14A    -11.218418    15A     -1.296245
      16A     -1.223128    17A     -1.133614    18A     -1.097219
      19A     -1.046274    20A     -1.008141    21A     -0.994076
      22A     -0.936514    23A     -0.868917    24A     -0.842165
      25A     -0.821654    26A     -0.800238    27A     -0.727395
      28A     -0.718322    29A     -0.670677    30A     -0.655675
      31A     -0.637575    32A     -0.621484    33A     -0.597247
      34A     -0.593920    35A     -0.588918    36A     -0.579994
      37A     -0.570024    38A     -0.562947    39A     -0.547013
      40A     -0.519244    41A     -0.511301    42A     -0.504266
      43A     -0.487500    44A     -0.454523    45A     -0.414485
      46A     -0.381523    47A     -0.336744    48A     -0.330527
      49A     -0.277358

  @DF-RHF Final Energy:  -570.49879094495952

   => Energetics <=

    Nuclear Repulsion Energy =            791.0923927597596048
    One-Electron Energy =               -2342.2493030293458105
    Two-Electron Energy =                 980.6581193246266821
    Total Energy =                       -570.4987909449595236
  Basis Set: (AUG-CC-PVTZ AUX)
    Blend: AUG-CC-PVTZ-RI
    Molecular point group: c1

    Geometry (in Angstrom), charge = 0, multiplicity = 1:

       Center              X                  Y                   Z               Mass
    ------------   -----------------  -----------------  -----------------  -----------------
         N           -0.460034365756     1.068287585362    -0.311464942771    14.003074004430
         N            1.039966634244    -0.722507414638    -0.008397942771    14.003074004430
         C           -1.678656365756     0.394188585362    -0.119365942771    12.000000000000
         C            0.836290634244     0.594054585362    -0.150158942771    12.000000000000
         C            3.433996634244    -0.322075414638     0.117336057229    12.000000000000
         C            1.900250634244     1.520909585362    -0.175612942771    12.000000000000
         C            3.195537634244     1.052922585362    -0.038589942771    12.000000000000
         C           -2.787384365756     1.168245585362     0.262698057229    12.000000000000
         C           -1.855269365756    -0.975350414638    -0.375184942771    12.000000000000
         C            2.311745634244    -1.147189414638     0.121927057229    12.000000000000
         C            4.824473634244    -0.874274414638     0.267054057229    12.000000000000
         C           -4.044114365756     0.586910585362     0.409831057229    12.000000000000
         C           -3.116951365756    -1.546918414638    -0.205132942771    12.000000000000
         C           -4.217917365756    -0.778766414638     0.177014057229    12.000000000000
         H           -0.533149465756     2.026900485362    -0.239249142771     1.007825032230
         H            1.704409634244     2.584508585362    -0.297640942771     1.007825032230
         H            4.028277634244     1.754914585362    -0.051514942771     1.007825032230
         H           -2.656422365756     2.231470585362     0.462768057229     1.007825032230
         H           -1.008193365756    -1.577900414638    -0.673316942771     1.007825032230
         H            2.427626634244    -2.225303414638     0.238285057229     1.007825032230
         H            5.440905634244    -0.640791414638    -0.607027942771     1.007825032230
         H            5.324997634244    -0.455894414638     1.146202057229     1.007825032230
         H            4.800005634244    -1.961637414638     0.380176057229     1.007825032230
         H           -4.887092365756     1.205458585362     0.709181057229     1.007825032230
         H           -3.239337365756    -2.610595414638    -0.397173942771     1.007825032230
         H           -5.195448365756    -1.237904414638     0.299011057229     1.007825032230

  Basis Set: AUG-CC-PVTZ
    Blend: AUG-CC-PVTZ
  Basis Set: (AUG-CC-PVTZ AUX)
    Blend: AUG-CC-PVTZ-JKFIT
	 Reference Energy          =    -570.4987909449595236 [Eh]
	 Singles Energy            =      -0.0000000000000000 [Eh]
	 Same-Spin Energy          =      -0.6359737079838078 [Eh]
	 Opposite-Spin Energy      =      -1.9698954050449149 [Eh]
	 Correlation Energy        =      -2.6058691130287226 [Eh]
	 Total Energy              =    -573.1046600579882124 [Eh]

	 ================> DF-SCS-MP2 Energies <==================
	-----------------------------------------------------------
	 SCS Same-Spin Scale       =       0.3333333333333333 [-]
	 SCS Opposite-Spin Scale   =       1.2000000000000000 [-]
	 SCS Same-Spin Energy      =      -0.2119912359946026 [Eh]
	 SCS Opposite-Spin Energy  =      -2.3638744860538976 [Eh]
	 SCS Correlation Energy    =      -2.5758657220485004 [Eh]
	 SCS Total Energy          =    -573.0746566670080711 [Eh]
	-----------------------------------------------------------

  Dipole Moment: [D]
     X:     1.8826      Y:     1.8194      Z:     0.1629     Total:     2.6232

*** Psi4 exiting successfully. Buy a developer a beer!
