                               Psi4 1.4a3.dev225

  ==> Input File <==

--------------------------------------------------------------------------
#psi4
#
memory 32 gb

molecule  {
0 1
  N       -0.4914050     1.0723760    -0.3164170
  N        1.0085960    -0.7184190    -0.0133500
  C       -1.7100270     0.3982770    -0.1243180
  C        0.8049200     0.5981430    -0.1551110
  C        3.4026260    -0.3179870     0.1123840
  C        1.8688800     1.5249980    -0.1805650
  C        3.3513423     0.9893846    -0.0237415
  C       -2.8187550     1.1723340     0.2577460
  C       -1.8866400    -0.9712620    -0.3801370
  C        2.2803750    -1.1431010     0.1169750
  C        4.7931030    -0.8701860     0.2621020
  C       -4.0754850     0.5909990     0.4048790
  C       -3.1483220    -1.5428300    -0.2100850
  C       -4.2492880    -0.7746780     0.1720620
  H       -0.5683120     2.0807040    -0.2404560
  H        1.6730390     2.5885970    -0.3025930
  H        3.9969070     1.7590030    -0.0564670
  H       -2.6877930     2.2355590     0.4578160
  H       -1.0395640    -1.5738120    -0.6782690
  H        2.3962560    -2.2212150     0.2333330
  H        5.4095350    -0.6367030    -0.6119800
  H        5.2936270    -0.4518060     1.1412500
  H        4.7686350    -1.9575490     0.3752240
  H       -4.9184630     1.2095470     0.7042290
  H       -3.2707080    -2.6065070    -0.4021260
  H       -5.2268190    -1.2338160     0.2940590
units angstrom
no_reorient  #important for SAPT in psi4, default
symmetry c1  #important for SAPT in psi4, default
}

set PROPERTIES_ORIGIN ["COM"]
properties('MP2/aug-cc-pvtz', properties = ['dipole'])
--------------------------------------------------------------------------

    Molecular point group: c1
  Charge       = 0
  Multiplicity = 1
  Basis Set: AUG-CC-PVTZ
    Blend: AUG-CC-PVTZ
  Basis Set: (AUG-CC-PVTZ AUX)
    Blend: AUG-CC-PVTZ-JKFIT

    Orbital Energies [Eh]
    ---------------------

    Doubly Occupied:

       1A    -15.583455     2A    -15.563432     3A    -11.317966
       4A    -11.285295     5A    -11.279297     6A    -11.261756
       7A    -11.246861     8A    -11.235102     9A    -11.232278
      10A    -11.229151    11A    -11.227760    12A    -11.226169
      13A    -11.219348    14A    -11.216645    15A     -1.291280
      16A     -1.220824    17A     -1.131722    18A     -1.108707
      19A     -1.030817    20A     -1.006412    21A     -0.981852
      22A     -0.936739    23A     -0.884864    24A     -0.837410
      25A     -0.818606    26A     -0.801632    27A     -0.730772
      28A     -0.713165    29A     -0.669952    30A     -0.658924
      31A     -0.635874    32A     -0.621861    33A     -0.599868
      34A     -0.594987    35A     -0.590374    36A     -0.578216
      37A     -0.573681    38A     -0.566809    39A     -0.549685
      40A     -0.511448    41A     -0.504770    42A     -0.486446
      43A     -0.482381    44A     -0.454605    45A     -0.421250
      46A     -0.372974    47A     -0.336628    48A     -0.329701
      49A     -0.273979

  @DF-RHF Final Energy:  -570.45254103682089

   => Energetics <=

    Nuclear Repulsion Energy =            789.0442467772580812
    One-Electron Energy =               -2338.1261129762251585
    Two-Electron Energy =                 978.6293251621460740
    Total Energy =                       -570.4525410368208895
  Basis Set: (AUG-CC-PVTZ AUX)
    Blend: AUG-CC-PVTZ-RI
    Molecular point group: c1

    Geometry (in Angstrom), charge = 0, multiplicity = 1:

       Center              X                  Y                   Z               Mass
    ------------   -----------------  -----------------  -----------------  -----------------
         N           -0.472214058525     1.072423448901    -0.312776080429    14.003074004430
         N            1.027786941475    -0.718371551099    -0.009709080429    14.003074004430
         C           -1.690836058525     0.398324448901    -0.120677080429    12.000000000000
         C            0.824110941475     0.598190448901    -0.151470080429    12.000000000000
         C            3.421816941475    -0.317939551099     0.116024919571    12.000000000000
         C            1.888070941475     1.525045448901    -0.176924080429    12.000000000000
         C            3.370533241475     0.989432048901    -0.020100580429    12.000000000000
         C           -2.799564058525     1.172381448901     0.261386919571    12.000000000000
         C           -1.867449058525    -0.971214551099    -0.376496080429    12.000000000000
         C            2.299565941475    -1.143053551099     0.120615919571    12.000000000000
         C            4.812293941475    -0.870138551099     0.265742919571    12.000000000000
         C           -4.056294058525     0.591046448901     0.408519919571    12.000000000000
         C           -3.129131058525    -1.542782551099    -0.206444080429    12.000000000000
         C           -4.230097058525    -0.774630551099     0.175702919571    12.000000000000
         H           -0.549121058525     2.080751448901    -0.236815080429     1.007825032230
         H            1.692229941475     2.588644448901    -0.298952080429     1.007825032230
         H            4.016097941475     1.759050448901    -0.052826080429     1.007825032230
         H           -2.668602058525     2.235606448901     0.461456919571     1.007825032230
         H           -1.020373058525    -1.573764551099    -0.674628080429     1.007825032230
         H            2.415446941475    -2.221167551099     0.236973919571     1.007825032230
         H            5.428725941475    -0.636655551099    -0.608339080429     1.007825032230
         H            5.312817941475    -0.451758551099     1.144890919571     1.007825032230
         H            4.787825941475    -1.957501551099     0.378864919571     1.007825032230
         H           -4.899272058525     1.209594448901     0.707869919571     1.007825032230
         H           -3.251517058525    -2.606459551099    -0.398485080429     1.007825032230
         H           -5.207628058525    -1.233768551099     0.297699919571     1.007825032230

  Basis Set: AUG-CC-PVTZ
    Blend: AUG-CC-PVTZ
  Basis Set: (AUG-CC-PVTZ AUX)
    Blend: AUG-CC-PVTZ-JKFIT
	 Reference Energy          =    -570.4525410368208895 [Eh]
	 Singles Energy            =      -0.0000000000000000 [Eh]
	 Same-Spin Energy          =      -0.6377349346135034 [Eh]
	 Opposite-Spin Energy      =      -1.9746597650828404 [Eh]
	 Correlation Energy        =      -2.6123946996963436 [Eh]
	 Total Energy              =    -573.0649357365172136 [Eh]

	 ================> DF-SCS-MP2 Energies <==================
	-----------------------------------------------------------
	 SCS Same-Spin Scale       =       0.3333333333333333 [-]
	 SCS Opposite-Spin Scale   =       1.2000000000000000 [-]
	 SCS Same-Spin Energy      =      -0.2125783115378345 [Eh]
	 SCS Opposite-Spin Energy  =      -2.3695917180994082 [Eh]
	 SCS Correlation Energy    =      -2.5821700296372425 [Eh]
	 SCS Total Energy          =    -573.0347110664581578 [Eh]
	-----------------------------------------------------------

  Dipole Moment: [D]
     X:     2.0763      Y:     1.7751      Z:     0.1768     Total:     2.7374

*** Psi4 exiting successfully. Buy a developer a beer!
