                               Psi4 1.4a3.dev225

  ==> Input File <==

--------------------------------------------------------------------------
#psi4
#
memory 32 gb

molecule  {
0 1
  N       -0.4914050     1.0723760    -0.3164170
  N        1.0085960    -0.7184190    -0.0133500
  C       -1.7100270     0.3982770    -0.1243180
  C        0.8049200     0.5981430    -0.1551110
  C        3.4026260    -0.3179870     0.1123840
  C        1.8688800     1.5249980    -0.1805650
  C        3.1641670     1.0570110    -0.0435420
  C       -2.8187550     1.1723340     0.2577460
  C       -1.8866400    -0.9712620    -0.3801370
  C        2.2803750    -1.1431010     0.1169750
  C        4.7931030    -0.8701860     0.2621020
  C       -4.0754850     0.5909990     0.4048790
  C       -3.1483220    -1.5428300    -0.2100850
  C       -4.2492880    -0.7746780     0.1720620
  H       -0.5683120     2.0807040    -0.2404560
  H        1.6730390     2.5885970    -0.3025930
  H        3.9969070     1.7590030    -0.0564670
  H       -2.6877930     2.2355590     0.4578160
  H       -1.0395640    -1.5738120    -0.6782690
  H        2.3962560    -2.2212150     0.2333330
  H        5.4095350    -0.6367030    -0.6119800
  H        5.3050823    -0.5595520     1.1785359
  H        4.7686350    -1.9575490     0.3752240
  H       -4.9184630     1.2095470     0.7042290
  H       -3.2707080    -2.6065070    -0.4021260
  H       -5.2268190    -1.2338160     0.2940590
units angstrom
no_reorient  #important for SAPT in psi4, default
symmetry c1  #important for SAPT in psi4, default
}

set PROPERTIES_ORIGIN ["COM"]
properties('MP2/aug-cc-pvtz', properties = ['dipole'])
--------------------------------------------------------------------------

    Molecular point group: c1
  Charge       = 0
  Multiplicity = 1
  Basis Set: AUG-CC-PVTZ
    Blend: AUG-CC-PVTZ
  Basis Set: (AUG-CC-PVTZ AUX)
    Blend: AUG-CC-PVTZ-JKFIT

    Orbital Energies [Eh]
    ---------------------

    Doubly Occupied:

       1A    -15.589334     2A    -15.553877     3A    -11.323328
       4A    -11.281053     5A    -11.273274     6A    -11.258542
       7A    -11.238723     8A    -11.235679     9A    -11.233823
      10A    -11.230400    11A    -11.228707    12A    -11.228450
      13A    -11.221548    14A    -11.218530    15A     -1.293334
      16A     -1.220318    17A     -1.132907    18A     -1.096703
      19A     -1.045941    20A     -1.008140    21A     -0.993106
      22A     -0.935032    23A     -0.868545    24A     -0.841705
      25A     -0.821423    26A     -0.798026    27A     -0.723790
      28A     -0.715511    29A     -0.670765    30A     -0.653139
      31A     -0.638217    32A     -0.621353    33A     -0.596255
      34A     -0.594497    35A     -0.588730    36A     -0.579906
      37A     -0.571778    38A     -0.562274    39A     -0.539245
      40A     -0.519935    41A     -0.510001    42A     -0.504612
      43A     -0.487447    44A     -0.454446    45A     -0.414534
      46A     -0.381611    47A     -0.336985    48A     -0.330631
      49A     -0.277264

  @DF-RHF Final Energy:  -570.49781023604169

   => Energetics <=

    Nuclear Repulsion Energy =            790.6759149973468084
    One-Electron Energy =               -2341.4607097425609936
    Two-Electron Energy =                 980.2869845091724983
    Total Energy =                       -570.4978102360416869
  Basis Set: (AUG-CC-PVTZ AUX)
    Blend: AUG-CC-PVTZ-RI
    Molecular point group: c1

    Geometry (in Angstrom), charge = 0, multiplicity = 1:

       Center              X                  Y                   Z               Mass
    ------------   -----------------  -----------------  -----------------  -----------------
         N           -0.460076317762     1.068605265852    -0.311689560689    14.003074004430
         N            1.039924682238    -0.722189734148    -0.008622560689    14.003074004430
         C           -1.678698317762     0.394506265852    -0.119590560689    12.000000000000
         C            0.836248682238     0.594372265852    -0.150383560689    12.000000000000
         C            3.433954682238    -0.321757734148     0.117111439311    12.000000000000
         C            1.900208682238     1.521227265852    -0.175837560689    12.000000000000
         C            3.195495682238     1.053240265852    -0.038814560689    12.000000000000
         C           -2.787426317762     1.168563265852     0.262473439311    12.000000000000
         C           -1.855311317762    -0.975032734148    -0.375409560689    12.000000000000
         C            2.311703682238    -1.146871734148     0.121702439311    12.000000000000
         C            4.824431682238    -0.873956734148     0.266829439311    12.000000000000
         C           -4.044156317762     0.587228265852     0.409606439311    12.000000000000
         C           -3.116993317762    -1.546600734148    -0.205357560689    12.000000000000
         C           -4.217959317762    -0.778448734148     0.176789439311    12.000000000000
         H           -0.536983317762     2.076933265852    -0.235728560689     1.007825032230
         H            1.704367682238     2.584826265852    -0.297865560689     1.007825032230
         H            4.028235682238     1.755232265852    -0.051739560689     1.007825032230
         H           -2.656464317762     2.231788265852     0.462543439311     1.007825032230
         H           -1.008235317762    -1.577582734148    -0.673541560689     1.007825032230
         H            2.427584682238    -2.224985734148     0.238060439311     1.007825032230
         H            5.440863682238    -0.640473734148    -0.607252560689     1.007825032230
         H            5.336410982238    -0.563322734148     1.183263339311     1.007825032230
         H            4.799963682238    -1.961319734148     0.379951439311     1.007825032230
         H           -4.887134317762     1.205776265852     0.708956439311     1.007825032230
         H           -3.239379317762    -2.610277734148    -0.397398560689     1.007825032230
         H           -5.195490317762    -1.237586734148     0.298786439311     1.007825032230

  Basis Set: AUG-CC-PVTZ
    Blend: AUG-CC-PVTZ
  Basis Set: (AUG-CC-PVTZ AUX)
    Blend: AUG-CC-PVTZ-JKFIT
	 Reference Energy          =    -570.4978102360416869 [Eh]
	 Singles Energy            =      -0.0000000000000000 [Eh]
	 Same-Spin Energy          =      -0.6364092857807364 [Eh]
	 Opposite-Spin Energy      =      -1.9708465814256226 [Eh]
	 Correlation Energy        =      -2.6072558672063590 [Eh]
	 Total Energy              =    -573.1050661032480775 [Eh]

	 ================> DF-SCS-MP2 Energies <==================
	-----------------------------------------------------------
	 SCS Same-Spin Scale       =       0.3333333333333333 [-]
	 SCS Opposite-Spin Scale   =       1.2000000000000000 [-]
	 SCS Same-Spin Energy      =      -0.2121364285935788 [Eh]
	 SCS Opposite-Spin Energy  =      -2.3650158977107472 [Eh]
	 SCS Correlation Energy    =      -2.5771523263043261 [Eh]
	 SCS Total Energy          =    -573.0749625623460588 [Eh]
	-----------------------------------------------------------

  Dipole Moment: [D]
     X:     1.8422      Y:     1.8279      Z:     0.1842     Total:     2.6017

*** Psi4 exiting successfully. Buy a developer a beer!
