                               Psi4 1.4a3.dev225

  ==> Input File <==

--------------------------------------------------------------------------
#psi4
#
memory 32 gb

molecule  {
0 1
  N       -0.4914050     1.0723760    -0.3164170
  N        1.0085960    -0.7184190    -0.0133500
  C       -1.7100270     0.3982770    -0.1243180
  C        0.8049200     0.5981430    -0.1551110
  C        3.4026260    -0.3179870     0.1123840
  C        1.8688800     1.5249980    -0.1805650
  C        3.1641670     1.0570110    -0.0435420
  C       -2.8187550     1.1723340     0.2577460
  C       -1.8866400    -0.9712620    -0.3801370
  C        2.2803750    -1.1431010     0.1169750
  C        4.7931030    -0.8701860     0.2621020
  C       -4.0754850     0.5909990     0.4048790
  C       -3.1483220    -1.5428300    -0.2100850
  C       -4.2492880    -0.7746780     0.1720620
  H       -0.5683120     2.0807040    -0.2404560
  H        1.6730390     2.5885970    -0.3025930
  H        3.9969070     1.7590030    -0.0564670
  H       -2.6877930     2.2355590     0.4578160
  H       -1.0395640    -1.5738120    -0.6782690
  H        2.3962560    -2.2212150     0.2333330
  H        5.4095350    -0.6367030    -0.6119800
  H        5.2936270    -0.4518060     1.1412500
  H        4.7686350    -1.9575490     0.3752240
  H       -4.9339649     1.2209218     0.7097339
  H       -3.2707080    -2.6065070    -0.4021260
  H       -5.2268190    -1.2338160     0.2940590
units angstrom
no_reorient  #important for SAPT in psi4, default
symmetry c1  #important for SAPT in psi4, default
}

set PROPERTIES_ORIGIN ["COM"]
properties('MP2/aug-cc-pvtz', properties = ['dipole'])
--------------------------------------------------------------------------

    Molecular point group: c1
  Charge       = 0
  Multiplicity = 1
  Basis Set: AUG-CC-PVTZ
    Blend: AUG-CC-PVTZ
  Basis Set: (AUG-CC-PVTZ AUX)
    Blend: AUG-CC-PVTZ-JKFIT

    Orbital Energies [Eh]
    ---------------------

    Doubly Occupied:

       1A    -15.589198     2A    -15.553767     3A    -11.323040
       4A    -11.281077     5A    -11.272809     6A    -11.258478
       7A    -11.238893     8A    -11.236050     9A    -11.235336
      10A    -11.230449    11A    -11.228949    12A    -11.228804
      13A    -11.221641    14A    -11.218489    15A     -1.293183
      16A     -1.220178    17A     -1.132779    18A     -1.096980
      19A     -1.045974    20A     -1.007639    21A     -0.993033
      22A     -0.934938    23A     -0.868562    24A     -0.840884
      25A     -0.821016    26A     -0.797401    27A     -0.723085
      28A     -0.715129    29A     -0.670651    30A     -0.653228
      31A     -0.637003    32A     -0.620810    33A     -0.595455
      34A     -0.592766    35A     -0.588489    36A     -0.579138
      37A     -0.569386    38A     -0.562382    39A     -0.546804
      40A     -0.519039    41A     -0.511103    42A     -0.504216
      43A     -0.486666    44A     -0.454177    45A     -0.414401
      46A     -0.381446    47A     -0.336663    48A     -0.330581
      49A     -0.277001

  @DF-RHF Final Energy:  -570.49829925863594

   => Energetics <=

    Nuclear Repulsion Energy =            790.6618707333274187
    One-Electron Energy =               -2341.4420059485250931
    Two-Electron Energy =                 980.2818359565618493
    Total Energy =                       -570.4982992586359387
  Basis Set: (AUG-CC-PVTZ AUX)
    Blend: AUG-CC-PVTZ-RI
    Molecular point group: c1

    Geometry (in Angstrom), charge = 0, multiplicity = 1:

       Center              X                  Y                   Z               Mass
    ------------   -----------------  -----------------  -----------------  -----------------
         N           -0.459928745063     1.067953158886    -0.311515580902    14.003074004430
         N            1.040072254937    -0.722841841114    -0.008448580902    14.003074004430
         C           -1.678550745063     0.393854158886    -0.119416580902    12.000000000000
         C            0.836396254937     0.593720158886    -0.150209580902    12.000000000000
         C            3.434102254937    -0.322409841114     0.117285419098    12.000000000000
         C            1.900356254937     1.520575158886    -0.175663580902    12.000000000000
         C            3.195643254937     1.052588158886    -0.038640580902    12.000000000000
         C           -2.787278745063     1.167911158886     0.262647419098    12.000000000000
         C           -1.855163745063    -0.975684841114    -0.375235580902    12.000000000000
         C            2.311851254937    -1.147523841114     0.121876419098    12.000000000000
         C            4.824579254937    -0.874608841114     0.267003419098    12.000000000000
         C           -4.044008745063     0.586576158886     0.409780419098    12.000000000000
         C           -3.116845745063    -1.547252841114    -0.205183580902    12.000000000000
         C           -4.217811745063    -0.779100841114     0.176963419098    12.000000000000
         H           -0.536835745063     2.076281158886    -0.235554580902     1.007825032230
         H            1.704515254937     2.584174158886    -0.297691580902     1.007825032230
         H            4.028383254937     1.754580158886    -0.051565580902     1.007825032230
         H           -2.656316745063     2.231136158886     0.462717419098     1.007825032230
         H           -1.008087745063    -1.578234841114    -0.673367580902     1.007825032230
         H            2.427732254937    -2.225637841114     0.238234419098     1.007825032230
         H            5.441011254937    -0.641125841114    -0.607078580902     1.007825032230
         H            5.325103254937    -0.456228841114     1.146151419098     1.007825032230
         H            4.800111254937    -1.961971841114     0.380125419098     1.007825032230
         H           -4.902488645063     1.216498958886     0.714635319098     1.007825032230
         H           -3.239231745063    -2.610929841114    -0.397224580902     1.007825032230
         H           -5.195342745063    -1.238238841114     0.298960419098     1.007825032230

  Basis Set: AUG-CC-PVTZ
    Blend: AUG-CC-PVTZ
  Basis Set: (AUG-CC-PVTZ AUX)
    Blend: AUG-CC-PVTZ-JKFIT
	 Reference Energy          =    -570.4982992586359387 [Eh]
	 Singles Energy            =      -0.0000000000000000 [Eh]
	 Same-Spin Energy          =      -0.6364497354112549 [Eh]
	 Opposite-Spin Energy      =      -1.9710470578775126 [Eh]
	 Correlation Energy        =      -2.6074967932887674 [Eh]
	 Total Energy              =    -573.1057960519246990 [Eh]

	 ================> DF-SCS-MP2 Energies <==================
	-----------------------------------------------------------
	 SCS Same-Spin Scale       =       0.3333333333333333 [-]
	 SCS Opposite-Spin Scale   =       1.2000000000000000 [-]
	 SCS Same-Spin Energy      =      -0.2121499118037516 [Eh]
	 SCS Opposite-Spin Energy  =      -2.3652564694530152 [Eh]
	 SCS Correlation Energy    =      -2.5774063812567669 [Eh]
	 SCS Total Energy          =    -573.0757056398927034 [Eh]
	-----------------------------------------------------------

  Dipole Moment: [D]
     X:     1.8796      Y:     1.8486      Z:     0.1607     Total:     2.6413

*** Psi4 exiting successfully. Buy a developer a beer!
