                               Psi4 1.4a3.dev225

  ==> Input File <==

--------------------------------------------------------------------------
#psi4
#
memory 32 gb

molecule  {
0 1
  N       -0.4914050     1.0723760    -0.3164170
  N        1.0085960    -0.7184190    -0.0133500
  C       -1.7100270     0.3982770    -0.1243180
  C        0.8049200     0.5981430    -0.1551110
  C        3.4026260    -0.3179870     0.1123840
  C        1.8688800     1.5249980    -0.1805650
  C        3.1641670     1.0570110    -0.0435420
  C       -2.8187550     1.1723340     0.2577460
  C       -1.8866400    -0.9712620    -0.3801370
  C        2.2803750    -1.1431010     0.1169750
  C        4.7931030    -0.8701860     0.2621020
  C       -4.1657369     0.5492505     0.4154453
  C       -3.1483220    -1.5428300    -0.2100850
  C       -4.2492880    -0.7746780     0.1720620
  H       -0.5683120     2.0807040    -0.2404560
  H        1.6730390     2.5885970    -0.3025930
  H        3.9969070     1.7590030    -0.0564670
  H       -2.6877930     2.2355590     0.4578160
  H       -1.0395640    -1.5738120    -0.6782690
  H        2.3962560    -2.2212150     0.2333330
  H        5.4095350    -0.6367030    -0.6119800
  H        5.2936270    -0.4518060     1.1412500
  H        4.7686350    -1.9575490     0.3752240
  H       -4.9184630     1.2095470     0.7042290
  H       -3.2707080    -2.6065070    -0.4021260
  H       -5.2268190    -1.2338160     0.2940590
units angstrom
no_reorient  #important for SAPT in psi4, default
symmetry c1  #important for SAPT in psi4, default
}

set PROPERTIES_ORIGIN ["COM"]
properties('MP2/aug-cc-pvtz', properties = ['dipole'])
--------------------------------------------------------------------------

    Molecular point group: c1
  Charge       = 0
  Multiplicity = 1
  Basis Set: AUG-CC-PVTZ
    Blend: AUG-CC-PVTZ
  Basis Set: (AUG-CC-PVTZ AUX)
    Blend: AUG-CC-PVTZ-JKFIT

    Orbital Energies [Eh]
    ---------------------

    Doubly Occupied:

       1A    -15.588124     2A    -15.553566     3A    -11.322867
       4A    -11.280665     5A    -11.272757     6A    -11.258354
       7A    -11.238524     8A    -11.235420     9A    -11.235033
      10A    -11.234323    11A    -11.231433    12A    -11.228791
      13A    -11.221878    14A    -11.218919    15A     -1.292721
      16A     -1.219425    17A     -1.129886    18A     -1.096801
      19A     -1.047303    20A     -1.004320    21A     -0.993057
      22A     -0.933811    23A     -0.868323    24A     -0.842000
      25A     -0.824094    26A     -0.796485    27A     -0.724982
      28A     -0.716002    29A     -0.668987    30A     -0.655156
      31A     -0.638382    32A     -0.619820    33A     -0.606743
      34A     -0.594306    35A     -0.588808    36A     -0.573121
      37A     -0.569209    38A     -0.562291    39A     -0.546417
      40A     -0.517777    41A     -0.509323    42A     -0.498635
      43A     -0.489304    44A     -0.454422    45A     -0.414298
      46A     -0.381352    47A     -0.340190    48A     -0.322019
      49A     -0.279100

  @DF-RHF Final Energy:  -570.48716219009066

   => Energetics <=

    Nuclear Repulsion Energy =            789.5528439034360417
    One-Electron Energy =               -2339.2009631994019401
    Two-Electron Energy =                 979.1609571058752408
    Total Energy =                       -570.4871621900906575
  Basis Set: (AUG-CC-PVTZ AUX)
    Blend: AUG-CC-PVTZ-RI
    Molecular point group: c1

    Geometry (in Angstrom), charge = 0, multiplicity = 1:

       Center              X                  Y                   Z               Mass
    ------------   -----------------  -----------------  -----------------  -----------------
         N           -0.454130812871     1.070736676938    -0.312174177274    14.003074004430
         N            1.045870187129    -0.720058323062    -0.009107177274    14.003074004430
         C           -1.672752812871     0.396637676938    -0.120075177274    12.000000000000
         C            0.842194187129     0.596503676938    -0.150868177274    12.000000000000
         C            3.439900187129    -0.319626323062     0.116626822726    12.000000000000
         C            1.906154187129     1.523358676938    -0.176322177274    12.000000000000
         C            3.201441187129     1.055371676938    -0.039299177274    12.000000000000
         C           -2.781480812871     1.170694676938     0.261988822726    12.000000000000
         C           -1.849365812871    -0.972901323062    -0.375894177274    12.000000000000
         C            2.317649187129    -1.144740323062     0.121217822726    12.000000000000
         C            4.830377187129    -0.871825323062     0.266344822726    12.000000000000
         C           -4.128462712871     0.547611176938     0.419688122726    12.000000000000
         C           -3.111047812871    -1.544469323062    -0.205842177274    12.000000000000
         C           -4.212013812871    -0.776317323062     0.176304822726    12.000000000000
         H           -0.531037812871     2.079064676938    -0.236213177274     1.007825032230
         H            1.710313187129     2.586957676938    -0.298350177274     1.007825032230
         H            4.034181187129     1.757363676938    -0.052224177274     1.007825032230
         H           -2.650518812871     2.233919676938     0.462058822726     1.007825032230
         H           -1.002289812871    -1.575451323062    -0.674026177274     1.007825032230
         H            2.433530187129    -2.222854323062     0.237575822726     1.007825032230
         H            5.446809187129    -0.638342323062    -0.607737177274     1.007825032230
         H            5.330901187129    -0.453445323062     1.145492822726     1.007825032230
         H            4.805909187129    -1.959188323062     0.379466822726     1.007825032230
         H           -4.881188812871     1.207907676938     0.708471822726     1.007825032230
         H           -3.233433812871    -2.608146323062    -0.397883177274     1.007825032230
         H           -5.189544812871    -1.235455323062     0.298301822726     1.007825032230

  Basis Set: AUG-CC-PVTZ
    Blend: AUG-CC-PVTZ
  Basis Set: (AUG-CC-PVTZ AUX)
    Blend: AUG-CC-PVTZ-JKFIT
	 Reference Energy          =    -570.4871621900906575 [Eh]
	 Singles Energy            =      -0.0000000000000000 [Eh]
	 Same-Spin Energy          =      -0.6362297903683773 [Eh]
	 Opposite-Spin Energy      =      -1.9717344464843314 [Eh]
	 Correlation Energy        =      -2.6079642368527090 [Eh]
	 Total Energy              =    -573.0951264269433523 [Eh]

	 ================> DF-SCS-MP2 Energies <==================
	-----------------------------------------------------------
	 SCS Same-Spin Scale       =       0.3333333333333333 [-]
	 SCS Opposite-Spin Scale   =       1.2000000000000000 [-]
	 SCS Same-Spin Energy      =      -0.2120765967894591 [Eh]
	 SCS Opposite-Spin Energy  =      -2.3660813357811974 [Eh]
	 SCS Correlation Energy    =      -2.5781579325706563 [Eh]
	 SCS Total Energy          =    -573.0653201226613191 [Eh]
	-----------------------------------------------------------

  Dipole Moment: [D]
     X:     1.8297      Y:     1.8256      Z:     0.1620     Total:     2.5897

*** Psi4 exiting successfully. Buy a developer a beer!
