                               Psi4 1.4a3.dev225

  ==> Input File <==

--------------------------------------------------------------------------
#psi4
#
memory 32 gb

molecule  {
0 1
  N       -0.4914050     1.0723760    -0.3164170
  N        1.0085960    -0.7184190    -0.0133500
  C       -1.7100270     0.3982770    -0.1243180
  C        0.8049200     0.5981430    -0.1551110
  C        3.4026260    -0.3179870     0.1123840
  C        1.8688800     1.5249980    -0.1805650
  C        3.1641670     1.0570110    -0.0435420
  C       -2.8187550     1.1723340     0.2577460
  C       -1.8866400    -0.9712620    -0.3801370
  C        2.2803750    -1.1431010     0.1169750
  C        4.7931030    -0.8701860     0.2621020
  C       -4.0754850     0.5909990     0.4048790
  C       -3.1483220    -1.5428300    -0.2100850
  C       -4.2492880    -0.7746780     0.1720620
  H       -0.5683120     2.0807040    -0.2404560
  H        1.6730390     2.5885970    -0.3025930
  H        4.1498117     1.8879003    -0.0588402
  H       -2.6877930     2.2355590     0.4578160
  H       -1.0395640    -1.5738120    -0.6782690
  H        2.3962560    -2.2212150     0.2333330
  H        5.4095350    -0.6367030    -0.6119800
  H        5.2936270    -0.4518060     1.1412500
  H        4.7686350    -1.9575490     0.3752240
  H       -4.9184630     1.2095470     0.7042290
  H       -3.2707080    -2.6065070    -0.4021260
  H       -5.2268190    -1.2338160     0.2940590
units angstrom
no_reorient  #important for SAPT in psi4, default
symmetry c1  #important for SAPT in psi4, default
}

set PROPERTIES_ORIGIN ["COM"]
properties('MP2/aug-cc-pvtz', properties = ['dipole'])
--------------------------------------------------------------------------

    Molecular point group: c1
  Charge       = 0
  Multiplicity = 1
  Basis Set: AUG-CC-PVTZ
    Blend: AUG-CC-PVTZ
  Basis Set: (AUG-CC-PVTZ AUX)
    Blend: AUG-CC-PVTZ-JKFIT

    Orbital Energies [Eh]
    ---------------------

    Doubly Occupied:

       1A    -15.590072     2A    -15.554773     3A    -11.324653
       4A    -11.281528     5A    -11.279790     6A    -11.274595
       7A    -11.241024     8A    -11.237745     9A    -11.234162
      10A    -11.230751    11A    -11.229105    12A    -11.228946
      13A    -11.221908    14A    -11.218954    15A     -1.294254
      16A     -1.221196    17A     -1.133357    18A     -1.094800
      19A     -1.046833    20A     -1.008522    21A     -0.993053
      22A     -0.935316    23A     -0.862513    24A     -0.841876
      25A     -0.821862    26A     -0.792752    27A     -0.717041
      28A     -0.714658    29A     -0.670956    30A     -0.653018
      31A     -0.638288    32A     -0.617866    33A     -0.594654
      34A     -0.592510    35A     -0.588522    36A     -0.579515
      37A     -0.568955    38A     -0.546976    39A     -0.536117
      40A     -0.520460    41A     -0.511479    42A     -0.504867
      43A     -0.487701    44A     -0.454943    45A     -0.414080
      46A     -0.382864    47A     -0.337543    48A     -0.330998
      49A     -0.277834

  @DF-RHF Final Energy:  -570.47689875084609

   => Energetics <=

    Nuclear Repulsion Energy =            789.7907783925038530
    One-Electron Energy =               -2339.6629748736349939
    Two-Electron Energy =                 979.3952977302850513
    Total Energy =                       -570.4768987508460896
  Basis Set: (AUG-CC-PVTZ AUX)
    Blend: AUG-CC-PVTZ-RI
    Molecular point group: c1

    Geometry (in Angstrom), charge = 0, multiplicity = 1:

       Center              X                  Y                   Z               Mass
    ------------   -----------------  -----------------  -----------------  -----------------
         N           -0.460850658928     1.067309801546    -0.311472453556    14.003074004430
         N            1.039150341072    -0.723485198454    -0.008405453556    14.003074004430
         C           -1.679472658928     0.393210801546    -0.119373453556    12.000000000000
         C            0.835474341072     0.593076801546    -0.150166453556    12.000000000000
         C            3.433180341072    -0.323053198454     0.117328546444    12.000000000000
         C            1.899434341072     1.519931801546    -0.175620453556    12.000000000000
         C            3.194721341072     1.051944801546    -0.038597453556    12.000000000000
         C           -2.788200658928     1.167267801546     0.262690546444    12.000000000000
         C           -1.856085658928    -0.976328198454    -0.375192453556    12.000000000000
         C            2.310929341072    -1.148167198454     0.121919546444    12.000000000000
         C            4.823657341072    -0.875252198454     0.267046546444    12.000000000000
         C           -4.044930658928     0.585932801546     0.409823546444    12.000000000000
         C           -3.117767658928    -1.547896198454    -0.205140453556    12.000000000000
         C           -4.218733658928    -0.779744198454     0.177006546444    12.000000000000
         H           -0.537757658928     2.075637801546    -0.235511453556     1.007825032230
         H            1.703593341072     2.583530801546    -0.297648453556     1.007825032230
         H            4.180366041072     1.882834101546    -0.053895653556     1.007825032230
         H           -2.657238658928     2.230492801546     0.462760546444     1.007825032230
         H           -1.009009658928    -1.578878198454    -0.673324453556     1.007825032230
         H            2.426810341072    -2.226281198454     0.238277546444     1.007825032230
         H            5.440089341072    -0.641769198454    -0.607035453556     1.007825032230
         H            5.324181341072    -0.456872198454     1.146194546444     1.007825032230
         H            4.799189341072    -1.962615198454     0.380168546444     1.007825032230
         H           -4.887908658928     1.204480801546     0.709173546444     1.007825032230
         H           -3.240153658928    -2.611573198454    -0.397181453556     1.007825032230
         H           -5.196264658928    -1.238882198454     0.299003546444     1.007825032230

  Basis Set: AUG-CC-PVTZ
    Blend: AUG-CC-PVTZ
  Basis Set: (AUG-CC-PVTZ AUX)
    Blend: AUG-CC-PVTZ-JKFIT
	 Reference Energy          =    -570.4768987508460896 [Eh]
	 Singles Energy            =      -0.0000000000000000 [Eh]
	 Same-Spin Energy          =      -0.6369545347853917 [Eh]
	 Opposite-Spin Energy      =      -1.9730376544614026 [Eh]
	 Correlation Energy        =      -2.6099921892467943 [Eh]
	 Total Energy              =    -573.0868909400928715 [Eh]

	 ================> DF-SCS-MP2 Energies <==================
	-----------------------------------------------------------
	 SCS Same-Spin Scale       =       0.3333333333333333 [-]
	 SCS Opposite-Spin Scale   =       1.2000000000000000 [-]
	 SCS Same-Spin Energy      =      -0.2123181782617972 [Eh]
	 SCS Opposite-Spin Energy  =      -2.3676451853536831 [Eh]
	 SCS Correlation Energy    =      -2.5799633636154802 [Eh]
	 SCS Total Energy          =    -573.0568621144615236 [Eh]
	-----------------------------------------------------------

  Dipole Moment: [D]
     X:     1.7603      Y:     1.7833      Z:     0.1654     Total:     2.5112

*** Psi4 exiting successfully. Buy a developer a beer!
