                               Psi4 1.4a3.dev225

  ==> Input File <==

--------------------------------------------------------------------------
#psi4
#
memory 32 gb

molecule  {
0 1
  N       -0.4914050     1.0723760    -0.3164170
  N        1.0085960    -0.7184190    -0.0133500
  C       -1.7391910     0.3588788    -0.1259819
  C        0.8049200     0.5981430    -0.1551110
  C        3.4026260    -0.3179870     0.1123840
  C        1.8688800     1.5249980    -0.1805650
  C        3.1641670     1.0570110    -0.0435420
  C       -2.8187550     1.1723340     0.2577460
  C       -1.8866400    -0.9712620    -0.3801370
  C        2.2803750    -1.1431010     0.1169750
  C        4.7931030    -0.8701860     0.2621020
  C       -4.0754850     0.5909990     0.4048790
  C       -3.1483220    -1.5428300    -0.2100850
  C       -4.2492880    -0.7746780     0.1720620
  H       -0.5683120     2.0807040    -0.2404560
  H        1.6730390     2.5885970    -0.3025930
  H        3.9969070     1.7590030    -0.0564670
  H       -2.6877930     2.2355590     0.4578160
  H       -1.0395640    -1.5738120    -0.6782690
  H        2.3962560    -2.2212150     0.2333330
  H        5.4095350    -0.6367030    -0.6119800
  H        5.2936270    -0.4518060     1.1412500
  H        4.7686350    -1.9575490     0.3752240
  H       -4.9184630     1.2095470     0.7042290
  H       -3.2707080    -2.6065070    -0.4021260
  H       -5.2268190    -1.2338160     0.2940590
units angstrom
no_reorient  #important for SAPT in psi4, default
symmetry c1  #important for SAPT in psi4, default
}

set PROPERTIES_ORIGIN ["COM"]
properties('MP2/aug-cc-pvtz', properties = ['dipole'])
--------------------------------------------------------------------------

    Molecular point group: c1
  Charge       = 0
  Multiplicity = 1
  Basis Set: AUG-CC-PVTZ
    Blend: AUG-CC-PVTZ
  Basis Set: (AUG-CC-PVTZ AUX)
    Blend: AUG-CC-PVTZ-JKFIT

    Orbital Energies [Eh]
    ---------------------

    Doubly Occupied:

       1A    -15.585105     2A    -15.550931     3A    -11.320040
       4A    -11.279481     5A    -11.270877     6A    -11.256462
       7A    -11.236079     8A    -11.235429     9A    -11.232770
      10A    -11.232565    11A    -11.231369    12A    -11.227366
      13A    -11.224036    14A    -11.216169    15A     -1.285920
      16A     -1.212942    17A     -1.137924    18A     -1.094694
      19A     -1.042619    20A     -1.013491    21A     -0.995291
      22A     -0.932580    23A     -0.865202    24A     -0.839393
      25A     -0.823576    26A     -0.797416    27A     -0.719881
      28A     -0.713216    29A     -0.670298    30A     -0.649835
      31A     -0.634581    32A     -0.622074    33A     -0.599292
      34A     -0.590951    35A     -0.587154    36A     -0.581333
      37A     -0.566623    38A     -0.560437    39A     -0.545126
      40A     -0.517625    41A     -0.511508    42A     -0.503591
      43A     -0.493420    44A     -0.452159    45A     -0.412046
      46A     -0.379464    47A     -0.336814    48A     -0.333775
      49A     -0.279374

  @DF-RHF Final Energy:  -570.49655164183719

   => Energetics <=

    Nuclear Repulsion Energy =            790.7825802562161925
    One-Electron Energy =               -2341.7576581534544857
    Two-Electron Energy =                 980.4785262554012206
    Total Energy =                       -570.4965516418371863
  Basis Set: (AUG-CC-PVTZ AUX)
    Blend: AUG-CC-PVTZ-RI
    Molecular point group: c1

    Geometry (in Angstrom), charge = 0, multiplicity = 1:

       Center              X                  Y                   Z               Mass
    ------------   -----------------  -----------------  -----------------  -----------------
         N           -0.458112641265     1.070583479803    -0.311376988999    14.003074004430
         N            1.041888358735    -0.720211520197    -0.008309988999    14.003074004430
         C           -1.705898641265     0.357086279803    -0.120941888999    12.000000000000
         C            0.838212358735     0.596350479803    -0.150070988999    12.000000000000
         C            3.435918358735    -0.319779520197     0.117424011001    12.000000000000
         C            1.902172358735     1.523205479803    -0.175524988999    12.000000000000
         C            3.197459358735     1.055218479803    -0.038501988999    12.000000000000
         C           -2.785462641265     1.170541479803     0.262786011001    12.000000000000
         C           -1.853347641265    -0.973054520197    -0.375096988999    12.000000000000
         C            2.313667358735    -1.144893520197     0.122015011001    12.000000000000
         C            4.826395358735    -0.871978520197     0.267142011001    12.000000000000
         C           -4.042192641265     0.589206479803     0.409919011001    12.000000000000
         C           -3.115029641265    -1.544622520197    -0.205044988999    12.000000000000
         C           -4.215995641265    -0.776470520197     0.177102011001    12.000000000000
         H           -0.535019641265     2.078911479803    -0.235415988999     1.007825032230
         H            1.706331358735     2.586804479803    -0.297552988999     1.007825032230
         H            4.030199358735     1.757210479803    -0.051426988999     1.007825032230
         H           -2.654500641265     2.233766479803     0.462856011001     1.007825032230
         H           -1.006271641265    -1.575604520197    -0.673228988999     1.007825032230
         H            2.429548358735    -2.223007520197     0.238373011001     1.007825032230
         H            5.442827358735    -0.638495520197    -0.606939988999     1.007825032230
         H            5.326919358735    -0.453598520197     1.146290011001     1.007825032230
         H            4.801927358735    -1.959341520197     0.380264011001     1.007825032230
         H           -4.885170641265     1.207754479803     0.709269011001     1.007825032230
         H           -3.237415641265    -2.608299520197    -0.397085988999     1.007825032230
         H           -5.193526641265    -1.235608520197     0.299099011001     1.007825032230

  Basis Set: AUG-CC-PVTZ
    Blend: AUG-CC-PVTZ
  Basis Set: (AUG-CC-PVTZ AUX)
    Blend: AUG-CC-PVTZ-JKFIT
	 Reference Energy          =    -570.4965516418371863 [Eh]
	 Singles Energy            =      -0.0000000000000000 [Eh]
	 Same-Spin Energy          =      -0.6360382120678786 [Eh]
	 Opposite-Spin Energy      =      -1.9706112619390437 [Eh]
	 Correlation Energy        =      -2.6066494740069222 [Eh]
	 Total Energy              =    -573.1032011158440582 [Eh]

	 ================> DF-SCS-MP2 Energies <==================
	-----------------------------------------------------------
	 SCS Same-Spin Scale       =       0.3333333333333333 [-]
	 SCS Opposite-Spin Scale   =       1.2000000000000000 [-]
	 SCS Same-Spin Energy      =      -0.2120127373559595 [Eh]
	 SCS Opposite-Spin Energy  =      -2.3647335143268524 [Eh]
	 SCS Correlation Energy    =      -2.5767462516828119 [Eh]
	 SCS Total Energy          =    -573.0732978935200208 [Eh]
	-----------------------------------------------------------

  Dipole Moment: [D]
     X:     1.4834      Y:     1.7811      Z:     0.1848     Total:     2.3252

*** Psi4 exiting successfully. Buy a developer a beer!
