                               Psi4 1.4a3.dev225

  ==> Input File <==

--------------------------------------------------------------------------
#psi4
#
memory 32 gb

molecule  {
0 1
  N       -0.4914050     1.0723760    -0.3164170
  N        1.0085960    -0.7184190    -0.0133500
  C       -1.7100270     0.3982770    -0.1243180
  C        0.8049200     0.5981430    -0.1551110
  C        3.4026260    -0.3179870     0.1123840
  C        1.8688800     1.5249980    -0.1805650
  C        3.1641670     1.0570110    -0.0435420
  C       -2.8187550     1.1723340     0.2577460
  C       -1.9117918    -1.1663008    -0.4165687
  C        2.2803750    -1.1431010     0.1169750
  C        4.7931030    -0.8701860     0.2621020
  C       -4.0754850     0.5909990     0.4048790
  C       -3.1483220    -1.5428300    -0.2100850
  C       -4.2492880    -0.7746780     0.1720620
  H       -0.5683120     2.0807040    -0.2404560
  H        1.6730390     2.5885970    -0.3025930
  H        3.9969070     1.7590030    -0.0564670
  H       -2.6877930     2.2355590     0.4578160
  H       -1.0395640    -1.5738120    -0.6782690
  H        2.3962560    -2.2212150     0.2333330
  H        5.4095350    -0.6367030    -0.6119800
  H        5.2936270    -0.4518060     1.1412500
  H        4.7686350    -1.9575490     0.3752240
  H       -4.9184630     1.2095470     0.7042290
  H       -3.2707080    -2.6065070    -0.4021260
  H       -5.2268190    -1.2338160     0.2940590
units angstrom
no_reorient  #important for SAPT in psi4, default
symmetry c1  #important for SAPT in psi4, default
}

set PROPERTIES_ORIGIN ["COM"]
properties('MP2/aug-cc-pvtz', properties = ['dipole'])
--------------------------------------------------------------------------

    Molecular point group: c1
  Charge       = 0
  Multiplicity = 1
  Basis Set: AUG-CC-PVTZ
    Blend: AUG-CC-PVTZ
  Basis Set: (AUG-CC-PVTZ AUX)
    Blend: AUG-CC-PVTZ-JKFIT

    Orbital Energies [Eh]
    ---------------------

    Doubly Occupied:

       1A    -15.593927     2A    -15.557135     3A    -11.325158
       4A    -11.296609     5A    -11.275090     6A    -11.260446
       7A    -11.241029     8A    -11.237508     9A    -11.234987
      10A    -11.230405    11A    -11.225059    12A    -11.223124
      13A    -11.220676    14A    -11.218454    15A     -1.294493
      16A     -1.220077    17A     -1.128925    18A     -1.099082
      19A     -1.047414    20A     -1.021251    21A     -0.981473
      22A     -0.934437    23A     -0.871814    24A     -0.844408
      25A     -0.812094    26A     -0.800855    27A     -0.726902
      28A     -0.710234    29A     -0.687094    30A     -0.653974
      31A     -0.641479    32A     -0.628542    33A     -0.599235
      34A     -0.592119    35A     -0.587044    36A     -0.576276
      37A     -0.568451    38A     -0.562446    39A     -0.548351
      40A     -0.526199    41A     -0.515469    42A     -0.503150
      43A     -0.462350    44A     -0.448839    45A     -0.420524
      46A     -0.383718    47A     -0.350454    48A     -0.326849
      49A     -0.268368

  @DF-RHF Final Energy:  -570.45819770449498

   => Energetics <=

    Nuclear Repulsion Energy =            788.1689685072135489
    One-Electron Energy =               -2336.2863401694580716
    Two-Electron Energy =                 977.6591739577495446
    Total Energy =                       -570.4581977044949781
  Basis Set: (AUG-CC-PVTZ AUX)
    Blend: AUG-CC-PVTZ-RI
    Molecular point group: c1

    Geometry (in Angstrom), charge = 0, multiplicity = 1:

       Center              X                  Y                   Z               Mass
    ------------   -----------------  -----------------  -----------------  -----------------
         N           -0.458374164282     1.080728437484    -0.309110756026    14.003074004430
         N            1.041626835718    -0.710066562516    -0.006043756026    14.003074004430
         C           -1.676996164282     0.406629437484    -0.117011756026    12.000000000000
         C            0.837950835718     0.606495437484    -0.147804756026    12.000000000000
         C            3.435656835718    -0.309634562516     0.119690243974    12.000000000000
         C            1.901910835718     1.533350437484    -0.173258756026    12.000000000000
         C            3.197197835718     1.065363437484    -0.036235756026    12.000000000000
         C           -2.785724164282     1.180686437484     0.265052243974    12.000000000000
         C           -1.878760964282    -1.157948362516    -0.409262456026    12.000000000000
         C            2.313405835718    -1.134748562516     0.124281243974    12.000000000000
         C            4.826133835718    -0.861833562516     0.269408243974    12.000000000000
         C           -4.042454164282     0.599351437484     0.412185243974    12.000000000000
         C           -3.115291164282    -1.534477562516    -0.202778756026    12.000000000000
         C           -4.216257164282    -0.766325562516     0.179368243974    12.000000000000
         H           -0.535281164282     2.089056437484    -0.233149756026     1.007825032230
         H            1.706069835718     2.596949437484    -0.295286756026     1.007825032230
         H            4.029937835718     1.767355437484    -0.049160756026     1.007825032230
         H           -2.654762164282     2.243911437484     0.465122243974     1.007825032230
         H           -1.006533164282    -1.565459562516    -0.670962756026     1.007825032230
         H            2.429286835718    -2.212862562516     0.240639243974     1.007825032230
         H            5.442565835718    -0.628350562516    -0.604673756026     1.007825032230
         H            5.326657835718    -0.443453562516     1.148556243974     1.007825032230
         H            4.801665835718    -1.949196562516     0.382530243974     1.007825032230
         H           -4.885432164282     1.217899437484     0.711535243974     1.007825032230
         H           -3.237677164282    -2.598154562516    -0.394819756026     1.007825032230
         H           -5.193788164282    -1.225463562516     0.301365243974     1.007825032230

  Basis Set: AUG-CC-PVTZ
    Blend: AUG-CC-PVTZ
  Basis Set: (AUG-CC-PVTZ AUX)
    Blend: AUG-CC-PVTZ-JKFIT
	 Reference Energy          =    -570.4581977044949781 [Eh]
	 Singles Energy            =      -0.0000000000000000 [Eh]
	 Same-Spin Energy          =      -0.6359626154648611 [Eh]
	 Opposite-Spin Energy      =      -1.9729293009093423 [Eh]
	 Correlation Energy        =      -2.6088919163742035 [Eh]
	 Total Energy              =    -573.0670896208691829 [Eh]

	 ================> DF-SCS-MP2 Energies <==================
	-----------------------------------------------------------
	 SCS Same-Spin Scale       =       0.3333333333333333 [-]
	 SCS Opposite-Spin Scale   =       1.2000000000000000 [-]
	 SCS Same-Spin Energy      =      -0.2119875384882870 [Eh]
	 SCS Opposite-Spin Energy  =      -2.3675151610912106 [Eh]
	 SCS Correlation Energy    =      -2.5795026995794976 [Eh]
	 SCS Total Energy          =    -573.0377004040744850 [Eh]
	-----------------------------------------------------------

  Dipole Moment: [D]
     X:     2.1161      Y:     1.9145      Z:     0.1380     Total:     2.8569

*** Psi4 exiting successfully. Buy a developer a beer!
