                               Psi4 1.4a3.dev225

  ==> Input File <==

--------------------------------------------------------------------------
#psi4
#
memory 32 gb

molecule  {
0 1
  N       -0.4914050     1.0723760    -0.3164170
  N        1.0085960    -0.7184190    -0.0133500
  C       -1.6557854     0.4798534    -0.1195964
  C        0.8049200     0.5981430    -0.1551110
  C        3.4026260    -0.3179870     0.1123840
  C        1.8688800     1.5249980    -0.1805650
  C        3.1641670     1.0570110    -0.0435420
  C       -2.8187550     1.1723340     0.2577460
  C       -1.8866400    -0.9712620    -0.3801370
  C        2.2803750    -1.1431010     0.1169750
  C        4.7931030    -0.8701860     0.2621020
  C       -4.0754850     0.5909990     0.4048790
  C       -3.1483220    -1.5428300    -0.2100850
  C       -4.2492880    -0.7746780     0.1720620
  H       -0.5683120     2.0807040    -0.2404560
  H        1.6730390     2.5885970    -0.3025930
  H        3.9969070     1.7590030    -0.0564670
  H       -2.6877930     2.2355590     0.4578160
  H       -1.0395640    -1.5738120    -0.6782690
  H        2.3962560    -2.2212150     0.2333330
  H        5.4095350    -0.6367030    -0.6119800
  H        5.2936270    -0.4518060     1.1412500
  H        4.7686350    -1.9575490     0.3752240
  H       -4.9184630     1.2095470     0.7042290
  H       -3.2707080    -2.6065070    -0.4021260
  H       -5.2268190    -1.2338160     0.2940590
units angstrom
no_reorient  #important for SAPT in psi4, default
symmetry c1  #important for SAPT in psi4, default
}

set PROPERTIES_ORIGIN ["COM"]
properties('MP2/aug-cc-pvtz', properties = ['dipole'])
--------------------------------------------------------------------------

    Molecular point group: c1
  Charge       = 0
  Multiplicity = 1
  Basis Set: AUG-CC-PVTZ
    Blend: AUG-CC-PVTZ
  Basis Set: (AUG-CC-PVTZ AUX)
    Blend: AUG-CC-PVTZ-JKFIT

    Orbital Energies [Eh]
    ---------------------

    Doubly Occupied:

       1A    -15.596833     2A    -15.559771     3A    -11.329159
       4A    -11.284198     5A    -11.276833     6A    -11.262636
       7A    -11.244826     8A    -11.240801     9A    -11.232294
      10A    -11.230490    11A    -11.225904    12A    -11.222871
      13A    -11.221734    14A    -11.215552    15A     -1.312100
      16A     -1.235351    17A     -1.122940    18A     -1.101758
      19A     -1.053606    20A     -1.001604    21A     -0.986281
      22A     -0.938960    23A     -0.875835    24A     -0.847862
      25A     -0.815848    26A     -0.799261    27A     -0.732313
      28A     -0.720936    29A     -0.669664    30A     -0.660596
      31A     -0.642908    32A     -0.621898    33A     -0.603080
      34A     -0.594638    35A     -0.584946    36A     -0.575437
      37A     -0.572414    38A     -0.563827    39A     -0.550298
      40A     -0.522439    41A     -0.512616    42A     -0.505416
      43A     -0.471153    44A     -0.454414    45A     -0.418951
      46A     -0.385533    47A     -0.339462    48A     -0.324389
      49A     -0.269200

  @DF-RHF Final Energy:  -570.48512444345045

   => Energetics <=

    Nuclear Repulsion Energy =            790.8296789558672799
    One-Electron Energy =               -2341.5659270829305569
    Two-Electron Energy =                 980.2511236836129456
    Total Energy =                       -570.4851244434504451
  Basis Set: (AUG-CC-PVTZ AUX)
    Blend: AUG-CC-PVTZ-RI
    Molecular point group: c1

    Geometry (in Angstrom), charge = 0, multiplicity = 1:

       Center              X                  Y                   Z               Mass
    ------------   -----------------  -----------------  -----------------  -----------------
         N           -0.463549180846     1.062698119573    -0.311793208335    14.003074004430
         N            1.036451819154    -0.728096880427    -0.008726208335    14.003074004430
         C           -1.627929580846     0.470175519573    -0.114972608335    12.000000000000
         C            0.832775819154     0.588465119573    -0.150487208335    12.000000000000
         C            3.430481819154    -0.327664880427     0.117007791665    12.000000000000
         C            1.896735819154     1.515320119573    -0.175941208335    12.000000000000
         C            3.192022819154     1.047333119573    -0.038918208335    12.000000000000
         C           -2.790899180846     1.162656119573     0.262369791665    12.000000000000
         C           -1.858784180846    -0.980939880427    -0.375513208335    12.000000000000
         C            2.308230819154    -1.152778880427     0.121598791665    12.000000000000
         C            4.820958819154    -0.879863880427     0.266725791665    12.000000000000
         C           -4.047629180846     0.581321119573     0.409502791665    12.000000000000
         C           -3.120466180846    -1.552507880427    -0.205461208335    12.000000000000
         C           -4.221432180846    -0.784355880427     0.176685791665    12.000000000000
         H           -0.540456180846     2.071026119573    -0.235832208335     1.007825032230
         H            1.700894819154     2.578919119573    -0.297969208335     1.007825032230
         H            4.024762819154     1.749325119573    -0.051843208335     1.007825032230
         H           -2.659937180846     2.225881119573     0.462439791665     1.007825032230
         H           -1.011708180846    -1.583489880427    -0.673645208335     1.007825032230
         H            2.424111819154    -2.230892880427     0.237956791665     1.007825032230
         H            5.437390819154    -0.646380880427    -0.607356208335     1.007825032230
         H            5.321482819154    -0.461483880427     1.145873791665     1.007825032230
         H            4.796490819154    -1.967226880427     0.379847791665     1.007825032230
         H           -4.890607180846     1.199869119573     0.708852791665     1.007825032230
         H           -3.242852180846    -2.616184880427    -0.397502208335     1.007825032230
         H           -5.198963180846    -1.243493880427     0.298682791665     1.007825032230

  Basis Set: AUG-CC-PVTZ
    Blend: AUG-CC-PVTZ
  Basis Set: (AUG-CC-PVTZ AUX)
    Blend: AUG-CC-PVTZ-JKFIT
	 Reference Energy          =    -570.4851244434504451 [Eh]
	 Singles Energy            =      -0.0000000000000000 [Eh]
	 Same-Spin Energy          =      -0.6374628738650224 [Eh]
	 Opposite-Spin Energy      =      -1.9724188369951230 [Eh]
	 Correlation Energy        =      -2.6098817108601455 [Eh]
	 Total Energy              =    -573.0950061543105676 [Eh]

	 ================> DF-SCS-MP2 Energies <==================
	-----------------------------------------------------------
	 SCS Same-Spin Scale       =       0.3333333333333333 [-]
	 SCS Opposite-Spin Scale   =       1.2000000000000000 [-]
	 SCS Same-Spin Energy      =      -0.2124876246216741 [Eh]
	 SCS Opposite-Spin Energy  =      -2.3669026043941477 [Eh]
	 SCS Correlation Energy    =      -2.5793902290158219 [Eh]
	 SCS Total Energy          =    -573.0645146724663164 [Eh]
	-----------------------------------------------------------

  Dipole Moment: [D]
     X:     2.6693      Y:     1.9850      Z:     0.1152     Total:     3.3284

*** Psi4 exiting successfully. Buy a developer a beer!
