                               Psi4 1.4a3.dev225

  ==> Input File <==

--------------------------------------------------------------------------
#psi4
#
memory 32 gb

molecule  {
0 1
  N       -0.4914050     1.0723760    -0.3164170
  N        1.0085960    -0.7184190    -0.0133500
  C       -1.7100270     0.3982770    -0.1243180
  C        0.8049200     0.5981430    -0.1551110
  C        3.4026260    -0.3179870     0.1123840
  C        1.8688800     1.5249980    -0.1805650
  C        3.1401080     1.0524888    -0.0447004
  C       -2.8187550     1.1723340     0.2577460
  C       -1.8866400    -0.9712620    -0.3801370
  C        2.2803750    -1.1431010     0.1169750
  C        4.7931030    -0.8701860     0.2621020
  C       -4.0754850     0.5909990     0.4048790
  C       -3.1483220    -1.5428300    -0.2100850
  C       -4.2492880    -0.7746780     0.1720620
  H       -0.5683120     2.0807040    -0.2404560
  H        1.6730390     2.5885970    -0.3025930
  H        3.9969070     1.7590030    -0.0564670
  H       -2.6877930     2.2355590     0.4578160
  H       -1.0395640    -1.5738120    -0.6782690
  H        2.3962560    -2.2212150     0.2333330
  H        5.4095350    -0.6367030    -0.6119800
  H        5.2936270    -0.4518060     1.1412500
  H        4.7686350    -1.9575490     0.3752240
  H       -4.9184630     1.2095470     0.7042290
  H       -3.2707080    -2.6065070    -0.4021260
  H       -5.2268190    -1.2338160     0.2940590
units angstrom
no_reorient  #important for SAPT in psi4, default
symmetry c1  #important for SAPT in psi4, default
}

set PROPERTIES_ORIGIN ["COM"]
properties('MP2/aug-cc-pvtz', properties = ['dipole'])
--------------------------------------------------------------------------

    Molecular point group: c1
  Charge       = 0
  Multiplicity = 1
  Basis Set: AUG-CC-PVTZ
    Blend: AUG-CC-PVTZ
  Basis Set: (AUG-CC-PVTZ AUX)
    Blend: AUG-CC-PVTZ-JKFIT

    Orbital Energies [Eh]
    ---------------------

    Doubly Occupied:

       1A    -15.589633     2A    -15.552929     3A    -11.323337
       4A    -11.281080     5A    -11.271968     6A    -11.257441
       7A    -11.236940     8A    -11.234538     9A    -11.233880
      10A    -11.230434    11A    -11.229272    12A    -11.228828
      13A    -11.221652    14A    -11.218598    15A     -1.293545
      16A     -1.220506    17A     -1.132974    18A     -1.098052
      19A     -1.047746    20A     -1.008214    21A     -0.994076
      22A     -0.935002    23A     -0.866565    24A     -0.842244
      25A     -0.821658    26A     -0.797186    27A     -0.722608
      28A     -0.716136    29A     -0.671286    30A     -0.653497
      31A     -0.639088    32A     -0.620099    33A     -0.594754
      34A     -0.593551    35A     -0.588517    36A     -0.579610
      37A     -0.569139    38A     -0.558731    39A     -0.546590
      40A     -0.521209    41A     -0.511582    42A     -0.504674
      43A     -0.487445    44A     -0.454426    45A     -0.413250
      46A     -0.384085    47A     -0.336495    48A     -0.330563
      49A     -0.277221

  @DF-RHF Final Energy:  -570.49862559580572

   => Energetics <=

    Nuclear Repulsion Energy =            791.1981943365964298
    One-Electron Energy =               -2342.5079326244849653
    Two-Electron Energy =                 980.8111126920829292
    Total Energy =                       -570.4986255958057200
  Basis Set: (AUG-CC-PVTZ AUX)
    Blend: AUG-CC-PVTZ-RI
    Molecular point group: c1

    Geometry (in Angstrom), charge = 0, multiplicity = 1:

       Center              X                  Y                   Z               Mass
    ------------   -----------------  -----------------  -----------------  -----------------
         N           -0.458445395116     1.068310194143    -0.311409938474    14.003074004430
         N            1.041555604884    -0.722484805857    -0.008342938474    14.003074004430
         C           -1.677067395116     0.394211194143    -0.119310938474    12.000000000000
         C            0.837879604884     0.594077194143    -0.150103938474    12.000000000000
         C            3.435585604884    -0.322052805857     0.117391061526    12.000000000000
         C            1.901839604884     1.520932194143    -0.175557938474    12.000000000000
         C            3.173067604884     1.048422994143    -0.039693338474    12.000000000000
         C           -2.785795395116     1.168268194143     0.262753061526    12.000000000000
         C           -1.853680395116    -0.975327805857    -0.375129938474    12.000000000000
         C            2.313334604884    -1.147166805857     0.121982061526    12.000000000000
         C            4.826062604884    -0.874251805857     0.267109061526    12.000000000000
         C           -4.042525395116     0.586933194143     0.409886061526    12.000000000000
         C           -3.115362395116    -1.546895805857    -0.205077938474    12.000000000000
         C           -4.216328395116    -0.778743805857     0.177069061526    12.000000000000
         H           -0.535352395116     2.076638194143    -0.235448938474     1.007825032230
         H            1.705998604884     2.584531194143    -0.297585938474     1.007825032230
         H            4.029866604884     1.754937194143    -0.051459938474     1.007825032230
         H           -2.654833395116     2.231493194143     0.462823061526     1.007825032230
         H           -1.006604395116    -1.577877805857    -0.673261938474     1.007825032230
         H            2.429215604884    -2.225280805857     0.238340061526     1.007825032230
         H            5.442494604884    -0.640768805857    -0.606972938474     1.007825032230
         H            5.326586604884    -0.455871805857     1.146257061526     1.007825032230
         H            4.801594604884    -1.961614805857     0.380231061526     1.007825032230
         H           -4.885503395116     1.205481194143     0.709236061526     1.007825032230
         H           -3.237748395116    -2.610572805857    -0.397118938474     1.007825032230
         H           -5.193859395116    -1.237881805857     0.299066061526     1.007825032230

  Basis Set: AUG-CC-PVTZ
    Blend: AUG-CC-PVTZ
  Basis Set: (AUG-CC-PVTZ AUX)
    Blend: AUG-CC-PVTZ-JKFIT
	 Reference Energy          =    -570.4986255958057200 [Eh]
	 Singles Energy            =      -0.0000000000000000 [Eh]
	 Same-Spin Energy          =      -0.6362988635850674 [Eh]
	 Opposite-Spin Energy      =      -1.9706763606728857 [Eh]
	 Correlation Energy        =      -2.6069752242579529 [Eh]
	 Total Energy              =    -573.1056008200637280 [Eh]

	 ================> DF-SCS-MP2 Energies <==================
	-----------------------------------------------------------
	 SCS Same-Spin Scale       =       0.3333333333333333 [-]
	 SCS Opposite-Spin Scale   =       1.2000000000000000 [-]
	 SCS Same-Spin Energy      =      -0.2120996211950225 [Eh]
	 SCS Opposite-Spin Energy  =      -2.3648116328074629 [Eh]
	 SCS Correlation Energy    =      -2.5769112540024852 [Eh]
	 SCS Total Energy          =    -573.0755368498082589 [Eh]
	-----------------------------------------------------------

  Dipole Moment: [D]
     X:     1.8440      Y:     1.8509      Z:     0.1620     Total:     2.6177

*** Psi4 exiting successfully. Buy a developer a beer!
