                               Psi4 1.4a3.dev225

  ==> Input File <==

--------------------------------------------------------------------------
#psi4
#
memory 32 gb

molecule  {
0 1
  N       -0.4914050     1.0723760    -0.3164170
  N        1.0085960    -0.7184190    -0.0133500
  C       -1.7100270     0.3982770    -0.1243180
  C        0.8049200     0.5981430    -0.1551110
  C        3.4026260    -0.3179870     0.1123840
  C        1.8688800     1.5249980    -0.1805650
  C        3.1641670     1.0570110    -0.0435420
  C       -2.8187550     1.1723340     0.2577460
  C       -1.8866400    -0.9712620    -0.3801370
  C        2.2803750    -1.1431010     0.1169750
  C        4.7931030    -0.8701860     0.2621020
  C       -4.0754850     0.5909990     0.4048790
  C       -3.1483220    -1.5428300    -0.2100850
  C       -4.2492880    -0.7746780     0.1720620
  H       -0.5683120     2.0807040    -0.2404560
  H        1.6730390     2.5885970    -0.3025930
  H        3.9969070     1.7590030    -0.0564670
  H       -2.6877930     2.2355590     0.4578160
  H       -1.0395640    -1.5738120    -0.6782690
  H        2.3962560    -2.2212150     0.2333330
  H        5.4095350    -0.6367030    -0.6119800
  H        5.2936270    -0.4518060     1.1412500
  H        4.7675162    -2.0072682     0.3803964
  H       -4.9184630     1.2095470     0.7042290
  H       -3.2707080    -2.6065070    -0.4021260
  H       -5.2268190    -1.2338160     0.2940590
units angstrom
no_reorient  #important for SAPT in psi4, default
symmetry c1  #important for SAPT in psi4, default
}

set PROPERTIES_ORIGIN ["COM"]
properties('MP2/aug-cc-pvtz', properties = ['dipole'])
--------------------------------------------------------------------------

    Molecular point group: c1
  Charge       = 0
  Multiplicity = 1
  Basis Set: AUG-CC-PVTZ
    Blend: AUG-CC-PVTZ
  Basis Set: (AUG-CC-PVTZ AUX)
    Blend: AUG-CC-PVTZ-JKFIT

    Orbital Energies [Eh]
    ---------------------

    Doubly Occupied:

       1A    -15.589242     2A    -15.553842     3A    -11.323163
       4A    -11.281008     5A    -11.272901     6A    -11.258844
       7A    -11.239054     8A    -11.235845     9A    -11.234793
      10A    -11.233784    11A    -11.230357    12A    -11.228661
      13A    -11.221501    14A    -11.218478    15A     -1.293256
      16A     -1.220242    17A     -1.132857    18A     -1.096911
      19A     -1.045580    20A     -1.008084    21A     -0.992494
      22A     -0.932597    23A     -0.868576    24A     -0.840569
      25A     -0.821038    26A     -0.798011    27A     -0.723768
      28A     -0.715496    29A     -0.670280    30A     -0.653433
      31A     -0.636039    32A     -0.621336    33A     -0.595741
      34A     -0.593365    35A     -0.588767    36A     -0.579663
      37A     -0.569741    38A     -0.562594    39A     -0.541056
      40A     -0.517368    41A     -0.510671    42A     -0.503924
      43A     -0.487405    44A     -0.454230    45A     -0.414508
      46A     -0.381645    47A     -0.336707    48A     -0.330550
      49A     -0.277048

  @DF-RHF Final Energy:  -570.49678356459174

   => Energetics <=

    Nuclear Repulsion Energy =            790.5598880577643968
    One-Electron Energy =               -2341.2393040488386760
    Two-Electron Energy =                 980.1826324264824279
    Total Energy =                       -570.4967835645917376
  Basis Set: (AUG-CC-PVTZ AUX)
    Blend: AUG-CC-PVTZ-RI
    Molecular point group: c1

    Geometry (in Angstrom), charge = 0, multiplicity = 1:

       Center              X                  Y                   Z               Mass
    ------------   -----------------  -----------------  -----------------  -----------------
         N           -0.460007482947     1.068287607807    -0.311513760686    14.003074004430
         N            1.039993517053    -0.722507392193    -0.008446760686    14.003074004430
         C           -1.678629482947     0.394188607807    -0.119414760686    12.000000000000
         C            0.836317517053     0.594054607807    -0.150207760686    12.000000000000
         C            3.434023517053    -0.322075392193     0.117287239314    12.000000000000
         C            1.900277517053     1.520909607807    -0.175661760686    12.000000000000
         C            3.195564517053     1.052922607807    -0.038638760686    12.000000000000
         C           -2.787357482947     1.168245607807     0.262649239314    12.000000000000
         C           -1.855242482947    -0.975350392193    -0.375233760686    12.000000000000
         C            2.311772517053    -1.147189392193     0.121878239314    12.000000000000
         C            4.824500517053    -0.874274392193     0.267005239314    12.000000000000
         C           -4.044087482947     0.586910607807     0.409782239314    12.000000000000
         C           -3.116924482947    -1.546918392193    -0.205181760686    12.000000000000
         C           -4.217890482947    -0.778766392193     0.176965239314    12.000000000000
         H           -0.536914482947     2.076615607807    -0.235552760686     1.007825032230
         H            1.704436517053     2.584508607807    -0.297689760686     1.007825032230
         H            4.028304517053     1.754914607807    -0.051563760686     1.007825032230
         H           -2.656395482947     2.231470607807     0.462719239314     1.007825032230
         H           -1.008166482947    -1.577900392193    -0.673365760686     1.007825032230
         H            2.427653517053    -2.225303392193     0.238236239314     1.007825032230
         H            5.440932517053    -0.640791392193    -0.607076760686     1.007825032230
         H            5.325024517053    -0.455894392193     1.146153239314     1.007825032230
         H            4.798913717053    -2.011356592193     0.385299639314     1.007825032230
         H           -4.887065482947     1.205458607807     0.709132239314     1.007825032230
         H           -3.239310482947    -2.610595392193    -0.397222760686     1.007825032230
         H           -5.195421482947    -1.237904392193     0.298962239314     1.007825032230

  Basis Set: AUG-CC-PVTZ
    Blend: AUG-CC-PVTZ
  Basis Set: (AUG-CC-PVTZ AUX)
    Blend: AUG-CC-PVTZ-JKFIT
	 Reference Energy          =    -570.4967835645917376 [Eh]
	 Singles Energy            =      -0.0000000000000000 [Eh]
	 Same-Spin Energy          =      -0.6364298657194184 [Eh]
	 Opposite-Spin Energy      =      -1.9712661425078466 [Eh]
	 Correlation Energy        =      -2.6076960082272649 [Eh]
	 Total Energy              =    -573.1044795728189456 [Eh]

	 ================> DF-SCS-MP2 Energies <==================
	-----------------------------------------------------------
	 SCS Same-Spin Scale       =       0.3333333333333333 [-]
	 SCS Opposite-Spin Scale   =       1.2000000000000000 [-]
	 SCS Same-Spin Energy      =      -0.2121432885731395 [Eh]
	 SCS Opposite-Spin Energy  =      -2.3655193710094160 [Eh]
	 SCS Correlation Energy    =      -2.5776626595825554 [Eh]
	 SCS Total Energy          =    -573.0744462241742667 [Eh]
	-----------------------------------------------------------

  Dipole Moment: [D]
     X:     1.8532      Y:     1.8801      Z:     0.1594     Total:     2.6448

*** Psi4 exiting successfully. Buy a developer a beer!
