                               Psi4 1.4a3.dev225

  ==> Input File <==

--------------------------------------------------------------------------
#psi4
#
memory 32 gb

molecule  {
0 1
  N       -0.5629946     1.1958945    -0.2807600
  N        1.0085960    -0.7184190    -0.0133500
  C       -1.7100270     0.3982770    -0.1243180
  C        0.8049200     0.5981430    -0.1551110
  C        3.4026260    -0.3179870     0.1123840
  C        1.8688800     1.5249980    -0.1805650
  C        3.1641670     1.0570110    -0.0435420
  C       -2.8187550     1.1723340     0.2577460
  C       -1.8866400    -0.9712620    -0.3801370
  C        2.2803750    -1.1431010     0.1169750
  C        4.7931030    -0.8701860     0.2621020
  C       -4.0754850     0.5909990     0.4048790
  C       -3.1483220    -1.5428300    -0.2100850
  C       -4.2492880    -0.7746780     0.1720620
  H       -0.5683120     2.0807040    -0.2404560
  H        1.6730390     2.5885970    -0.3025930
  H        3.9969070     1.7590030    -0.0564670
  H       -2.6877930     2.2355590     0.4578160
  H       -1.0395640    -1.5738120    -0.6782690
  H        2.3962560    -2.2212150     0.2333330
  H        5.4095350    -0.6367030    -0.6119800
  H        5.2936270    -0.4518060     1.1412500
  H        4.7686350    -1.9575490     0.3752240
  H       -4.9184630     1.2095470     0.7042290
  H       -3.2707080    -2.6065070    -0.4021260
  H       -5.2268190    -1.2338160     0.2940590
units angstrom
no_reorient  #important for SAPT in psi4, default
symmetry c1  #important for SAPT in psi4, default
}

set PROPERTIES_ORIGIN ["COM"]
properties('MP2/aug-cc-pvtz', properties = ['dipole'])
--------------------------------------------------------------------------

    Molecular point group: c1
  Charge       = 0
  Multiplicity = 1
  Basis Set: AUG-CC-PVTZ
    Blend: AUG-CC-PVTZ
  Basis Set: (AUG-CC-PVTZ AUX)
    Blend: AUG-CC-PVTZ-JKFIT

    Orbital Energies [Eh]
    ---------------------

    Doubly Occupied:

       1A    -15.576153     2A    -15.563970     3A    -11.329924
       4A    -11.278094     5A    -11.277047     6A    -11.261069
       7A    -11.243858     8A    -11.242762     9A    -11.232985
      10A    -11.229221    11A    -11.228711    12A    -11.221257
      13A    -11.217753    14A    -11.217385    15A     -1.283053
      16A     -1.226981    17A     -1.128310    18A     -1.101750
      19A     -1.047750    20A     -1.004619    21A     -0.990445
      22A     -0.942269    23A     -0.868399    24A     -0.837224
      25A     -0.819364    26A     -0.808410    27A     -0.730115
      28A     -0.708309    29A     -0.669648    30A     -0.666484
      31A     -0.638480    32A     -0.621117    33A     -0.599552
      34A     -0.591073    35A     -0.581865    36A     -0.577372
      37A     -0.568574    38A     -0.557580    39A     -0.551033
      40A     -0.522161    41A     -0.512658    42A     -0.500381
      43A     -0.484182    44A     -0.449572    45A     -0.416719
      46A     -0.384586    47A     -0.337255    48A     -0.327894
      49A     -0.279285

  @DF-RHF Final Energy:  -570.46960847256992

   => Energetics <=

    Nuclear Repulsion Energy =            788.9196762684695159
    One-Electron Energy =               -2337.8692510063442569
    Two-Electron Energy =                 978.4799662653047108
    Total Energy =                       -570.4696084725699166
  Basis Set: (AUG-CC-PVTZ AUX)
    Blend: AUG-CC-PVTZ-RI
    Molecular point group: c1

    Geometry (in Angstrom), charge = 0, multiplicity = 1:

       Center              X                  Y                   Z               Mass
    ------------   -----------------  -----------------  -----------------  -----------------
         N           -0.526157937652     1.182138826531    -0.278540598848    14.003074004430
         N            1.045432662348    -0.732174673469    -0.011130598848    14.003074004430
         C           -1.673190337652     0.384521326531    -0.122098598848    12.000000000000
         C            0.841756662348     0.584387326531    -0.152891598848    12.000000000000
         C            3.439462662348    -0.331742673469     0.114603401152    12.000000000000
         C            1.905716662348     1.511242326531    -0.178345598848    12.000000000000
         C            3.201003662348     1.043255326531    -0.041322598848    12.000000000000
         C           -2.781918337652     1.158578326531     0.259965401152    12.000000000000
         C           -1.849803337652    -0.985017673469    -0.377917598848    12.000000000000
         C            2.317211662348    -1.156856673469     0.119194401152    12.000000000000
         C            4.829939662348    -0.883941673469     0.264321401152    12.000000000000
         C           -4.038648337652     0.577243326531     0.407098401152    12.000000000000
         C           -3.111485337652    -1.556585673469    -0.207865598848    12.000000000000
         C           -4.212451337652    -0.788433673469     0.174281401152    12.000000000000
         H           -0.531475337652     2.066948326531    -0.238236598848     1.007825032230
         H            1.709875662348     2.574841326531    -0.300373598848     1.007825032230
         H            4.033743662348     1.745247326531    -0.054247598848     1.007825032230
         H           -2.650956337652     2.221803326531     0.460035401152     1.007825032230
         H           -1.002727337652    -1.587567673469    -0.676049598848     1.007825032230
         H            2.433092662348    -2.234970673469     0.235552401152     1.007825032230
         H            5.446371662348    -0.650458673469    -0.609760598848     1.007825032230
         H            5.330463662348    -0.465561673469     1.143469401152     1.007825032230
         H            4.805471662348    -1.971304673469     0.377443401152     1.007825032230
         H           -4.881626337652     1.195791326531     0.706448401152     1.007825032230
         H           -3.233871337652    -2.620262673469    -0.399906598848     1.007825032230
         H           -5.189982337652    -1.247571673469     0.296278401152     1.007825032230

  Basis Set: AUG-CC-PVTZ
    Blend: AUG-CC-PVTZ
  Basis Set: (AUG-CC-PVTZ AUX)
    Blend: AUG-CC-PVTZ-JKFIT
	 Reference Energy          =    -570.4696084725699166 [Eh]
	 Singles Energy            =      -0.0000000000000000 [Eh]
	 Same-Spin Energy          =      -0.6357991985722611 [Eh]
	 Opposite-Spin Energy      =      -1.9708011993906682 [Eh]
	 Correlation Energy        =      -2.6066003979629295 [Eh]
	 Total Energy              =    -573.0762088705328097 [Eh]

	 ================> DF-SCS-MP2 Energies <==================
	-----------------------------------------------------------
	 SCS Same-Spin Scale       =       0.3333333333333333 [-]
	 SCS Opposite-Spin Scale   =       1.2000000000000000 [-]
	 SCS Same-Spin Energy      =      -0.2119330661907537 [Eh]
	 SCS Opposite-Spin Energy  =      -2.3649614392688019 [Eh]
	 SCS Correlation Energy    =      -2.5768945054595553 [Eh]
	 SCS Total Energy          =    -573.0465029780294799 [Eh]
	-----------------------------------------------------------

  Dipole Moment: [D]
     X:     2.6168      Y:     1.7006      Z:     0.1516     Total:     3.1245

*** Psi4 exiting successfully. Buy a developer a beer!
