                               Psi4 1.4a3.dev225

  ==> Input File <==

--------------------------------------------------------------------------
#psi4
#
memory 32 gb

molecule  {
0 1
  N       -0.4914050     1.0723760    -0.3164170
  N        1.0085960    -0.7184190    -0.0133500
  C       -1.7100270     0.3982770    -0.1243180
  C        0.7862643     0.6049678    -0.1574324
  C        3.4026260    -0.3179870     0.1123840
  C        1.8688800     1.5249980    -0.1805650
  C        3.1641670     1.0570110    -0.0435420
  C       -2.8187550     1.1723340     0.2577460
  C       -1.8866400    -0.9712620    -0.3801370
  C        2.2803750    -1.1431010     0.1169750
  C        4.7931030    -0.8701860     0.2621020
  C       -4.0754850     0.5909990     0.4048790
  C       -3.1483220    -1.5428300    -0.2100850
  C       -4.2492880    -0.7746780     0.1720620
  H       -0.5683120     2.0807040    -0.2404560
  H        1.6730390     2.5885970    -0.3025930
  H        3.9969070     1.7590030    -0.0564670
  H       -2.6877930     2.2355590     0.4578160
  H       -1.0395640    -1.5738120    -0.6782690
  H        2.3962560    -2.2212150     0.2333330
  H        5.4095350    -0.6367030    -0.6119800
  H        5.2936270    -0.4518060     1.1412500
  H        4.7686350    -1.9575490     0.3752240
  H       -4.9184630     1.2095470     0.7042290
  H       -3.2707080    -2.6065070    -0.4021260
  H       -5.2268190    -1.2338160     0.2940590
units angstrom
no_reorient  #important for SAPT in psi4, default
symmetry c1  #important for SAPT in psi4, default
}

set PROPERTIES_ORIGIN ["COM"]
properties('MP2/aug-cc-pvtz', properties = ['dipole'])
--------------------------------------------------------------------------

    Molecular point group: c1
  Charge       = 0
  Multiplicity = 1
  Basis Set: AUG-CC-PVTZ
    Blend: AUG-CC-PVTZ
  Basis Set: (AUG-CC-PVTZ AUX)
    Blend: AUG-CC-PVTZ-JKFIT

    Orbital Energies [Eh]
    ---------------------

    Doubly Occupied:

       1A    -15.592003     2A    -15.552108     3A    -11.323686
       4A    -11.282404     5A    -11.271502     6A    -11.257171
       7A    -11.238234     8A    -11.234894     9A    -11.233291
      10A    -11.231384    11A    -11.230288    12A    -11.227703
      13A    -11.222935    14A    -11.219892    15A     -1.295891
      16A     -1.219477    17A     -1.134896    18A     -1.094375
      19A     -1.044530    20A     -1.009357    21A     -0.994740
      22A     -0.933835    23A     -0.867048    24A     -0.842990
      25A     -0.821851    26A     -0.797850    27A     -0.726304
      28A     -0.717358    29A     -0.671295    30A     -0.651556
      31A     -0.636664    32A     -0.621321    33A     -0.597397
      34A     -0.594305    35A     -0.588723    36A     -0.580572
      37A     -0.570182    38A     -0.561911    39A     -0.545294
      40A     -0.518455    41A     -0.510629    42A     -0.504880
      43A     -0.488515    44A     -0.455843    45A     -0.410837
      46A     -0.379713    47A     -0.336428    48A     -0.331313
      49A     -0.276478

  @DF-RHF Final Energy:  -570.49806986091278

   => Energetics <=

    Nuclear Repulsion Energy =            790.7487338073905221
    One-Electron Energy =               -2341.5929885783939426
    Two-Electron Energy =                 980.3461849100905283
    Total Energy =                       -570.4980698609127785
  Basis Set: (AUG-CC-PVTZ AUX)
    Blend: AUG-CC-PVTZ-RI
    Molecular point group: c1

    Geometry (in Angstrom), charge = 0, multiplicity = 1:

       Center              X                  Y                   Z               Mass
    ------------   -----------------  -----------------  -----------------  -----------------
         N           -0.458797592742     1.067570574566    -0.311334131867    14.003074004430
         N            1.041203407258    -0.723224425434    -0.008267131867    14.003074004430
         C           -1.677419592742     0.393471574566    -0.119235131867    12.000000000000
         C            0.818871707258     0.600162374566    -0.152349531867    12.000000000000
         C            3.435233407258    -0.322792425434     0.117466868133    12.000000000000
         C            1.901487407258     1.520192574566    -0.175482131867    12.000000000000
         C            3.196774407258     1.052205574566    -0.038459131867    12.000000000000
         C           -2.786147592742     1.167528574566     0.262828868133    12.000000000000
         C           -1.854032592742    -0.976067425434    -0.375054131867    12.000000000000
         C            2.312982407258    -1.147906425434     0.122057868133    12.000000000000
         C            4.825710407258    -0.874991425434     0.267184868133    12.000000000000
         C           -4.042877592742     0.586193574566     0.409961868133    12.000000000000
         C           -3.115714592742    -1.547635425434    -0.205002131867    12.000000000000
         C           -4.216680592742    -0.779483425434     0.177144868133    12.000000000000
         H           -0.535704592742     2.075898574566    -0.235373131867     1.007825032230
         H            1.705646407258     2.583791574566    -0.297510131867     1.007825032230
         H            4.029514407258     1.754197574566    -0.051384131867     1.007825032230
         H           -2.655185592742     2.230753574566     0.462898868133     1.007825032230
         H           -1.006956592742    -1.578617425434    -0.673186131867     1.007825032230
         H            2.428863407258    -2.226020425434     0.238415868133     1.007825032230
         H            5.442142407258    -0.641508425434    -0.606897131867     1.007825032230
         H            5.326234407258    -0.456611425434     1.146332868133     1.007825032230
         H            4.801242407258    -1.962354425434     0.380306868133     1.007825032230
         H           -4.885855592742     1.204741574566     0.709311868133     1.007825032230
         H           -3.238100592742    -2.611312425434    -0.397043131867     1.007825032230
         H           -5.194211592742    -1.238621425434     0.299141868133     1.007825032230

  Basis Set: AUG-CC-PVTZ
    Blend: AUG-CC-PVTZ
  Basis Set: (AUG-CC-PVTZ AUX)
    Blend: AUG-CC-PVTZ-JKFIT
	 Reference Energy          =    -570.4980698609127785 [Eh]
	 Singles Energy            =      -0.0000000000000000 [Eh]
	 Same-Spin Energy          =      -0.6365390577387069 [Eh]
	 Opposite-Spin Energy      =      -1.9710703699943251 [Eh]
	 Correlation Energy        =      -2.6076094277330322 [Eh]
	 Total Energy              =    -573.1056792886457742 [Eh]

	 ================> DF-SCS-MP2 Energies <==================
	-----------------------------------------------------------
	 SCS Same-Spin Scale       =       0.3333333333333333 [-]
	 SCS Opposite-Spin Scale   =       1.2000000000000000 [-]
	 SCS Same-Spin Energy      =      -0.2121796859129023 [Eh]
	 SCS Opposite-Spin Energy  =      -2.3652844439931902 [Eh]
	 SCS Correlation Energy    =      -2.5774641299060925 [Eh]
	 SCS Total Energy          =    -573.0755339908188262 [Eh]
	-----------------------------------------------------------

  Dipole Moment: [D]
     X:     1.6293      Y:     1.8780      Z:     0.1484     Total:     2.4907

*** Psi4 exiting successfully. Buy a developer a beer!
