                               Psi4 1.4a3.dev225

  ==> Input File <==

--------------------------------------------------------------------------
#psi4
#
memory 32 gb

molecule  {
0 1
  N       -0.4914050     1.0723760    -0.3164170
  N        1.0085960    -0.7184190    -0.0133500
  C       -1.7100270     0.3982770    -0.1243180
  C        0.8049200     0.5981430    -0.1551110
  C        3.4026260    -0.3179870     0.1123840
  C        1.8688800     1.5249980    -0.1805650
  C        3.1641670     1.0570110    -0.0435420
  C       -2.8187550     1.1723340     0.2577460
  C       -1.8866400    -0.9712620    -0.3801370
  C        2.2803750    -1.1431010     0.1169750
  C        4.7931030    -0.8701860     0.2621020
  C       -4.0754850     0.5909990     0.4048790
  C       -3.1483220    -1.5428300    -0.2100850
  C       -4.2492880    -0.7746780     0.1720620
  H       -0.5683120     2.0807040    -0.2404560
  H        1.6730390     2.5885970    -0.3025930
  H        3.9969070     1.7590030    -0.0564670
  H       -2.6877930     2.2355590     0.4578160
  H       -1.0395640    -1.5738120    -0.6782690
  H        2.3962560    -2.2212150     0.2333330
  H        5.4095350    -0.6367030    -0.6119800
  H        5.2936270    -0.4518060     1.1412500
  H        4.7690825    -1.9376613     0.3731550
  H       -4.9184630     1.2095470     0.7042290
  H       -3.2707080    -2.6065070    -0.4021260
  H       -5.2268190    -1.2338160     0.2940590
units angstrom
no_reorient  #important for SAPT in psi4, default
symmetry c1  #important for SAPT in psi4, default
}

set PROPERTIES_ORIGIN ["COM"]
properties('MP2/aug-cc-pvtz', properties = ['dipole'])
--------------------------------------------------------------------------

    Molecular point group: c1
  Charge       = 0
  Multiplicity = 1
  Basis Set: AUG-CC-PVTZ
    Blend: AUG-CC-PVTZ
  Basis Set: (AUG-CC-PVTZ AUX)
    Blend: AUG-CC-PVTZ-JKFIT

    Orbital Energies [Eh]
    ---------------------

    Doubly Occupied:

       1A    -15.589080     2A    -15.553679     3A    -11.322929
       4A    -11.280915     5A    -11.272729     6A    -11.258295
       7A    -11.238779     8A    -11.235130     9A    -11.233710
      10A    -11.230286    11A    -11.228572    12A    -11.226495
      13A    -11.221424    14A    -11.218390    15A     -1.293075
      16A     -1.220074    17A     -1.132776    18A     -1.096992
      19A     -1.046148    20A     -1.008030    21A     -0.993354
      22A     -0.935929    23A     -0.868500    24A     -0.841524
      25A     -0.821261    26A     -0.797910    27A     -0.723611
      28A     -0.715582    29A     -0.670717    30A     -0.653244
      31A     -0.637684    32A     -0.621237    33A     -0.595556
      34A     -0.593778    35A     -0.588343    36A     -0.579527
      37A     -0.569238    38A     -0.562878    39A     -0.549189
      40A     -0.519666    41A     -0.511189    42A     -0.504204
      43A     -0.487346    44A     -0.454059    45A     -0.414316
      46A     -0.381323    47A     -0.336531    48A     -0.330458
      49A     -0.276876

  @DF-RHF Final Energy:  -570.49899046969642

   => Energetics <=

    Nuclear Repulsion Energy =            790.8515496620423164
    One-Electron Energy =               -2341.8160079576182397
    Two-Electron Energy =                 980.4654678258795002
    Total Energy =                       -570.4989904696964231
  Basis Set: (AUG-CC-PVTZ AUX)
    Blend: AUG-CC-PVTZ-RI
    Molecular point group: c1

    Geometry (in Angstrom), charge = 0, multiplicity = 1:

       Center              X                  Y                   Z               Mass
    ------------   -----------------  -----------------  -----------------  -----------------
         N           -0.460016057395     1.067906556434    -0.311474118848    14.003074004430
         N            1.039984942605    -0.722888443566    -0.008407118848    14.003074004430
         C           -1.678638057395     0.393807556434    -0.119375118848    12.000000000000
         C            0.836308942605     0.593673556434    -0.150168118848    12.000000000000
         C            3.434014942605    -0.322456443566     0.117326881152    12.000000000000
         C            1.900268942605     1.520528556434    -0.175622118848    12.000000000000
         C            3.195555942605     1.052541556434    -0.038599118848    12.000000000000
         C           -2.787366057395     1.167864556434     0.262688881152    12.000000000000
         C           -1.855251057395    -0.975731443566    -0.375194118848    12.000000000000
         C            2.311763942605    -1.147570443566     0.121917881152    12.000000000000
         C            4.824491942605    -0.874655443566     0.267044881152    12.000000000000
         C           -4.044096057395     0.586529556434     0.409821881152    12.000000000000
         C           -3.116933057395    -1.547299443566    -0.205142118848    12.000000000000
         C           -4.217899057395    -0.779147443566     0.177004881152    12.000000000000
         H           -0.536923057395     2.076234556434    -0.235513118848     1.007825032230
         H            1.704427942605     2.584127556434    -0.297650118848     1.007825032230
         H            4.028295942605     1.754533556434    -0.051524118848     1.007825032230
         H           -2.656404057395     2.231089556434     0.462758881152     1.007825032230
         H           -1.008175057395    -1.578281443566    -0.673326118848     1.007825032230
         H            2.427644942605    -2.225684443566     0.238275881152     1.007825032230
         H            5.440923942605    -0.641172443566    -0.607037118848     1.007825032230
         H            5.325015942605    -0.456275443566     1.146192881152     1.007825032230
         H            4.800471442605    -1.942130743566     0.378097881152     1.007825032230
         H           -4.887074057395     1.205077556434     0.709171881152     1.007825032230
         H           -3.239319057395    -2.610976443566    -0.397183118848     1.007825032230
         H           -5.195430057395    -1.238285443566     0.299001881152     1.007825032230

  Basis Set: AUG-CC-PVTZ
    Blend: AUG-CC-PVTZ
  Basis Set: (AUG-CC-PVTZ AUX)
    Blend: AUG-CC-PVTZ-JKFIT
	 Reference Energy          =    -570.4989904696964231 [Eh]
	 Singles Energy            =      -0.0000000000000000 [Eh]
	 Same-Spin Energy          =      -0.6364081934520811 [Eh]
	 Opposite-Spin Energy      =      -1.9707553026251181 [Eh]
	 Correlation Energy        =      -2.6071634960771992 [Eh]
	 Total Energy              =    -573.1061539657736148 [Eh]

	 ================> DF-SCS-MP2 Energies <==================
	-----------------------------------------------------------
	 SCS Same-Spin Scale       =       0.3333333333333333 [-]
	 SCS Opposite-Spin Scale   =       1.2000000000000000 [-]
	 SCS Same-Spin Energy      =      -0.2121360644840270 [Eh]
	 SCS Opposite-Spin Energy  =      -2.3649063631501415 [Eh]
	 SCS Correlation Energy    =      -2.5770424276341686 [Eh]
	 SCS Total Energy          =    -573.0760328973306059 [Eh]
	-----------------------------------------------------------

  Dipole Moment: [D]
     X:     1.8767      Y:     1.8439      Z:     0.1644     Total:     2.6361

*** Psi4 exiting successfully. Buy a developer a beer!
