                               Psi4 1.4a3.dev225

  ==> Input File <==

--------------------------------------------------------------------------
#psi4
#
memory 32 gb

molecule  {
0 1
  N       -0.4914050     1.0723760    -0.3164170
  N        1.0085960    -0.7184190    -0.0133500
  C       -1.7100270     0.3982770    -0.1243180
  C        0.8049200     0.5981430    -0.1551110
  C        3.4026260    -0.3179870     0.1123840
  C        1.8688800     1.5249980    -0.1805650
  C        3.1811488     0.9590911    -0.0324378
  C       -2.8187550     1.1723340     0.2577460
  C       -1.8866400    -0.9712620    -0.3801370
  C        2.2803750    -1.1431010     0.1169750
  C        4.7931030    -0.8701860     0.2621020
  C       -4.0754850     0.5909990     0.4048790
  C       -3.1483220    -1.5428300    -0.2100850
  C       -4.2492880    -0.7746780     0.1720620
  H       -0.5683120     2.0807040    -0.2404560
  H        1.6730390     2.5885970    -0.3025930
  H        3.9969070     1.7590030    -0.0564670
  H       -2.6877930     2.2355590     0.4578160
  H       -1.0395640    -1.5738120    -0.6782690
  H        2.3962560    -2.2212150     0.2333330
  H        5.4095350    -0.6367030    -0.6119800
  H        5.2936270    -0.4518060     1.1412500
  H        4.7686350    -1.9575490     0.3752240
  H       -4.9184630     1.2095470     0.7042290
  H       -3.2707080    -2.6065070    -0.4021260
  H       -5.2268190    -1.2338160     0.2940590
units angstrom
no_reorient  #important for SAPT in psi4, default
symmetry c1  #important for SAPT in psi4, default
}

set PROPERTIES_ORIGIN ["COM"]
properties('MP2/aug-cc-pvtz', properties = ['dipole'])
--------------------------------------------------------------------------

    Molecular point group: c1
  Charge       = 0
  Multiplicity = 1
  Basis Set: AUG-CC-PVTZ
    Blend: AUG-CC-PVTZ
  Basis Set: (AUG-CC-PVTZ AUX)
    Blend: AUG-CC-PVTZ-JKFIT

    Orbital Energies [Eh]
    ---------------------

    Doubly Occupied:

       1A    -15.586335     2A    -15.557600     3A    -11.320066
       4A    -11.280393     5A    -11.280089     6A    -11.255633
       7A    -11.238648     8A    -11.233116     9A    -11.230295
      10A    -11.229851    11A    -11.227500    12A    -11.227027
      13A    -11.220537    14A    -11.217660    15A     -1.293395
      16A     -1.223018    17A     -1.132722    18A     -1.109231
      19A     -1.040914    20A     -1.007379    21A     -0.989560
      22A     -0.938617    23A     -0.874685    24A     -0.841475
      25A     -0.822063    26A     -0.794306    27A     -0.719989
      28A     -0.716455    29A     -0.670983    30A     -0.653953
      31A     -0.639363    32A     -0.619925    33A     -0.596422
      34A     -0.592969    35A     -0.590780    36A     -0.578819
      37A     -0.568670    38A     -0.550649    39A     -0.548507
      40A     -0.520239    41A     -0.512799    42A     -0.504427
      43A     -0.486943    44A     -0.456300    45A     -0.415359
      46A     -0.381949    47A     -0.338750    48A     -0.330381
      49A     -0.276875

  @DF-RHF Final Energy:  -570.48509684889427

   => Energetics <=

    Nuclear Repulsion Energy =            791.8768917849322406
    One-Electron Energy =               -2343.8367334449080772
    Two-Electron Energy =                 981.4747448110815640
    Total Energy =                       -570.4850968488942726
  Basis Set: (AUG-CC-PVTZ AUX)
    Blend: AUG-CC-PVTZ-RI
    Molecular point group: c1

    Geometry (in Angstrom), charge = 0, multiplicity = 1:

       Center              X                  Y                   Z               Mass
    ------------   -----------------  -----------------  -----------------  -----------------
         N           -0.461120514456     1.074398038279    -0.312209238644    14.003074004430
         N            1.038880485544    -0.716396961721    -0.009142238644    14.003074004430
         C           -1.679742514456     0.400299038279    -0.120110238644    12.000000000000
         C            0.835204485544     0.600165038279    -0.150903238644    12.000000000000
         C            3.432910485544    -0.315964961721     0.116591761356    12.000000000000
         C            1.899164485544     1.527020038279    -0.176357238644    12.000000000000
         C            3.211433285544     0.961113138279    -0.028230038644    12.000000000000
         C           -2.788470514456     1.174356038279     0.261953761356    12.000000000000
         C           -1.856355514456    -0.969239961721    -0.375929238644    12.000000000000
         C            2.310659485544    -1.141078961721     0.121182761356    12.000000000000
         C            4.823387485544    -0.868163961721     0.266309761356    12.000000000000
         C           -4.045200514456     0.593021038279     0.409086761356    12.000000000000
         C           -3.118037514456    -1.540807961721    -0.205877238644    12.000000000000
         C           -4.219003514456    -0.772655961721     0.176269761356    12.000000000000
         H           -0.538027514456     2.082726038279    -0.236248238644     1.007825032230
         H            1.703323485544     2.590619038279    -0.298385238644     1.007825032230
         H            4.027191485544     1.761025038279    -0.052259238644     1.007825032230
         H           -2.657508514456     2.237581038279     0.462023761356     1.007825032230
         H           -1.009279514456    -1.571789961721    -0.674061238644     1.007825032230
         H            2.426540485544    -2.219192961721     0.237540761356     1.007825032230
         H            5.439819485544    -0.634680961721    -0.607772238644     1.007825032230
         H            5.323911485544    -0.449783961721     1.145457761356     1.007825032230
         H            4.798919485544    -1.955526961721     0.379431761356     1.007825032230
         H           -4.888178514456     1.211569038279     0.708436761356     1.007825032230
         H           -3.240423514456    -2.604484961721    -0.397918238644     1.007825032230
         H           -5.196534514456    -1.231793961721     0.298266761356     1.007825032230

  Basis Set: AUG-CC-PVTZ
    Blend: AUG-CC-PVTZ
  Basis Set: (AUG-CC-PVTZ AUX)
    Blend: AUG-CC-PVTZ-JKFIT
	 Reference Energy          =    -570.4850968488942726 [Eh]
	 Singles Energy            =      -0.0000000000000000 [Eh]
	 Same-Spin Energy          =      -0.6367876812240162 [Eh]
	 Opposite-Spin Energy      =      -1.9712974272573205 [Eh]
	 Correlation Energy        =      -2.6080851084813368 [Eh]
	 Total Energy              =    -573.0931819573755774 [Eh]

	 ================> DF-SCS-MP2 Energies <==================
	-----------------------------------------------------------
	 SCS Same-Spin Scale       =       0.3333333333333333 [-]
	 SCS Opposite-Spin Scale   =       1.2000000000000000 [-]
	 SCS Same-Spin Energy      =      -0.2122625604080054 [Eh]
	 SCS Opposite-Spin Energy  =      -2.3655569127087843 [Eh]
	 SCS Correlation Energy    =      -2.5778194731167896 [Eh]
	 SCS Total Energy          =    -573.0629163220110058 [Eh]
	-----------------------------------------------------------

  Dipole Moment: [D]
     X:     1.9213      Y:     1.7560      Z:     0.1712     Total:     2.6085

*** Psi4 exiting successfully. Buy a developer a beer!
