                               Psi4 1.4a3.dev225

  ==> Input File <==

--------------------------------------------------------------------------
#psi4
#
memory 32 gb

molecule  {
0 1
  N       -0.4914050     1.0723760    -0.3164170
  N        1.0085960    -0.7184190    -0.0133500
  C       -1.7100270     0.3982770    -0.1243180
  C        0.8049200     0.5981430    -0.1551110
  C        3.4026260    -0.3179870     0.1123840
  C        1.8688800     1.5249980    -0.1805650
  C        3.1641670     1.0570110    -0.0435420
  C       -2.8187550     1.1723340     0.2577460
  C       -1.8866400    -0.9712620    -0.3801370
  C        2.2803750    -1.1431010     0.1169750
  C        4.7931030    -0.8701860     0.2621020
  C       -4.0754850     0.5909990     0.4048790
  C       -3.1483220    -1.5428300    -0.2100850
  C       -4.2492880    -0.7746780     0.1720620
  H       -0.5683120     2.0807040    -0.2404560
  H        1.6730390     2.5885970    -0.3025930
  H        3.9969070     1.7590030    -0.0564670
  H       -2.6877930     2.2355590     0.4578160
  H       -1.0395640    -1.5738120    -0.6782690
  H        2.3962560    -2.2212150     0.2333330
  H        5.4095350    -0.6367030    -0.6119800
  H        5.2766879    -0.3486439     1.0943320
  H        4.7686350    -1.9575490     0.3752240
  H       -4.9184630     1.2095470     0.7042290
  H       -3.2707080    -2.6065070    -0.4021260
  H       -5.2268190    -1.2338160     0.2940590
units angstrom
no_reorient  #important for SAPT in psi4, default
symmetry c1  #important for SAPT in psi4, default
}

set PROPERTIES_ORIGIN ["COM"]
properties('MP2/aug-cc-pvtz', properties = ['dipole'])
--------------------------------------------------------------------------

    Molecular point group: c1
  Charge       = 0
  Multiplicity = 1
  Basis Set: AUG-CC-PVTZ
    Blend: AUG-CC-PVTZ
  Basis Set: (AUG-CC-PVTZ AUX)
    Blend: AUG-CC-PVTZ-JKFIT

    Orbital Energies [Eh]
    ---------------------

    Doubly Occupied:

       1A    -15.588903     2A    -15.553580     3A    -11.322636
       4A    -11.280822     5A    -11.272234     6A    -11.258364
       7A    -11.239014     8A    -11.235038     9A    -11.233634
      10A    -11.230208    11A    -11.229488    12A    -11.228481
      13A    -11.221337    14A    -11.218294    15A     -1.292907
      16A     -1.219920    17A     -1.132686    18A     -1.097317
      19A     -1.046041    20A     -1.007945    21A     -0.993108
      22A     -0.935005    23A     -0.868542    24A     -0.840824
      25A     -0.820981    26A     -0.797868    27A     -0.723521
      28A     -0.715656    29A     -0.670530    30A     -0.653529
      31A     -0.636691    32A     -0.621197    33A     -0.595699
      34A     -0.592825    35A     -0.587898    36A     -0.579257
      37A     -0.567009    38A     -0.563501    39A     -0.553118
      40A     -0.518062    41A     -0.511394    42A     -0.503527
      43A     -0.487269    44A     -0.453620    45A     -0.414165
      46A     -0.381192    47A     -0.336092    48A     -0.330310
      49A     -0.276524

  @DF-RHF Final Energy:  -570.49757889506532

   => Energetics <=

    Nuclear Repulsion Energy =            790.8723530799917398
    One-Electron Energy =               -2341.8643388928480817
    Two-Electron Energy =                 980.4944069177911388
    Total Energy =                       -570.4975788950653168
  Basis Set: (AUG-CC-PVTZ AUX)
    Blend: AUG-CC-PVTZ-RI
    Molecular point group: c1

    Geometry (in Angstrom), charge = 0, multiplicity = 1:

       Center              X                  Y                   Z               Mass
    ------------   -----------------  -----------------  -----------------  -----------------
         N           -0.459920877351     1.067450684610    -0.311228600472    14.003074004430
         N            1.040080122649    -0.723344315390    -0.008161600472    14.003074004430
         C           -1.678542877351     0.393351684610    -0.119129600472    12.000000000000
         C            0.836404122649     0.593217684610    -0.149922600472    12.000000000000
         C            3.434110122649    -0.322912315390     0.117572399528    12.000000000000
         C            1.900364122649     1.520072684610    -0.175376600472    12.000000000000
         C            3.195651122649     1.052085684610    -0.038353600472    12.000000000000
         C           -2.787270877351     1.167408684610     0.262934399528    12.000000000000
         C           -1.855155877351    -0.976187315390    -0.374948600472    12.000000000000
         C            2.311859122649    -1.148026315390     0.122163399528    12.000000000000
         C            4.824587122649    -0.875111315390     0.267290399528    12.000000000000
         C           -4.044000877351     0.586073684610     0.410067399528    12.000000000000
         C           -3.116837877351    -1.547755315390    -0.204896600472    12.000000000000
         C           -4.217803877351    -0.779603315390     0.177250399528    12.000000000000
         H           -0.536827877351     2.075778684610    -0.235267600472     1.007825032230
         H            1.704523122649     2.583671684610    -0.297404600472     1.007825032230
         H            4.028391122649     1.754077684610    -0.051278600472     1.007825032230
         H           -2.656308877351     2.230633684610     0.463004399528     1.007825032230
         H           -1.008079877351    -1.578737315390    -0.673080600472     1.007825032230
         H            2.427740122649    -2.226140315390     0.238521399528     1.007825032230
         H            5.441019122649    -0.641628315390    -0.606791600472     1.007825032230
         H            5.308172022649    -0.353569215390     1.099520399528     1.007825032230
         H            4.800119122649    -1.962474315390     0.380412399528     1.007825032230
         H           -4.886978877351     1.204621684610     0.709417399528     1.007825032230
         H           -3.239223877351    -2.611432315390    -0.396937600472     1.007825032230
         H           -5.195334877351    -1.238741315390     0.299247399528     1.007825032230

  Basis Set: AUG-CC-PVTZ
    Blend: AUG-CC-PVTZ
  Basis Set: (AUG-CC-PVTZ AUX)
    Blend: AUG-CC-PVTZ-JKFIT
	 Reference Energy          =    -570.4975788950653168 [Eh]
	 Singles Energy            =      -0.0000000000000000 [Eh]
	 Same-Spin Energy          =      -0.6365474390931246 [Eh]
	 Opposite-Spin Energy      =      -1.9710990592135154 [Eh]
	 Correlation Energy        =      -2.6076464983066399 [Eh]
	 Total Energy              =    -573.1052253933719385 [Eh]

	 ================> DF-SCS-MP2 Energies <==================
	-----------------------------------------------------------
	 SCS Same-Spin Scale       =       0.3333333333333333 [-]
	 SCS Opposite-Spin Scale   =       1.2000000000000000 [-]
	 SCS Same-Spin Energy      =      -0.2121824796977082 [Eh]
	 SCS Opposite-Spin Energy  =      -2.3653188710562185 [Eh]
	 SCS Correlation Energy    =      -2.5775013507539266 [Eh]
	 SCS Total Energy          =    -573.0750802458192084 [Eh]
	-----------------------------------------------------------

  Dipole Moment: [D]
     X:     1.8973      Y:     1.8717      Z:     0.1384     Total:     2.6687

*** Psi4 exiting successfully. Buy a developer a beer!
