                               Psi4 1.4a3.dev225

  ==> Input File <==

--------------------------------------------------------------------------
#psi4
#
memory 32 gb

molecule  {
0 1
  N       -0.4914050     1.0723760    -0.3164170
  N        0.8693319    -0.7332616    -0.0204687
  C       -1.7100270     0.3982770    -0.1243180
  C        0.8049200     0.5981430    -0.1551110
  C        3.4026260    -0.3179870     0.1123840
  C        1.8688800     1.5249980    -0.1805650
  C        3.1641670     1.0570110    -0.0435420
  C       -2.8187550     1.1723340     0.2577460
  C       -1.8866400    -0.9712620    -0.3801370
  C        2.2803750    -1.1431010     0.1169750
  C        4.7931030    -0.8701860     0.2621020
  C       -4.0754850     0.5909990     0.4048790
  C       -3.1483220    -1.5428300    -0.2100850
  C       -4.2492880    -0.7746780     0.1720620
  H       -0.5683120     2.0807040    -0.2404560
  H        1.6730390     2.5885970    -0.3025930
  H        3.9969070     1.7590030    -0.0564670
  H       -2.6877930     2.2355590     0.4578160
  H       -1.0395640    -1.5738120    -0.6782690
  H        2.3962560    -2.2212150     0.2333330
  H        5.4095350    -0.6367030    -0.6119800
  H        5.2936270    -0.4518060     1.1412500
  H        4.7686350    -1.9575490     0.3752240
  H       -4.9184630     1.2095470     0.7042290
  H       -3.2707080    -2.6065070    -0.4021260
  H       -5.2268190    -1.2338160     0.2940590
units angstrom
no_reorient  #important for SAPT in psi4, default
symmetry c1  #important for SAPT in psi4, default
}

set PROPERTIES_ORIGIN ["COM"]
properties('MP2/aug-cc-pvtz', properties = ['dipole'])
--------------------------------------------------------------------------

    Molecular point group: c1
  Charge       = 0
  Multiplicity = 1
  Basis Set: AUG-CC-PVTZ
    Blend: AUG-CC-PVTZ
  Basis Set: (AUG-CC-PVTZ AUX)
    Blend: AUG-CC-PVTZ-JKFIT

    Orbital Energies [Eh]
    ---------------------

    Doubly Occupied:

       1A    -15.584338     2A    -15.564869     3A    -11.322809
       4A    -11.284028     5A    -11.278130     6A    -11.265712
       7A    -11.243821     8A    -11.241839     9A    -11.232942
      10A    -11.231360    11A    -11.227388    12A    -11.226673
      13A    -11.219491    14A    -11.214819    15A     -1.288805
      16A     -1.197928    17A     -1.129184    18A     -1.100994
      19A     -1.043391    20A     -1.005440    21A     -0.992112
      22A     -0.932202    23A     -0.875398    24A     -0.836185
      25A     -0.818793    26A     -0.789641    27A     -0.719279
      28A     -0.711060    29A     -0.669617    30A     -0.648033
      31A     -0.637828    32A     -0.619834    33A     -0.592587
      34A     -0.590530    35A     -0.586129    36A     -0.577791
      37A     -0.568894    38A     -0.558800    39A     -0.546158
      40A     -0.515173    41A     -0.507962    42A     -0.500285
      43A     -0.486025    44A     -0.449027    45A     -0.428987
      46A     -0.375702    47A     -0.337554    48A     -0.327964
      49A     -0.279177

  @DF-RHF Final Energy:  -570.47642436481897

   => Energetics <=

    Nuclear Repulsion Energy =            789.6578021357058788
    One-Electron Energy =               -2339.5030741441705686
    Two-Electron Energy =                 979.3688476436457222
    Total Energy =                       -570.4764243648189677
  Basis Set: (AUG-CC-PVTZ AUX)
    Blend: AUG-CC-PVTZ-RI
    Molecular point group: c1

    Geometry (in Angstrom), charge = 0, multiplicity = 1:

       Center              X                  Y                   Z               Mass
    ------------   -----------------  -----------------  -----------------  -----------------
         N           -0.449420859202     1.069144390699    -0.310943980514    14.003074004430
         N            0.911316040798    -0.736493209301    -0.014995680514    14.003074004430
         C           -1.668042859202     0.395045390699    -0.118844980514    12.000000000000
         C            0.846904140798     0.594911390699    -0.149637980514    12.000000000000
         C            3.444610140798    -0.321218609301     0.117857019486    12.000000000000
         C            1.910864140798     1.521766390699    -0.175091980514    12.000000000000
         C            3.206151140798     1.053779390699    -0.038068980514    12.000000000000
         C           -2.776770859202     1.169102390699     0.263219019486    12.000000000000
         C           -1.844655859202    -0.974493609301    -0.374663980514    12.000000000000
         C            2.322359140798    -1.146332609301     0.122448019486    12.000000000000
         C            4.835087140798    -0.873417609301     0.267575019486    12.000000000000
         C           -4.033500859202     0.587767390699     0.410352019486    12.000000000000
         C           -3.106337859202    -1.546061609301    -0.204611980514    12.000000000000
         C           -4.207303859202    -0.777909609301     0.177535019486    12.000000000000
         H           -0.526327859202     2.077472390699    -0.234982980514     1.007825032230
         H            1.715023140798     2.585365390699    -0.297119980514     1.007825032230
         H            4.038891140798     1.755771390699    -0.050993980514     1.007825032230
         H           -2.645808859202     2.232327390699     0.463289019486     1.007825032230
         H           -0.997579859202    -1.577043609301    -0.672795980514     1.007825032230
         H            2.438240140798    -2.224446609301     0.238806019486     1.007825032230
         H            5.451519140798    -0.639934609301    -0.606506980514     1.007825032230
         H            5.335611140798    -0.455037609301     1.146723019486     1.007825032230
         H            4.810619140798    -1.960780609301     0.380697019486     1.007825032230
         H           -4.876478859202     1.206315390699     0.709702019486     1.007825032230
         H           -3.228723859202    -2.609738609301    -0.396652980514     1.007825032230
         H           -5.184834859202    -1.237047609301     0.299532019486     1.007825032230

  Basis Set: AUG-CC-PVTZ
    Blend: AUG-CC-PVTZ
  Basis Set: (AUG-CC-PVTZ AUX)
    Blend: AUG-CC-PVTZ-JKFIT
	 Reference Energy          =    -570.4764243648189677 [Eh]
	 Singles Energy            =      -0.0000000000000000 [Eh]
	 Same-Spin Energy          =      -0.6374693877946266 [Eh]
	 Opposite-Spin Energy      =      -1.9761787808955480 [Eh]
	 Correlation Energy        =      -2.6136481686901747 [Eh]
	 Total Energy              =    -573.0900725335091010 [Eh]

	 ================> DF-SCS-MP2 Energies <==================
	-----------------------------------------------------------
	 SCS Same-Spin Scale       =       0.3333333333333333 [-]
	 SCS Opposite-Spin Scale   =       1.2000000000000000 [-]
	 SCS Same-Spin Energy      =      -0.2124897959315422 [Eh]
	 SCS Opposite-Spin Energy  =      -2.3714145370746573 [Eh]
	 SCS Correlation Energy    =      -2.5839043330061995 [Eh]
	 SCS Total Energy          =    -573.0603286978251845 [Eh]
	-----------------------------------------------------------

  Dipole Moment: [D]
     X:     2.2547      Y:     1.9357      Z:     0.1723     Total:     2.9766

*** Psi4 exiting successfully. Buy a developer a beer!
