                               Psi4 1.4a3.dev225

  ==> Input File <==

--------------------------------------------------------------------------
#psi4
#
memory 32 gb

molecule  {
0 1
  N       -0.4914050     1.0723760    -0.3164170
  N        1.0085960    -0.7184190    -0.0133500
  C       -1.7100270     0.3982770    -0.1243180
  C        0.8333587     0.6900414    -0.1426455
  C        3.4026260    -0.3179870     0.1123840
  C        1.8688800     1.5249980    -0.1805650
  C        3.1641670     1.0570110    -0.0435420
  C       -2.8187550     1.1723340     0.2577460
  C       -1.8866400    -0.9712620    -0.3801370
  C        2.2803750    -1.1431010     0.1169750
  C        4.7931030    -0.8701860     0.2621020
  C       -4.0754850     0.5909990     0.4048790
  C       -3.1483220    -1.5428300    -0.2100850
  C       -4.2492880    -0.7746780     0.1720620
  H       -0.5683120     2.0807040    -0.2404560
  H        1.6730390     2.5885970    -0.3025930
  H        3.9969070     1.7590030    -0.0564670
  H       -2.6877930     2.2355590     0.4578160
  H       -1.0395640    -1.5738120    -0.6782690
  H        2.3962560    -2.2212150     0.2333330
  H        5.4095350    -0.6367030    -0.6119800
  H        5.2936270    -0.4518060     1.1412500
  H        4.7686350    -1.9575490     0.3752240
  H       -4.9184630     1.2095470     0.7042290
  H       -3.2707080    -2.6065070    -0.4021260
  H       -5.2268190    -1.2338160     0.2940590
units angstrom
no_reorient  #important for SAPT in psi4, default
symmetry c1  #important for SAPT in psi4, default
}

set PROPERTIES_ORIGIN ["COM"]
properties('MP2/aug-cc-pvtz', properties = ['dipole'])
--------------------------------------------------------------------------

    Molecular point group: c1
  Charge       = 0
  Multiplicity = 1
  Basis Set: AUG-CC-PVTZ
    Blend: AUG-CC-PVTZ
  Basis Set: (AUG-CC-PVTZ AUX)
    Blend: AUG-CC-PVTZ-JKFIT

    Orbital Energies [Eh]
    ---------------------

    Doubly Occupied:

       1A    -15.588068     2A    -15.559812     3A    -11.318952
       4A    -11.282230     5A    -11.274186     6A    -11.260833
       7A    -11.236095     8A    -11.233250     9A    -11.229758
      10A    -11.229617    11A    -11.229584    12A    -11.228461
      13A    -11.221126    14A    -11.217796    15A     -1.284938
      16A     -1.211263    17A     -1.133014    18A     -1.093634
      19A     -1.056140    20A     -1.007463    21A     -0.994162
      22A     -0.932947    23A     -0.871439    24A     -0.839672
      25A     -0.820442    26A     -0.798572    27A     -0.723345
      28A     -0.713435    29A     -0.671868    30A     -0.646057
      31A     -0.636924    32A     -0.623475    33A     -0.598302
      34A     -0.591450    35A     -0.587486    36A     -0.578933
      37A     -0.568081    38A     -0.562694    39A     -0.544669
      40A     -0.517246    41A     -0.509278    42A     -0.502844
      43A     -0.485771    44A     -0.453976    45A     -0.416960
      46A     -0.380585    47A     -0.338447    48A     -0.329917
      49A     -0.276851

  @DF-RHF Final Energy:  -570.48393968472135

   => Energetics <=

    Nuclear Repulsion Energy =            790.2052116226687986
    One-Electron Energy =               -2340.5542040208797516
    Two-Electron Energy =                 979.8650527134897175
    Total Energy =                       -570.4839396847213493
  Basis Set: (AUG-CC-PVTZ AUX)
    Blend: AUG-CC-PVTZ-RI
    Molecular point group: c1

    Geometry (in Angstrom), charge = 0, multiplicity = 1:

       Center              X                  Y                   Z               Mass
    ------------   -----------------  -----------------  -----------------  -----------------
         N           -0.461867297530     1.062025311493    -0.312297970832    14.003074004430
         N            1.038133702470    -0.728769688507    -0.009230970832    14.003074004430
         C           -1.680489297530     0.387926311493    -0.120198970832    12.000000000000
         C            0.862896402470     0.679690711493    -0.138526470832    12.000000000000
         C            3.432163702470    -0.328337688507     0.116503029168    12.000000000000
         C            1.898417702470     1.514647311493    -0.176445970832    12.000000000000
         C            3.193704702470     1.046660311493    -0.039422970832    12.000000000000
         C           -2.789217297530     1.161983311493     0.261865029168    12.000000000000
         C           -1.857102297530    -0.981612688507    -0.376017970832    12.000000000000
         C            2.309912702470    -1.153451688507     0.121094029168    12.000000000000
         C            4.822640702470    -0.880536688507     0.266221029168    12.000000000000
         C           -4.045947297530     0.580648311493     0.408998029168    12.000000000000
         C           -3.118784297530    -1.553180688507    -0.205965970832    12.000000000000
         C           -4.219750297530    -0.785028688507     0.176181029168    12.000000000000
         H           -0.538774297530     2.070353311493    -0.236336970832     1.007825032230
         H            1.702576702470     2.578246311493    -0.298473970832     1.007825032230
         H            4.026444702470     1.748652311493    -0.052347970832     1.007825032230
         H           -2.658255297530     2.225208311493     0.461935029168     1.007825032230
         H           -1.010026297530    -1.584162688507    -0.674149970832     1.007825032230
         H            2.425793702470    -2.231565688507     0.237452029168     1.007825032230
         H            5.439072702470    -0.647053688507    -0.607860970832     1.007825032230
         H            5.323164702470    -0.462156688507     1.145369029168     1.007825032230
         H            4.798172702470    -1.967899688507     0.379343029168     1.007825032230
         H           -4.888925297530     1.199196311493     0.708348029168     1.007825032230
         H           -3.241170297530    -2.616857688507    -0.398006970832     1.007825032230
         H           -5.197281297530    -1.244166688507     0.298178029168     1.007825032230

  Basis Set: AUG-CC-PVTZ
    Blend: AUG-CC-PVTZ
  Basis Set: (AUG-CC-PVTZ AUX)
    Blend: AUG-CC-PVTZ-JKFIT
	 Reference Energy          =    -570.4839396847213493 [Eh]
	 Singles Energy            =      -0.0000000000000000 [Eh]
	 Same-Spin Energy          =      -0.6374600955511825 [Eh]
	 Opposite-Spin Energy      =      -1.9732613589645704 [Eh]
	 Correlation Energy        =      -2.6107214545157529 [Eh]
	 Total Energy              =    -573.0946611392371324 [Eh]

	 ================> DF-SCS-MP2 Energies <==================
	-----------------------------------------------------------
	 SCS Same-Spin Scale       =       0.3333333333333333 [-]
	 SCS Opposite-Spin Scale   =       1.2000000000000000 [-]
	 SCS Same-Spin Energy      =      -0.2124866985170608 [Eh]
	 SCS Opposite-Spin Energy  =      -2.3679136307574846 [Eh]
	 SCS Correlation Energy    =      -2.5804003292745454 [Eh]
	 SCS Total Energy          =    -573.0643400139958885 [Eh]
	-----------------------------------------------------------

  Dipole Moment: [D]
     X:     1.9292      Y:     1.8201      Z:     0.1852     Total:     2.6588

*** Psi4 exiting successfully. Buy a developer a beer!
