                               Psi4 1.4a3.dev225

  ==> Input File <==

--------------------------------------------------------------------------
#psi4
#
memory 32 gb

molecule  {
0 1
  N       -0.4914050     1.0723760    -0.3164170
  N        1.0085960    -0.7184190    -0.0133500
  C       -1.7100270     0.3982770    -0.1243180
  C        0.8049200     0.5981430    -0.1551110
  C        3.4266807    -0.3134584     0.1136058
  C        1.8688800     1.5249980    -0.1805650
  C        3.1641670     1.0570110    -0.0435420
  C       -2.8187550     1.1723340     0.2577460
  C       -1.8866400    -0.9712620    -0.3801370
  C        2.2803750    -1.1431010     0.1169750
  C        4.7931030    -0.8701860     0.2621020
  C       -4.0754850     0.5909990     0.4048790
  C       -3.1483220    -1.5428300    -0.2100850
  C       -4.2492880    -0.7746780     0.1720620
  H       -0.5683120     2.0807040    -0.2404560
  H        1.6730390     2.5885970    -0.3025930
  H        3.9969070     1.7590030    -0.0564670
  H       -2.6877930     2.2355590     0.4578160
  H       -1.0395640    -1.5738120    -0.6782690
  H        2.3962560    -2.2212150     0.2333330
  H        5.4095350    -0.6367030    -0.6119800
  H        5.2936270    -0.4518060     1.1412500
  H        4.7686350    -1.9575490     0.3752240
  H       -4.9184630     1.2095470     0.7042290
  H       -3.2707080    -2.6065070    -0.4021260
  H       -5.2268190    -1.2338160     0.2940590
units angstrom
no_reorient  #important for SAPT in psi4, default
symmetry c1  #important for SAPT in psi4, default
}

set PROPERTIES_ORIGIN ["COM"]
properties('MP2/aug-cc-pvtz', properties = ['dipole'])
--------------------------------------------------------------------------

    Molecular point group: c1
  Charge       = 0
  Multiplicity = 1
  Basis Set: AUG-CC-PVTZ
    Blend: AUG-CC-PVTZ
  Basis Set: (AUG-CC-PVTZ AUX)
    Blend: AUG-CC-PVTZ-JKFIT

    Orbital Energies [Eh]
    ---------------------

    Doubly Occupied:

       1A    -15.589075     2A    -15.554794     3A    -11.322976
       4A    -11.280968     5A    -11.276016     6A    -11.257861
       7A    -11.238178     8A    -11.236857     9A    -11.233752
      10A    -11.230354    11A    -11.228581    12A    -11.228411
      13A    -11.221441    14A    -11.218459    15A     -1.292982
      16A     -1.219530    17A     -1.132728    18A     -1.097772
      19A     -1.046013    20A     -1.008109    21A     -0.993854
      22A     -0.935347    23A     -0.867523    24A     -0.840631
      25A     -0.821353    26A     -0.797065    27A     -0.723143
      28A     -0.715348    29A     -0.670696    30A     -0.652998
      31A     -0.638778    32A     -0.620728    33A     -0.595446
      34A     -0.593300    35A     -0.588917    36A     -0.579629
      37A     -0.569950    38A     -0.561421    39A     -0.546984
      40A     -0.524087    41A     -0.510998    42A     -0.504210
      43A     -0.487302    44A     -0.453285    45A     -0.413675
      46A     -0.381754    47A     -0.335206    48A     -0.330333
      49A     -0.275862

  @DF-RHF Final Energy:  -570.49746499228627

   => Energetics <=

    Nuclear Repulsion Energy =            790.4704923100257474
    One-Electron Energy =               -2341.0465568775584870
    Two-Electron Energy =                 980.0785995752464714
    Total Energy =                       -570.4974649922862682
  Basis Set: (AUG-CC-PVTZ AUX)
    Blend: AUG-CC-PVTZ-RI
    Molecular point group: c1

    Geometry (in Angstrom), charge = 0, multiplicity = 1:

       Center              X                  Y                   Z               Mass
    ------------   -----------------  -----------------  -----------------  -----------------
         N           -0.461581539864     1.067720245358    -0.311565084549    14.003074004430
         N            1.038419460136    -0.723074754642    -0.008498084549    14.003074004430
         C           -1.680203539864     0.393621245358    -0.119466084549    12.000000000000
         C            0.834743460136     0.593487245358    -0.150259084549    12.000000000000
         C            3.456504160136    -0.318114154642     0.118457715451    12.000000000000
         C            1.898703460136     1.520342245358    -0.175713084549    12.000000000000
         C            3.193990460136     1.052355245358    -0.038690084549    12.000000000000
         C           -2.788931539864     1.167678245358     0.262597915451    12.000000000000
         C           -1.856816539864    -0.975917754642    -0.375285084549    12.000000000000
         C            2.310198460136    -1.147756754642     0.121826915451    12.000000000000
         C            4.822926460136    -0.874841754642     0.266953915451    12.000000000000
         C           -4.045661539864     0.586343245358     0.409730915451    12.000000000000
         C           -3.118498539864    -1.547485754642    -0.205233084549    12.000000000000
         C           -4.219464539864    -0.779333754642     0.176913915451    12.000000000000
         H           -0.538488539864     2.076048245358    -0.235604084549     1.007825032230
         H            1.702862460136     2.583941245358    -0.297741084549     1.007825032230
         H            4.026730460136     1.754347245358    -0.051615084549     1.007825032230
         H           -2.657969539864     2.230903245358     0.462667915451     1.007825032230
         H           -1.009740539864    -1.578467754642    -0.673417084549     1.007825032230
         H            2.426079460136    -2.225870754642     0.238184915451     1.007825032230
         H            5.439358460136    -0.641358754642    -0.607128084549     1.007825032230
         H            5.323450460136    -0.456461754642     1.146101915451     1.007825032230
         H            4.798458460136    -1.962204754642     0.380075915451     1.007825032230
         H           -4.888639539864     1.204891245358     0.709080915451     1.007825032230
         H           -3.240884539864    -2.611162754642    -0.397274084549     1.007825032230
         H           -5.196995539864    -1.238471754642     0.298910915451     1.007825032230

  Basis Set: AUG-CC-PVTZ
    Blend: AUG-CC-PVTZ
  Basis Set: (AUG-CC-PVTZ AUX)
    Blend: AUG-CC-PVTZ-JKFIT
	 Reference Energy          =    -570.4974649922862682 [Eh]
	 Singles Energy            =      -0.0000000000000000 [Eh]
	 Same-Spin Energy          =      -0.6367105002950785 [Eh]
	 Opposite-Spin Energy      =      -1.9712762981284966 [Eh]
	 Correlation Energy        =      -2.6079867984235752 [Eh]
	 Total Energy              =    -573.1054517907098216 [Eh]

	 ================> DF-SCS-MP2 Energies <==================
	-----------------------------------------------------------
	 SCS Same-Spin Scale       =       0.3333333333333333 [-]
	 SCS Opposite-Spin Scale   =       1.2000000000000000 [-]
	 SCS Same-Spin Energy      =      -0.2122368334316928 [Eh]
	 SCS Opposite-Spin Energy  =      -2.3655315577541960 [Eh]
	 SCS Correlation Energy    =      -2.5777683911858889 [Eh]
	 SCS Total Energy          =    -573.0752333834722094 [Eh]
	-----------------------------------------------------------

  Dipole Moment: [D]
     X:     1.8960      Y:     1.8248      Z:     0.1675     Total:     2.6368

*** Psi4 exiting successfully. Buy a developer a beer!
