                               Psi4 1.4a3.dev225

  ==> Input File <==

--------------------------------------------------------------------------
#psi4
#
memory 32 gb

molecule  {
0 1
  N       -0.4914050     1.0723760    -0.3164170
  N        1.0085960    -0.7184190    -0.0133500
  C       -1.7100270     0.3982770    -0.1243180
  C        0.8199382     0.6438311    -0.1487761
  C        3.4026260    -0.3179870     0.1123840
  C        1.8688800     1.5249980    -0.1805650
  C        3.1641670     1.0570110    -0.0435420
  C       -2.8187550     1.1723340     0.2577460
  C       -1.8866400    -0.9712620    -0.3801370
  C        2.2803750    -1.1431010     0.1169750
  C        4.7931030    -0.8701860     0.2621020
  C       -4.0754850     0.5909990     0.4048790
  C       -3.1483220    -1.5428300    -0.2100850
  C       -4.2492880    -0.7746780     0.1720620
  H       -0.5683120     2.0807040    -0.2404560
  H        1.6730390     2.5885970    -0.3025930
  H        3.9969070     1.7590030    -0.0564670
  H       -2.6877930     2.2355590     0.4578160
  H       -1.0395640    -1.5738120    -0.6782690
  H        2.3962560    -2.2212150     0.2333330
  H        5.4095350    -0.6367030    -0.6119800
  H        5.2936270    -0.4518060     1.1412500
  H        4.7686350    -1.9575490     0.3752240
  H       -4.9184630     1.2095470     0.7042290
  H       -3.2707080    -2.6065070    -0.4021260
  H       -5.2268190    -1.2338160     0.2940590
units angstrom
no_reorient  #important for SAPT in psi4, default
symmetry c1  #important for SAPT in psi4, default
}

set PROPERTIES_ORIGIN ["COM"]
properties('MP2/aug-cc-pvtz', properties = ['dipole'])
--------------------------------------------------------------------------

    Molecular point group: c1
  Charge       = 0
  Multiplicity = 1
  Basis Set: AUG-CC-PVTZ
    Blend: AUG-CC-PVTZ
  Basis Set: (AUG-CC-PVTZ AUX)
    Blend: AUG-CC-PVTZ-JKFIT

    Orbital Energies [Eh]
    ---------------------

    Doubly Occupied:

       1A    -15.588684     2A    -15.556906     3A    -11.321332
       4A    -11.281597     5A    -11.273518     6A    -11.259762
       7A    -11.235476     8A    -11.234460     9A    -11.233505
      10A    -11.229965    11A    -11.229174    12A    -11.228568
      13A    -11.221311    14A    -11.218117    15A     -1.288670
      16A     -1.215492    17A     -1.132909    18A     -1.095070
      19A     -1.051095    20A     -1.007766    21A     -0.993632
      22A     -0.933434    23A     -0.870199    24A     -0.840493
      25A     -0.820714    26A     -0.798583    27A     -0.723250
      28A     -0.714671    29A     -0.671149    30A     -0.648475
      31A     -0.637651    32A     -0.622656    33A     -0.596271
      34A     -0.593455    35A     -0.588114    36A     -0.579255
      37A     -0.568619    38A     -0.562643    39A     -0.545839
      40A     -0.518278    41A     -0.510188    42A     -0.503552
      43A     -0.486670    44A     -0.454053    45A     -0.416295
      46A     -0.380335    47A     -0.337808    48A     -0.330240
      49A     -0.276790

  @DF-RHF Final Energy:  -570.49422135959571

   => Energetics <=

    Nuclear Repulsion Energy =            790.4757934726568465
    One-Electron Energy =               -2341.0866505473049983
    Two-Electron Energy =                 980.1166357150525528
    Total Energy =                       -570.4942213595957128
  Basis Set: (AUG-CC-PVTZ AUX)
    Blend: AUG-CC-PVTZ-RI
    Molecular point group: c1

    Geometry (in Angstrom), charge = 0, multiplicity = 1:

       Center              X                  Y                   Z               Mass
    ------------   -----------------  -----------------  -----------------  -----------------
         N           -0.460992523181     1.065037388920    -0.311898366374    14.003074004430
         N            1.039008476819    -0.725757611080    -0.008831366374    14.003074004430
         C           -1.679614523181     0.390938388920    -0.119799366374    12.000000000000
         C            0.850350676819     0.636492488920    -0.144257466374    12.000000000000
         C            3.433038476819    -0.325325611080     0.116902633626    12.000000000000
         C            1.899292476819     1.517659388920    -0.176046366374    12.000000000000
         C            3.194579476819     1.049672388920    -0.039023366374    12.000000000000
         C           -2.788342523181     1.164995388920     0.262264633626    12.000000000000
         C           -1.856227523181    -0.978600611080    -0.375618366374    12.000000000000
         C            2.310787476819    -1.150439611080     0.121493633626    12.000000000000
         C            4.823515476819    -0.877524611080     0.266620633626    12.000000000000
         C           -4.045072523181     0.583660388920     0.409397633626    12.000000000000
         C           -3.117909523181    -1.550168611080    -0.205566366374    12.000000000000
         C           -4.218875523181    -0.782016611080     0.176580633626    12.000000000000
         H           -0.537899523181     2.073365388920    -0.235937366374     1.007825032230
         H            1.703451476819     2.581258388920    -0.298074366374     1.007825032230
         H            4.027319476819     1.751664388920    -0.051948366374     1.007825032230
         H           -2.657380523181     2.228220388920     0.462334633626     1.007825032230
         H           -1.009151523181    -1.581150611080    -0.673750366374     1.007825032230
         H            2.426668476819    -2.228553611080     0.237851633626     1.007825032230
         H            5.439947476819    -0.644041611080    -0.607461366374     1.007825032230
         H            5.324039476819    -0.459144611080     1.145768633626     1.007825032230
         H            4.799047476819    -1.964887611080     0.379742633626     1.007825032230
         H           -4.888050523181     1.202208388920     0.708747633626     1.007825032230
         H           -3.240295523181    -2.613845611080    -0.397607366374     1.007825032230
         H           -5.196406523181    -1.241154611080     0.298577633626     1.007825032230

  Basis Set: AUG-CC-PVTZ
    Blend: AUG-CC-PVTZ
  Basis Set: (AUG-CC-PVTZ AUX)
    Blend: AUG-CC-PVTZ-JKFIT
	 Reference Energy          =    -570.4942213595957128 [Eh]
	 Singles Energy            =      -0.0000000000000000 [Eh]
	 Same-Spin Energy          =      -0.6369994598078460 [Eh]
	 Opposite-Spin Energy      =      -1.9719389138940044 [Eh]
	 Correlation Energy        =      -2.6089383737018506 [Eh]
	 Total Energy              =    -573.1031597332976162 [Eh]

	 ================> DF-SCS-MP2 Energies <==================
	-----------------------------------------------------------
	 SCS Same-Spin Scale       =       0.3333333333333333 [-]
	 SCS Opposite-Spin Scale   =       1.2000000000000000 [-]
	 SCS Same-Spin Energy      =      -0.2123331532692820 [Eh]
	 SCS Opposite-Spin Energy  =      -2.3663266966728052 [Eh]
	 SCS Correlation Energy    =      -2.5786598499420870 [Eh]
	 SCS Total Energy          =    -573.0728812095378544 [Eh]
	-----------------------------------------------------------

  Dipole Moment: [D]
     X:     1.9018      Y:     1.8424      Z:     0.1736     Total:     2.6536

*** Psi4 exiting successfully. Buy a developer a beer!
