                               Psi4 1.4a3.dev225

  ==> Input File <==

--------------------------------------------------------------------------
#psi4
#
memory 32 gb

molecule  {
0 1
  N       -0.4914050     1.0723760    -0.3164170
  N        1.0085960    -0.7184190    -0.0133500
  C       -1.7100270     0.3982770    -0.1243180
  C        0.8049200     0.5981430    -0.1551110
  C        3.4026260    -0.3179870     0.1123840
  C        1.8688800     1.5249980    -0.1805650
  C        3.1641670     1.0570110    -0.0435420
  C       -2.8187550     1.1723340     0.2577460
  C       -1.8866400    -0.9712620    -0.3801370
  C        2.2803750    -1.1431010     0.1169750
  C        4.7931030    -0.8701860     0.2621020
  C       -4.0754850     0.5909990     0.4048790
  C       -3.1483220    -1.5428300    -0.2100850
  C       -4.2492880    -0.7746780     0.1720620
  H       -0.5683120     2.0807040    -0.2404560
  H        1.6694401     2.6081423    -0.3048355
  H        3.9969070     1.7590030    -0.0564670
  H       -2.6877930     2.2355590     0.4578160
  H       -1.0395640    -1.5738120    -0.6782690
  H        2.3962560    -2.2212150     0.2333330
  H        5.4095350    -0.6367030    -0.6119800
  H        5.2936270    -0.4518060     1.1412500
  H        4.7686350    -1.9575490     0.3752240
  H       -4.9184630     1.2095470     0.7042290
  H       -3.2707080    -2.6065070    -0.4021260
  H       -5.2268190    -1.2338160     0.2940590
units angstrom
no_reorient  #important for SAPT in psi4, default
symmetry c1  #important for SAPT in psi4, default
}

set PROPERTIES_ORIGIN ["COM"]
properties('MP2/aug-cc-pvtz', properties = ['dipole'])
--------------------------------------------------------------------------

    Molecular point group: c1
  Charge       = 0
  Multiplicity = 1
  Basis Set: AUG-CC-PVTZ
    Blend: AUG-CC-PVTZ
  Basis Set: (AUG-CC-PVTZ AUX)
    Blend: AUG-CC-PVTZ-JKFIT

    Orbital Energies [Eh]
    ---------------------

    Doubly Occupied:

       1A    -15.589085     2A    -15.553905     3A    -11.323209
       4A    -11.280926     5A    -11.272871     6A    -11.258647
       7A    -11.241185     8A    -11.235453     9A    -11.233724
      10A    -11.230304    11A    -11.229017    12A    -11.228586
      13A    -11.221440    14A    -11.218413    15A     -1.293164
      16A     -1.220194    17A     -1.132786    18A     -1.096908
      19A     -1.045567    20A     -1.008038    21A     -0.993022
      22A     -0.934965    23A     -0.868100    24A     -0.840889
      25A     -0.820840    26A     -0.797940    27A     -0.723588
      28A     -0.715445    29A     -0.670565    30A     -0.652828
      31A     -0.634661    32A     -0.620715    33A     -0.595450
      34A     -0.593608    35A     -0.588434    36A     -0.579534
      37A     -0.569407    38A     -0.562833    39A     -0.546801
      40A     -0.518872    41A     -0.511016    42A     -0.504070
      43A     -0.487349    44A     -0.454125    45A     -0.414375
      46A     -0.381551    47A     -0.336630    48A     -0.330488
      49A     -0.276951

  @DF-RHF Final Energy:  -570.49827351335728

   => Energetics <=

    Nuclear Repulsion Energy =            790.6607097277609455
    One-Electron Energy =               -2341.4410187369630876
    Two-Electron Energy =                 980.2820354958447524
    Total Energy =                       -570.4982735133572760
  Basis Set: (AUG-CC-PVTZ AUX)
    Blend: AUG-CC-PVTZ-RI
    Molecular point group: c1

    Geometry (in Angstrom), charge = 0, multiplicity = 1:

       Center              X                  Y                   Z               Mass
    ------------   -----------------  -----------------  -----------------  -----------------
         N           -0.459993906053     1.067908430845    -0.311473169051    14.003074004430
         N            1.040007093947    -0.722886569155    -0.008406169051    14.003074004430
         C           -1.678615906053     0.393809430845    -0.119374169051    12.000000000000
         C            0.836331093947     0.593675430845    -0.150167169051    12.000000000000
         C            3.434037093947    -0.322454569155     0.117327830949    12.000000000000
         C            1.900291093947     1.520530430845    -0.175621169051    12.000000000000
         C            3.195578093947     1.052543430845    -0.038598169051    12.000000000000
         C           -2.787343906053     1.167866430845     0.262689830949    12.000000000000
         C           -1.855228906053    -0.975729569155    -0.375193169051    12.000000000000
         C            2.311786093947    -1.147568569155     0.121918830949    12.000000000000
         C            4.824514093947    -0.874653569155     0.267045830949    12.000000000000
         C           -4.044073906053     0.586531430845     0.409822830949    12.000000000000
         C           -3.116910906053    -1.547297569155    -0.205141169051    12.000000000000
         C           -4.217876906053    -0.779145569155     0.177005830949    12.000000000000
         H           -0.536900906053     2.076236430845    -0.235512169051     1.007825032230
         H            1.700851193947     2.603674730845    -0.299891669051     1.007825032230
         H            4.028318093947     1.754535430845    -0.051523169051     1.007825032230
         H           -2.656381906053     2.231091430845     0.462759830949     1.007825032230
         H           -1.008152906053    -1.578279569155    -0.673325169051     1.007825032230
         H            2.427667093947    -2.225682569155     0.238276830949     1.007825032230
         H            5.440946093947    -0.641170569155    -0.607036169051     1.007825032230
         H            5.325038093947    -0.456273569155     1.146193830949     1.007825032230
         H            4.800046093947    -1.962016569155     0.380167830949     1.007825032230
         H           -4.887051906053     1.205079430845     0.709172830949     1.007825032230
         H           -3.239296906053    -2.610974569155    -0.397182169051     1.007825032230
         H           -5.195407906053    -1.238283569155     0.299002830949     1.007825032230

  Basis Set: AUG-CC-PVTZ
    Blend: AUG-CC-PVTZ
  Basis Set: (AUG-CC-PVTZ AUX)
    Blend: AUG-CC-PVTZ-JKFIT
	 Reference Energy          =    -570.4982735133572760 [Eh]
	 Singles Energy            =      -0.0000000000000000 [Eh]
	 Same-Spin Energy          =      -0.6364651332440635 [Eh]
	 Opposite-Spin Energy      =      -1.9710662509250940 [Eh]
	 Correlation Energy        =      -2.6075313841691576 [Eh]
	 Total Energy              =    -573.1058048975264683 [Eh]

	 ================> DF-SCS-MP2 Energies <==================
	-----------------------------------------------------------
	 SCS Same-Spin Scale       =       0.3333333333333333 [-]
	 SCS Opposite-Spin Scale   =       1.2000000000000000 [-]
	 SCS Same-Spin Energy      =      -0.2121550444146878 [Eh]
	 SCS Opposite-Spin Energy  =      -2.3652795011101126 [Eh]
	 SCS Correlation Energy    =      -2.5774345455248007 [Eh]
	 SCS Total Energy          =    -573.0757080588821282 [Eh]
	-----------------------------------------------------------

  Dipole Moment: [D]
     X:     1.8735      Y:     1.8465      Z:     0.1639     Total:     2.6356

*** Psi4 exiting successfully. Buy a developer a beer!
