                               Psi4 1.4a3.dev225

  ==> Input File <==

--------------------------------------------------------------------------
#psi4
#
memory 32 gb

molecule  {
0 1
  N       -0.4914050     1.0723760    -0.3164170
  N        1.0085960    -0.7184190    -0.0133500
  C       -1.7100270     0.3982770    -0.1243180
  C        0.8049200     0.5981430    -0.1551110
  C        3.4026260    -0.3179870     0.1123840
  C        1.8688800     1.5249980    -0.1805650
  C        3.1641670     1.0570110    -0.0435420
  C       -2.8187550     1.1723340     0.2577460
  C       -1.8841248    -0.9517581    -0.3764938
  C        2.2803750    -1.1431010     0.1169750
  C        4.7931030    -0.8701860     0.2621020
  C       -4.0754850     0.5909990     0.4048790
  C       -3.1483220    -1.5428300    -0.2100850
  C       -4.2492880    -0.7746780     0.1720620
  H       -0.5683120     2.0807040    -0.2404560
  H        1.6730390     2.5885970    -0.3025930
  H        3.9969070     1.7590030    -0.0564670
  H       -2.6877930     2.2355590     0.4578160
  H       -1.0395640    -1.5738120    -0.6782690
  H        2.3962560    -2.2212150     0.2333330
  H        5.4095350    -0.6367030    -0.6119800
  H        5.2936270    -0.4518060     1.1412500
  H        4.7686350    -1.9575490     0.3752240
  H       -4.9184630     1.2095470     0.7042290
  H       -3.2707080    -2.6065070    -0.4021260
  H       -5.2268190    -1.2338160     0.2940590
units angstrom
no_reorient  #important for SAPT in psi4, default
symmetry c1  #important for SAPT in psi4, default
}

set PROPERTIES_ORIGIN ["COM"]
properties('MP2/aug-cc-pvtz', properties = ['dipole'])
--------------------------------------------------------------------------

    Molecular point group: c1
  Charge       = 0
  Multiplicity = 1
  Basis Set: AUG-CC-PVTZ
    Blend: AUG-CC-PVTZ
  Basis Set: (AUG-CC-PVTZ AUX)
    Blend: AUG-CC-PVTZ-JKFIT

    Orbital Energies [Eh]
    ---------------------

    Doubly Occupied:

       1A    -15.588446     2A    -15.553310     3A    -11.322708
       4A    -11.278476     5A    -11.272490     6A    -11.258192
       7A    -11.238569     8A    -11.235022     9A    -11.233743
      10A    -11.231487    11A    -11.229108    12A    -11.228740
      13A    -11.221799    14A    -11.217734    15A     -1.292934
      16A     -1.220152    17A     -1.133444    18A     -1.096675
      19A     -1.045931    20A     -1.006967    21A     -0.994568
      22A     -0.934903    23A     -0.868141    24A     -0.841165
      25A     -0.822491    26A     -0.797081    27A     -0.723226
      28A     -0.715972    29A     -0.669655    30A     -0.653149
      31A     -0.636798    32A     -0.620879    33A     -0.597038
      34A     -0.594069    35A     -0.588350    36A     -0.578060
      37A     -0.569361    38A     -0.562209    39A     -0.546570
      40A     -0.518570    41A     -0.511123    42A     -0.503944
      43A     -0.488387    44A     -0.453848    45A     -0.413493
      46A     -0.381123    47A     -0.336878    48A     -0.329826
      49A     -0.277862

  @DF-RHF Final Energy:  -570.49856974736940

   => Energetics <=

    Nuclear Repulsion Energy =            791.0469604385458524
    One-Electron Energy =               -2342.2217291872943861
    Two-Electron Energy =                 980.6761990013792456
    Total Energy =                       -570.4985697473694017
  Basis Set: (AUG-CC-PVTZ AUX)
    Blend: AUG-CC-PVTZ-RI
    Molecular point group: c1

    Geometry (in Angstrom), charge = 0, multiplicity = 1:

       Center              X                  Y                   Z               Mass
    ------------   -----------------  -----------------  -----------------  -----------------
         N           -0.460177553270     1.066744126114    -0.311722916121    14.003074004430
         N            1.039823446730    -0.724050873886    -0.008655916121    14.003074004430
         C           -1.678799553270     0.392645126114    -0.119623916121    12.000000000000
         C            0.836147446730     0.592511126114    -0.150416916121    12.000000000000
         C            3.433853446730    -0.323618873886     0.117078083879    12.000000000000
         C            1.900107446730     1.519366126114    -0.175870916121    12.000000000000
         C            3.195394446730     1.051379126114    -0.038847916121    12.000000000000
         C           -2.787527553270     1.166702126114     0.262440083879    12.000000000000
         C           -1.852897353270    -0.957389973886    -0.371799716121    12.000000000000
         C            2.311602446730    -1.148732873886     0.121669083879    12.000000000000
         C            4.824330446730    -0.875817873886     0.266796083879    12.000000000000
         C           -4.044257553270     0.585367126114     0.409573083879    12.000000000000
         C           -3.117094553270    -1.548461873886    -0.205390916121    12.000000000000
         C           -4.218060553270    -0.780309873886     0.176756083879    12.000000000000
         H           -0.537084553270     2.075072126114    -0.235761916121     1.007825032230
         H            1.704266446730     2.582965126114    -0.297898916121     1.007825032230
         H            4.028134446730     1.753371126114    -0.051772916121     1.007825032230
         H           -2.656565553270     2.229927126114     0.462510083879     1.007825032230
         H           -1.008336553270    -1.579443873886    -0.673574916121     1.007825032230
         H            2.427483446730    -2.226846873886     0.238027083879     1.007825032230
         H            5.440762446730    -0.642334873886    -0.607285916121     1.007825032230
         H            5.324854446730    -0.457437873886     1.145944083879     1.007825032230
         H            4.799862446730    -1.963180873886     0.379918083879     1.007825032230
         H           -4.887235553270     1.203915126114     0.708923083879     1.007825032230
         H           -3.239480553270    -2.612138873886    -0.397431916121     1.007825032230
         H           -5.195591553270    -1.239447873886     0.298753083879     1.007825032230

  Basis Set: AUG-CC-PVTZ
    Blend: AUG-CC-PVTZ
  Basis Set: (AUG-CC-PVTZ AUX)
    Blend: AUG-CC-PVTZ-JKFIT
	 Reference Energy          =    -570.4985697473694017 [Eh]
	 Singles Energy            =      -0.0000000000000000 [Eh]
	 Same-Spin Energy          =      -0.6364172934477588 [Eh]
	 Opposite-Spin Energy      =      -1.9708815534183035 [Eh]
	 Correlation Energy        =      -2.6072988468660623 [Eh]
	 Total Energy              =    -573.1058685942355169 [Eh]

	 ================> DF-SCS-MP2 Energies <==================
	-----------------------------------------------------------
	 SCS Same-Spin Scale       =       0.3333333333333333 [-]
	 SCS Opposite-Spin Scale   =       1.2000000000000000 [-]
	 SCS Same-Spin Energy      =      -0.2121390978159196 [Eh]
	 SCS Opposite-Spin Energy  =      -2.3650578641019639 [Eh]
	 SCS Correlation Energy    =      -2.5771969619178834 [Eh]
	 SCS Total Energy          =    -573.0757667092873362 [Eh]
	-----------------------------------------------------------

  Dipole Moment: [D]
     X:     1.8346      Y:     1.8416      Z:     0.1657     Total:     2.6047

*** Psi4 exiting successfully. Buy a developer a beer!
