                               Psi4 1.4a3.dev225

  ==> Input File <==

--------------------------------------------------------------------------
#psi4
#
memory 32 gb

molecule  {
0 1
  N       -0.4914050     1.0723760    -0.3164170
  N        1.0085960    -0.7184190    -0.0133500
  C       -1.7100270     0.3982770    -0.1243180
  C        0.8981983     0.5640191    -0.1435041
  C        3.4026260    -0.3179870     0.1123840
  C        1.8688800     1.5249980    -0.1805650
  C        3.1641670     1.0570110    -0.0435420
  C       -2.8187550     1.1723340     0.2577460
  C       -1.8866400    -0.9712620    -0.3801370
  C        2.2803750    -1.1431010     0.1169750
  C        4.7931030    -0.8701860     0.2621020
  C       -4.0754850     0.5909990     0.4048790
  C       -3.1483220    -1.5428300    -0.2100850
  C       -4.2492880    -0.7746780     0.1720620
  H       -0.5683120     2.0807040    -0.2404560
  H        1.6730390     2.5885970    -0.3025930
  H        3.9969070     1.7590030    -0.0564670
  H       -2.6877930     2.2355590     0.4578160
  H       -1.0395640    -1.5738120    -0.6782690
  H        2.3962560    -2.2212150     0.2333330
  H        5.4095350    -0.6367030    -0.6119800
  H        5.2936270    -0.4518060     1.1412500
  H        4.7686350    -1.9575490     0.3752240
  H       -4.9184630     1.2095470     0.7042290
  H       -3.2707080    -2.6065070    -0.4021260
  H       -5.2268190    -1.2338160     0.2940590
units angstrom
no_reorient  #important for SAPT in psi4, default
symmetry c1  #important for SAPT in psi4, default
}

set PROPERTIES_ORIGIN ["COM"]
properties('MP2/aug-cc-pvtz', properties = ['dipole'])
--------------------------------------------------------------------------

    Molecular point group: c1
  Charge       = 0
  Multiplicity = 1
  Basis Set: AUG-CC-PVTZ
    Blend: AUG-CC-PVTZ
  Basis Set: (AUG-CC-PVTZ AUX)
    Blend: AUG-CC-PVTZ-JKFIT

    Orbital Energies [Eh]
    ---------------------

    Doubly Occupied:

       1A    -15.574759     2A    -15.561334     3A    -11.320803
       4A    -11.279277     5A    -11.273887     6A    -11.264852
       7A    -11.244121     8A    -11.242056     9A    -11.234470
      10A    -11.228304    11A    -11.225300    12A    -11.220747
      13A    -11.214579    14A    -11.211630    15A     -1.295939
      16A     -1.212867    17A     -1.122916    18A     -1.110175
      19A     -1.054351    20A     -1.001920    21A     -0.984262
      22A     -0.939400    23A     -0.877889    24A     -0.835491
      25A     -0.817477    26A     -0.796364    27A     -0.714662
      28A     -0.708498    29A     -0.670530    30A     -0.658358
      31A     -0.639533    32A     -0.618782    33A     -0.595629
      34A     -0.591440    35A     -0.579494    36A     -0.574658
      37A     -0.568906    38A     -0.563597    39A     -0.552683
      40A     -0.521948    41A     -0.512067    42A     -0.499094
      43A     -0.482424    44A     -0.444420    45A     -0.429075
      46A     -0.390080    47A     -0.340895    48A     -0.325793
      49A     -0.275926

  @DF-RHF Final Energy:  -570.48823792591497

   => Energetics <=

    Nuclear Repulsion Energy =            790.9678190920038787
    One-Electron Energy =               -2342.1047826007034018
    Two-Electron Energy =                 980.6487255827844365
    Total Energy =                       -570.4882379259149729
  Basis Set: (AUG-CC-PVTZ AUX)
    Blend: AUG-CC-PVTZ-RI
    Molecular point group: c1

    Geometry (in Angstrom), charge = 0, multiplicity = 1:

       Center              X                  Y                   Z               Mass
    ------------   -----------------  -----------------  -----------------  -----------------
         N           -0.466093669042     1.070239690649    -0.312242005610    14.003074004430
         N            1.033907330958    -0.720555309351    -0.009175005610    14.003074004430
         C           -1.684715669042     0.396140690649    -0.120143005610    12.000000000000
         C            0.923509630958     0.561882790649    -0.139329105610    12.000000000000
         C            3.427937330958    -0.320123309351     0.116558994390    12.000000000000
         C            1.894191330958     1.522861690649    -0.176390005610    12.000000000000
         C            3.189478330958     1.054874690649    -0.039367005610    12.000000000000
         C           -2.793443669042     1.170197690649     0.261920994390    12.000000000000
         C           -1.861328669042    -0.973398309351    -0.375962005610    12.000000000000
         C            2.305686330958    -1.145237309351     0.121149994390    12.000000000000
         C            4.818414330958    -0.872322309351     0.266276994390    12.000000000000
         C           -4.050173669042     0.588862690649     0.409053994390    12.000000000000
         C           -3.123010669042    -1.544966309351    -0.205910005610    12.000000000000
         C           -4.223976669042    -0.776814309351     0.176236994390    12.000000000000
         H           -0.543000669042     2.078567690649    -0.236281005610     1.007825032230
         H            1.698350330958     2.586460690649    -0.298418005610     1.007825032230
         H            4.022218330958     1.756866690649    -0.052292005610     1.007825032230
         H           -2.662481669042     2.233422690649     0.461990994390     1.007825032230
         H           -1.014252669042    -1.575948309351    -0.674094005610     1.007825032230
         H            2.421567330958    -2.223351309351     0.237507994390     1.007825032230
         H            5.434846330958    -0.638839309351    -0.607805005610     1.007825032230
         H            5.318938330958    -0.453942309351     1.145424994390     1.007825032230
         H            4.793946330958    -1.959685309351     0.379398994390     1.007825032230
         H           -4.893151669042     1.207410690649     0.708403994390     1.007825032230
         H           -3.245396669042    -2.608643309351    -0.397951005610     1.007825032230
         H           -5.201507669042    -1.235952309351     0.298233994390     1.007825032230

  Basis Set: AUG-CC-PVTZ
    Blend: AUG-CC-PVTZ
  Basis Set: (AUG-CC-PVTZ AUX)
    Blend: AUG-CC-PVTZ-JKFIT
	 Reference Energy          =    -570.4882379259149729 [Eh]
	 Singles Energy            =      -0.0000000000000000 [Eh]
	 Same-Spin Energy          =      -0.6361883098120364 [Eh]
	 Opposite-Spin Energy      =      -1.9708122374762198 [Eh]
	 Correlation Energy        =      -2.6070005472882563 [Eh]
	 Total Energy              =    -573.0952384732032669 [Eh]

	 ================> DF-SCS-MP2 Energies <==================
	-----------------------------------------------------------
	 SCS Same-Spin Scale       =       0.3333333333333333 [-]
	 SCS Opposite-Spin Scale   =       1.2000000000000000 [-]
	 SCS Same-Spin Energy      =      -0.2120627699373455 [Eh]
	 SCS Opposite-Spin Energy  =      -2.3649746849714637 [Eh]
	 SCS Correlation Energy    =      -2.5770374549088091 [Eh]
	 SCS Total Energy          =    -573.0652753808237776 [Eh]
	-----------------------------------------------------------

  Dipole Moment: [D]
     X:     3.0235      Y:     1.7344      Z:     0.2334     Total:     3.4935

*** Psi4 exiting successfully. Buy a developer a beer!
