                               Psi4 1.4a3.dev225

  ==> Input File <==

--------------------------------------------------------------------------
#psi4
#
memory 32 gb

molecule  {
0 1
  N       -0.4914050     1.0723760    -0.3164170
  N        1.0085960    -0.7184190    -0.0133500
  C       -1.7244423     0.3784570    -0.1252083
  C        0.8049200     0.5981430    -0.1551110
  C        3.4026260    -0.3179870     0.1123840
  C        1.8688800     1.5249980    -0.1805650
  C        3.1641670     1.0570110    -0.0435420
  C       -2.8187550     1.1723340     0.2577460
  C       -1.8866400    -0.9712620    -0.3801370
  C        2.2803750    -1.1431010     0.1169750
  C        4.7931030    -0.8701860     0.2621020
  C       -4.0754850     0.5909990     0.4048790
  C       -3.1483220    -1.5428300    -0.2100850
  C       -4.2492880    -0.7746780     0.1720620
  H       -0.5683120     2.0807040    -0.2404560
  H        1.6730390     2.5885970    -0.3025930
  H        3.9969070     1.7590030    -0.0564670
  H       -2.6877930     2.2355590     0.4578160
  H       -1.0395640    -1.5738120    -0.6782690
  H        2.3962560    -2.2212150     0.2333330
  H        5.4095350    -0.6367030    -0.6119800
  H        5.2936270    -0.4518060     1.1412500
  H        4.7686350    -1.9575490     0.3752240
  H       -4.9184630     1.2095470     0.7042290
  H       -3.2707080    -2.6065070    -0.4021260
  H       -5.2268190    -1.2338160     0.2940590
units angstrom
no_reorient  #important for SAPT in psi4, default
symmetry c1  #important for SAPT in psi4, default
}

set PROPERTIES_ORIGIN ["COM"]
properties('MP2/aug-cc-pvtz', properties = ['dipole'])
--------------------------------------------------------------------------

    Molecular point group: c1
  Charge       = 0
  Multiplicity = 1
  Basis Set: AUG-CC-PVTZ
    Blend: AUG-CC-PVTZ
  Basis Set: (AUG-CC-PVTZ AUX)
    Blend: AUG-CC-PVTZ-JKFIT

    Orbital Energies [Eh]
    ---------------------

    Doubly Occupied:

       1A    -15.587140     2A    -15.552309     3A    -11.321507
       4A    -11.280185     5A    -11.271815     6A    -11.257445
       7A    -11.237451     8A    -11.234570     9A    -11.234018
      10A    -11.231425    11A    -11.229988    12A    -11.228135
      13A    -11.222767    14A    -11.217326    15A     -1.289361
      16A     -1.216449    17A     -1.135355    18A     -1.095807
      19A     -1.044236    20A     -1.010597    21A     -0.994291
      22A     -0.933745    23A     -0.866829    24A     -0.840112
      25A     -0.822508    26A     -0.797667    27A     -0.721713
      28A     -0.714307    29A     -0.670503    30A     -0.651524
      31A     -0.635825    32A     -0.621560    33A     -0.596968
      34A     -0.592470    35A     -0.588044    36A     -0.580586
      37A     -0.568006    38A     -0.561619    39A     -0.545943
      40A     -0.518398    41A     -0.511167    42A     -0.503850
      43A     -0.490652    44A     -0.453250    45A     -0.413209
      46A     -0.380428    47A     -0.336328    48A     -0.332325
      49A     -0.278281

  @DF-RHF Final Energy:  -570.49852090056470

   => Energetics <=

    Nuclear Repulsion Energy =            790.7698874854464748
    One-Electron Energy =               -2341.6968276626125771
    Two-Electron Energy =                 980.4284192766015167
    Total Energy =                       -570.4985209005646993
  Basis Set: (AUG-CC-PVTZ AUX)
    Blend: AUG-CC-PVTZ-RI
    Molecular point group: c1

    Geometry (in Angstrom), charge = 0, multiplicity = 1:

       Center              X                  Y                   Z               Mass
    ------------   -----------------  -----------------  -----------------  -----------------
         N           -0.459073990279     1.069307334566    -0.311427413755    14.003074004430
         N            1.040927009721    -0.721487665434    -0.008360413755    14.003074004430
         C           -1.692111290279     0.375388334566    -0.120218713755    12.000000000000
         C            0.837251009721     0.595074334566    -0.150121413755    12.000000000000
         C            3.434957009721    -0.321055665434     0.117373586245    12.000000000000
         C            1.901211009721     1.521929334566    -0.175575413755    12.000000000000
         C            3.196498009721     1.053942334566    -0.038552413755    12.000000000000
         C           -2.786423990279     1.169265334566     0.262735586245    12.000000000000
         C           -1.854308990279    -0.974330665434    -0.375147413755    12.000000000000
         C            2.312706009721    -1.146169665434     0.121964586245    12.000000000000
         C            4.825434009721    -0.873254665434     0.267091586245    12.000000000000
         C           -4.043153990279     0.587930334566     0.409868586245    12.000000000000
         C           -3.115990990279    -1.545898665434    -0.205095413755    12.000000000000
         C           -4.216956990279    -0.777746665434     0.177051586245    12.000000000000
         H           -0.535980990279     2.077635334566    -0.235466413755     1.007825032230
         H            1.705370009721     2.585528334566    -0.297603413755     1.007825032230
         H            4.029238009721     1.755934334566    -0.051477413755     1.007825032230
         H           -2.655461990279     2.232490334566     0.462805586245     1.007825032230
         H           -1.007232990279    -1.576880665434    -0.673279413755     1.007825032230
         H            2.428587009721    -2.224283665434     0.238322586245     1.007825032230
         H            5.441866009721    -0.639771665434    -0.606990413755     1.007825032230
         H            5.325958009721    -0.454874665434     1.146239586245     1.007825032230
         H            4.800966009721    -1.960617665434     0.380213586245     1.007825032230
         H           -4.886131990279     1.206478334566     0.709218586245     1.007825032230
         H           -3.238376990279    -2.609575665434    -0.397136413755     1.007825032230
         H           -5.194487990279    -1.236884665434     0.299048586245     1.007825032230

  Basis Set: AUG-CC-PVTZ
    Blend: AUG-CC-PVTZ
  Basis Set: (AUG-CC-PVTZ AUX)
    Blend: AUG-CC-PVTZ-JKFIT
	 Reference Energy          =    -570.4985209005646993 [Eh]
	 Singles Energy            =      -0.0000000000000000 [Eh]
	 Same-Spin Energy          =      -0.6362114274553511 [Eh]
	 Opposite-Spin Energy      =      -1.9707082535612652 [Eh]
	 Correlation Energy        =      -2.6069196810166164 [Eh]
	 Total Energy              =    -573.1054405815813197 [Eh]

	 ================> DF-SCS-MP2 Energies <==================
	-----------------------------------------------------------
	 SCS Same-Spin Scale       =       0.3333333333333333 [-]
	 SCS Opposite-Spin Scale   =       1.2000000000000000 [-]
	 SCS Same-Spin Energy      =      -0.2120704758184503 [Eh]
	 SCS Opposite-Spin Energy  =      -2.3648499042735183 [Eh]
	 SCS Correlation Energy    =      -2.5769203800919684 [Eh]
	 SCS Total Energy          =    -573.0754412806567188 [Eh]
	-----------------------------------------------------------

  Dipole Moment: [D]
     X:     1.6757      Y:     1.8179      Z:     0.1741     Total:     2.4786

*** Psi4 exiting successfully. Buy a developer a beer!
