                               Psi4 1.4a3.dev225

  ==> Input File <==

--------------------------------------------------------------------------
#psi4
#
memory 32 gb

molecule  {
0 1
  N       -0.5376934     1.1556277    -0.2928558
  N        1.0085960    -0.7184190    -0.0133500
  C       -1.7100270     0.3982770    -0.1243180
  C        0.8049200     0.5981430    -0.1551110
  C        3.4026260    -0.3179870     0.1123840
  C        1.8688800     1.5249980    -0.1805650
  C        3.1641670     1.0570110    -0.0435420
  C       -2.8187550     1.1723340     0.2577460
  C       -1.8866400    -0.9712620    -0.3801370
  C        2.2803750    -1.1431010     0.1169750
  C        4.7931030    -0.8701860     0.2621020
  C       -4.0754850     0.5909990     0.4048790
  C       -3.1483220    -1.5428300    -0.2100850
  C       -4.2492880    -0.7746780     0.1720620
  H       -0.5683120     2.0807040    -0.2404560
  H        1.6730390     2.5885970    -0.3025930
  H        3.9969070     1.7590030    -0.0564670
  H       -2.6877930     2.2355590     0.4578160
  H       -1.0395640    -1.5738120    -0.6782690
  H        2.3962560    -2.2212150     0.2333330
  H        5.4095350    -0.6367030    -0.6119800
  H        5.2936270    -0.4518060     1.1412500
  H        4.7686350    -1.9575490     0.3752240
  H       -4.9184630     1.2095470     0.7042290
  H       -3.2707080    -2.6065070    -0.4021260
  H       -5.2268190    -1.2338160     0.2940590
units angstrom
no_reorient  #important for SAPT in psi4, default
symmetry c1  #important for SAPT in psi4, default
}

set PROPERTIES_ORIGIN ["COM"]
properties('MP2/aug-cc-pvtz', properties = ['dipole'])
--------------------------------------------------------------------------

    Molecular point group: c1
  Charge       = 0
  Multiplicity = 1
  Basis Set: AUG-CC-PVTZ
    Blend: AUG-CC-PVTZ
  Basis Set: (AUG-CC-PVTZ AUX)
    Blend: AUG-CC-PVTZ-JKFIT

    Orbital Energies [Eh]
    ---------------------

    Doubly Occupied:

       1A    -15.580474     2A    -15.560715     3A    -11.327835
       4A    -11.278590     5A    -11.275692     6A    -11.260250
       7A    -11.242266     8A    -11.240388     9A    -11.231695
      10A    -11.230642    11A    -11.229145    12A    -11.223508
      13A    -11.218578    14A    -11.217771    15A     -1.285566
      16A     -1.224429    17A     -1.129445    18A     -1.100237
      19A     -1.047062    20A     -1.005620    21A     -0.990720
      22A     -0.939872    23A     -0.868415    24A     -0.838273
      25A     -0.819217    26A     -0.804577    27A     -0.726327
      28A     -0.712598    29A     -0.668988    30A     -0.663416
      31A     -0.638187    32A     -0.621197    33A     -0.598558
      34A     -0.591158    35A     -0.584285    36A     -0.578490
      37A     -0.568802    38A     -0.560260    39A     -0.549914
      40A     -0.521304    41A     -0.512013    42A     -0.501783
      43A     -0.485438    44A     -0.451104    45A     -0.416181
      46A     -0.383592    47A     -0.336788    48A     -0.328675
      49A     -0.278594

  @DF-RHF Final Energy:  -570.48708632915282

   => Energetics <=

    Nuclear Repulsion Energy =            789.5140817027009916
    One-Electron Energy =               -2339.1050647583128921
    Two-Electron Energy =                 979.1038967264591975
    Total Energy =                       -570.4870863291528167
  Basis Set: (AUG-CC-PVTZ AUX)
    Blend: AUG-CC-PVTZ-RI
    Molecular point group: c1

    Geometry (in Angstrom), charge = 0, multiplicity = 1:

       Center              X                  Y                   Z               Mass
    ------------   -----------------  -----------------  -----------------  -----------------
         N           -0.502781205239     1.144934812148    -0.289716364421    14.003074004430
         N            1.043508194761    -0.729111887852    -0.010210564421    14.003074004430
         C           -1.675114805239     0.387584112148    -0.121178564421    12.000000000000
         C            0.839832194761     0.587450112148    -0.151971564421    12.000000000000
         C            3.437538194761    -0.328679887852     0.115523435579    12.000000000000
         C            1.903792194761     1.514305112148    -0.177425564421    12.000000000000
         C            3.199079194761     1.046318112148    -0.040402564421    12.000000000000
         C           -2.783842805239     1.161641112148     0.260885435579    12.000000000000
         C           -1.851727805239    -0.981954887852    -0.376997564421    12.000000000000
         C            2.315287194761    -1.153793887852     0.120114435579    12.000000000000
         C            4.828015194761    -0.880878887852     0.265241435579    12.000000000000
         C           -4.040572805239     0.580306112148     0.408018435579    12.000000000000
         C           -3.113409805239    -1.553522887852    -0.206945564421    12.000000000000
         C           -4.214375805239    -0.785370887852     0.175201435579    12.000000000000
         H           -0.533399805239     2.070011112148    -0.237316564421     1.007825032230
         H            1.707951194761     2.577904112148    -0.299453564421     1.007825032230
         H            4.031819194761     1.748310112148    -0.053327564421     1.007825032230
         H           -2.652880805239     2.224866112148     0.460955435579     1.007825032230
         H           -1.004651805239    -1.584504887852    -0.675129564421     1.007825032230
         H            2.431168194761    -2.231907887852     0.236472435579     1.007825032230
         H            5.444447194761    -0.647395887852    -0.608840564421     1.007825032230
         H            5.328539194761    -0.462498887852     1.144389435579     1.007825032230
         H            4.803547194761    -1.968241887852     0.378363435579     1.007825032230
         H           -4.883550805239     1.198854112148     0.707368435579     1.007825032230
         H           -3.235795805239    -2.617199887852    -0.398986564421     1.007825032230
         H           -5.191906805239    -1.244508887852     0.297198435579     1.007825032230

  Basis Set: AUG-CC-PVTZ
    Blend: AUG-CC-PVTZ
  Basis Set: (AUG-CC-PVTZ AUX)
    Blend: AUG-CC-PVTZ-JKFIT
	 Reference Energy          =    -570.4870863291528167 [Eh]
	 Singles Energy            =      -0.0000000000000000 [Eh]
	 Same-Spin Energy          =      -0.6358606583209538 [Eh]
	 Opposite-Spin Energy      =      -1.9704190354042481 [Eh]
	 Correlation Energy        =      -2.6062796937252020 [Eh]
	 Total Energy              =    -573.0933660228780582 [Eh]

	 ================> DF-SCS-MP2 Energies <==================
	-----------------------------------------------------------
	 SCS Same-Spin Scale       =       0.3333333333333333 [-]
	 SCS Opposite-Spin Scale   =       1.2000000000000000 [-]
	 SCS Same-Spin Energy      =      -0.2119535527736513 [Eh]
	 SCS Opposite-Spin Energy  =      -2.3645028424850976 [Eh]
	 SCS Correlation Energy    =      -2.5764563952587487 [Eh]
	 SCS Total Energy          =    -573.0635427244116045 [Eh]
	-----------------------------------------------------------

  Dipole Moment: [D]
     X:     2.3770      Y:     1.7600      Z:     0.1566     Total:     2.9618

*** Psi4 exiting successfully. Buy a developer a beer!
