                               Psi4 1.4a3.dev225

  ==> Input File <==

--------------------------------------------------------------------------
#psi4
#
memory 32 gb

molecule  {
0 1
  N       -0.4914050     1.0723760    -0.3164170
  N        1.0085960    -0.7184190    -0.0133500
  C       -1.6233434     0.4462273    -0.1379825
  C        0.8049200     0.5981430    -0.1551110
  C        3.4026260    -0.3179870     0.1123840
  C        1.8688800     1.5249980    -0.1805650
  C        3.1641670     1.0570110    -0.0435420
  C       -2.8187550     1.1723340     0.2577460
  C       -1.8866400    -0.9712620    -0.3801370
  C        2.2803750    -1.1431010     0.1169750
  C        4.7931030    -0.8701860     0.2621020
  C       -4.0754850     0.5909990     0.4048790
  C       -3.1483220    -1.5428300    -0.2100850
  C       -4.2492880    -0.7746780     0.1720620
  H       -0.5683120     2.0807040    -0.2404560
  H        1.6730390     2.5885970    -0.3025930
  H        3.9969070     1.7590030    -0.0564670
  H       -2.6877930     2.2355590     0.4578160
  H       -1.0395640    -1.5738120    -0.6782690
  H        2.3962560    -2.2212150     0.2333330
  H        5.4095350    -0.6367030    -0.6119800
  H        5.2936270    -0.4518060     1.1412500
  H        4.7686350    -1.9575490     0.3752240
  H       -4.9184630     1.2095470     0.7042290
  H       -3.2707080    -2.6065070    -0.4021260
  H       -5.2268190    -1.2338160     0.2940590
units angstrom
no_reorient  #important for SAPT in psi4, default
symmetry c1  #important for SAPT in psi4, default
}

set PROPERTIES_ORIGIN ["COM"]
properties('MP2/aug-cc-pvtz', properties = ['dipole'])
--------------------------------------------------------------------------

    Molecular point group: c1
  Charge       = 0
  Multiplicity = 1
  Basis Set: AUG-CC-PVTZ
    Blend: AUG-CC-PVTZ
  Basis Set: (AUG-CC-PVTZ AUX)
    Blend: AUG-CC-PVTZ-JKFIT

    Orbital Energies [Eh]
    ---------------------

    Doubly Occupied:

       1A    -15.598827     2A    -15.560668     3A    -11.329050
       4A    -11.285502     5A    -11.277465     6A    -11.263225
       7A    -11.245589     8A    -11.241613     9A    -11.232794
      10A    -11.229799    11A    -11.226386    12A    -11.226228
      13A    -11.217736    14A    -11.213872    15A     -1.316818
      16A     -1.237435    17A     -1.120488    18A     -1.102456
      19A     -1.054361    20A     -0.998154    21A     -0.987101
      22A     -0.939289    23A     -0.877325    24A     -0.848274
      25A     -0.817710    26A     -0.797669    27A     -0.731318
      28A     -0.724598    29A     -0.668701    30A     -0.662329
      31A     -0.643881    32A     -0.622202    33A     -0.604876
      34A     -0.593615    35A     -0.585969    36A     -0.575742
      37A     -0.570939    38A     -0.564564    39A     -0.550861
      40A     -0.522873    41A     -0.512485    42A     -0.505253
      43A     -0.470212    44A     -0.454088    45A     -0.418861
      46A     -0.386134    47A     -0.337388    48A     -0.325382
      49A     -0.267163

  @DF-RHF Final Energy:  -570.48347995444203

   => Energetics <=

    Nuclear Repulsion Energy =            791.0588270390081789
    One-Electron Energy =               -2341.9940788073276963
    Two-Electron Energy =                 980.4517718138775990
    Total Energy =                       -570.4834799544420321
  Basis Set: (AUG-CC-PVTZ AUX)
    Blend: AUG-CC-PVTZ-RI
    Molecular point group: c1

    Geometry (in Angstrom), charge = 0, multiplicity = 1:

       Center              X                  Y                   Z               Mass
    ------------   -----------------  -----------------  -----------------  -----------------
         N           -0.465663813642     1.064889934314    -0.310594766499    14.003074004430
         N            1.034337186358    -0.725905065686    -0.007527766499    14.003074004430
         C           -1.597602213642     0.438741234314    -0.132160266499    12.000000000000
         C            0.830661186358     0.590656934314    -0.149288766499    12.000000000000
         C            3.428367186358    -0.325473065686     0.118206233501    12.000000000000
         C            1.894621186358     1.517511934314    -0.174742766499    12.000000000000
         C            3.189908186358     1.049524934314    -0.037719766499    12.000000000000
         C           -2.793013813642     1.164847934314     0.263568233501    12.000000000000
         C           -1.860898813642    -0.978748065686    -0.374314766499    12.000000000000
         C            2.306116186358    -1.150587065686     0.122797233501    12.000000000000
         C            4.818844186358    -0.877672065686     0.267924233501    12.000000000000
         C           -4.049743813642     0.583512934314     0.410701233501    12.000000000000
         C           -3.122580813642    -1.550316065686    -0.204262766499    12.000000000000
         C           -4.223546813642    -0.782164065686     0.177884233501    12.000000000000
         H           -0.542570813642     2.073217934314    -0.234633766499     1.007825032230
         H            1.698780186358     2.581110934314    -0.296770766499     1.007825032230
         H            4.022648186358     1.751516934314    -0.050644766499     1.007825032230
         H           -2.662051813642     2.228072934314     0.463638233501     1.007825032230
         H           -1.013822813642    -1.581298065686    -0.672446766499     1.007825032230
         H            2.421997186358    -2.228701065686     0.239155233501     1.007825032230
         H            5.435276186358    -0.644189065686    -0.606157766499     1.007825032230
         H            5.319368186358    -0.459292065686     1.147072233501     1.007825032230
         H            4.794376186358    -1.965035065686     0.381046233501     1.007825032230
         H           -4.892721813642     1.202060934314     0.710051233501     1.007825032230
         H           -3.244966813642    -2.613993065686    -0.396303766499     1.007825032230
         H           -5.201077813642    -1.241302065686     0.299881233501     1.007825032230

  Basis Set: AUG-CC-PVTZ
    Blend: AUG-CC-PVTZ
  Basis Set: (AUG-CC-PVTZ AUX)
    Blend: AUG-CC-PVTZ-JKFIT
	 Reference Energy          =    -570.4834799544420321 [Eh]
	 Singles Energy            =      -0.0000000000000000 [Eh]
	 Same-Spin Energy          =      -0.6378028761700447 [Eh]
	 Opposite-Spin Energy      =      -1.9726903938480647 [Eh]
	 Correlation Energy        =      -2.6104932700181092 [Eh]
	 Total Energy              =    -573.0939732244601146 [Eh]

	 ================> DF-SCS-MP2 Energies <==================
	-----------------------------------------------------------
	 SCS Same-Spin Scale       =       0.3333333333333333 [-]
	 SCS Opposite-Spin Scale   =       1.2000000000000000 [-]
	 SCS Same-Spin Energy      =      -0.2126009587233482 [Eh]
	 SCS Opposite-Spin Energy  =      -2.3672284726176773 [Eh]
	 SCS Correlation Energy    =      -2.5798294313410257 [Eh]
	 SCS Total Energy          =    -573.0633093857831000 [Eh]
	-----------------------------------------------------------

  Dipole Moment: [D]
     X:     2.7911      Y:     2.0293      Z:     0.0965     Total:     3.4522

*** Psi4 exiting successfully. Buy a developer a beer!
