                               Psi4 1.4a3.dev225

  ==> Input File <==

--------------------------------------------------------------------------
#psi4
#
memory 32 gb

molecule  {
0 1
  N       -0.4914050     1.0723760    -0.3164170
  N        1.0085960    -0.7184190    -0.0133500
  C       -1.7100270     0.3982770    -0.1243180
  C        0.8049200     0.5981430    -0.1551110
  C        3.4026260    -0.3179870     0.1123840
  C        1.8688800     1.5249980    -0.1805650
  C        3.1641670     1.0570110    -0.0435420
  C       -2.8187550     1.1723340     0.2577460
  C       -1.8866400    -0.9712620    -0.3801370
  C        2.2803750    -1.1431010     0.1169750
  C        4.7931030    -0.8701860     0.2621020
  C       -4.0754850     0.5909990     0.4048790
  C       -3.1483220    -1.5428300    -0.2100850
  C       -4.2492880    -0.7746780     0.1720620
  H       -0.5683120     2.0807040    -0.2404560
  H        1.6910334     2.4908704    -0.2913807
  H        3.9969070     1.7590030    -0.0564670
  H       -2.6877930     2.2355590     0.4578160
  H       -1.0395640    -1.5738120    -0.6782690
  H        2.3962560    -2.2212150     0.2333330
  H        5.4095350    -0.6367030    -0.6119800
  H        5.2936270    -0.4518060     1.1412500
  H        4.7686350    -1.9575490     0.3752240
  H       -4.9184630     1.2095470     0.7042290
  H       -3.2707080    -2.6065070    -0.4021260
  H       -5.2268190    -1.2338160     0.2940590
units angstrom
no_reorient  #important for SAPT in psi4, default
symmetry c1  #important for SAPT in psi4, default
}

set PROPERTIES_ORIGIN ["COM"]
properties('MP2/aug-cc-pvtz', properties = ['dipole'])
--------------------------------------------------------------------------

    Molecular point group: c1
  Charge       = 0
  Multiplicity = 1
  Basis Set: AUG-CC-PVTZ
    Blend: AUG-CC-PVTZ
  Basis Set: (AUG-CC-PVTZ AUX)
    Blend: AUG-CC-PVTZ-JKFIT

    Orbital Energies [Eh]
    ---------------------

    Doubly Occupied:

       1A    -15.589325     2A    -15.552912     3A    -11.322070
       4A    -11.281017     5A    -11.272397     6A    -11.257600
       7A    -11.234619     8A    -11.233764     9A    -11.230321
      10A    -11.228656    11A    -11.228518    12A    -11.226792
      13A    -11.221480    14A    -11.218430    15A     -1.293003
      16A     -1.219798    17A     -1.132878    18A     -1.097530
      19A     -1.048546    20A     -1.008080    21A     -0.993449
      22A     -0.934599    23A     -0.871696    24A     -0.843337
      25A     -0.823082    26A     -0.797944    27A     -0.724297
      28A     -0.716308    29A     -0.670967    30A     -0.660795
      31A     -0.646600    32A     -0.622287    33A     -0.596132
      34A     -0.593637    35A     -0.588402    36A     -0.579661
      37A     -0.569180    38A     -0.562197    39A     -0.546664
      40A     -0.520406    41A     -0.511434    42A     -0.504456
      43A     -0.487424    44A     -0.454031    45A     -0.414329
      46A     -0.380841    47A     -0.336377    48A     -0.330467
      49A     -0.276831

  @DF-RHF Final Energy:  -570.49328147608560

   => Energetics <=

    Nuclear Repulsion Energy =            791.3280271910031161
    One-Electron Energy =               -2342.7314806772037628
    Two-Electron Energy =                 980.9101720101151614
    Total Energy =                       -570.4932814760855990
  Basis Set: (AUG-CC-PVTZ AUX)
    Blend: AUG-CC-PVTZ-RI
    Molecular point group: c1

    Geometry (in Angstrom), charge = 0, multiplicity = 1:

       Center              X                  Y                   Z               Mass
    ------------   -----------------  -----------------  -----------------  -----------------
         N           -0.460112114975     1.068550416317    -0.311546825112    14.003074004430
         N            1.039888885025    -0.722244583683    -0.008479825112    14.003074004430
         C           -1.678734114975     0.394451416317    -0.119447825112    12.000000000000
         C            0.836212885025     0.594317416317    -0.150240825112    12.000000000000
         C            3.433918885025    -0.321812583683     0.117254174888    12.000000000000
         C            1.900172885025     1.521172416317    -0.175694825112    12.000000000000
         C            3.195459885025     1.053185416317    -0.038671825112    12.000000000000
         C           -2.787462114975     1.168508416317     0.262616174888    12.000000000000
         C           -1.855347114975    -0.975087583683    -0.375266825112    12.000000000000
         C            2.311667885025    -1.146926583683     0.121845174888    12.000000000000
         C            4.824395885025    -0.874011583683     0.266972174888    12.000000000000
         C           -4.044192114975     0.587173416317     0.409749174888    12.000000000000
         C           -3.117029114975    -1.546655583683    -0.205214825112    12.000000000000
         C           -4.217995114975    -0.778503583683     0.176932174888    12.000000000000
         H           -0.537019114975     2.076878416317    -0.235585825112     1.007825032230
         H            1.722326285025     2.487044816317    -0.286510525112     1.007825032230
         H            4.028199885025     1.755177416317    -0.051596825112     1.007825032230
         H           -2.656500114975     2.231733416317     0.462686174888     1.007825032230
         H           -1.008271114975    -1.577637583683    -0.673398825112     1.007825032230
         H            2.427548885025    -2.225040583683     0.238203174888     1.007825032230
         H            5.440827885025    -0.640528583683    -0.607109825112     1.007825032230
         H            5.324919885025    -0.455631583683     1.146120174888     1.007825032230
         H            4.799927885025    -1.961374583683     0.380094174888     1.007825032230
         H           -4.887170114975     1.205721416317     0.709099174888     1.007825032230
         H           -3.239415114975    -2.610332583683    -0.397255825112     1.007825032230
         H           -5.195526114975    -1.237641583683     0.298929174888     1.007825032230

  Basis Set: AUG-CC-PVTZ
    Blend: AUG-CC-PVTZ
  Basis Set: (AUG-CC-PVTZ AUX)
    Blend: AUG-CC-PVTZ-JKFIT
	 Reference Energy          =    -570.4932814760855990 [Eh]
	 Singles Energy            =      -0.0000000000000000 [Eh]
	 Same-Spin Energy          =      -0.6362024596273940 [Eh]
	 Opposite-Spin Energy      =      -1.9702553199608905 [Eh]
	 Correlation Energy        =      -2.6064577795882844 [Eh]
	 Total Energy              =    -573.0997392556738532 [Eh]

	 ================> DF-SCS-MP2 Energies <==================
	-----------------------------------------------------------
	 SCS Same-Spin Scale       =       0.3333333333333333 [-]
	 SCS Opposite-Spin Scale   =       1.2000000000000000 [-]
	 SCS Same-Spin Energy      =      -0.2120674865424647 [Eh]
	 SCS Opposite-Spin Energy  =      -2.3643063839530685 [Eh]
	 SCS Correlation Energy    =      -2.5763738704955332 [Eh]
	 SCS Total Energy          =    -573.0696553465811576 [Eh]
	-----------------------------------------------------------

  Dipole Moment: [D]
     X:     1.8554      Y:     1.8799      Z:     0.1599     Total:     2.6461

*** Psi4 exiting successfully. Buy a developer a beer!
