                               Psi4 1.4a3.dev225

  ==> Input File <==

--------------------------------------------------------------------------
#psi4
#
memory 32 gb

molecule  {
0 1
  N       -0.4914050     1.0723760    -0.3164170
  N        1.0085960    -0.7184190    -0.0133500
  C       -1.7100270     0.3982770    -0.1243180
  C        0.8049200     0.5981430    -0.1551110
  C        3.4026260    -0.3179870     0.1123840
  C        1.8688800     1.5249980    -0.1805650
  C        3.1641670     1.0570110    -0.0435420
  C       -2.8187550     1.1723340     0.2577460
  C       -1.8866400    -0.9712620    -0.3801370
  C        2.0915620    -1.0800511     0.0976265
  C        4.7931030    -0.8701860     0.2621020
  C       -4.0754850     0.5909990     0.4048790
  C       -3.1483220    -1.5428300    -0.2100850
  C       -4.2492880    -0.7746780     0.1720620
  H       -0.5683120     2.0807040    -0.2404560
  H        1.6730390     2.5885970    -0.3025930
  H        3.9969070     1.7590030    -0.0564670
  H       -2.6877930     2.2355590     0.4578160
  H       -1.0395640    -1.5738120    -0.6782690
  H        2.3962560    -2.2212150     0.2333330
  H        5.4095350    -0.6367030    -0.6119800
  H        5.2936270    -0.4518060     1.1412500
  H        4.7686350    -1.9575490     0.3752240
  H       -4.9184630     1.2095470     0.7042290
  H       -3.2707080    -2.6065070    -0.4021260
  H       -5.2268190    -1.2338160     0.2940590
units angstrom
no_reorient  #important for SAPT in psi4, default
symmetry c1  #important for SAPT in psi4, default
}

set PROPERTIES_ORIGIN ["COM"]
properties('MP2/aug-cc-pvtz', properties = ['dipole'])
--------------------------------------------------------------------------

    Molecular point group: c1
  Charge       = 0
  Multiplicity = 1
  Basis Set: AUG-CC-PVTZ
    Blend: AUG-CC-PVTZ
  Basis Set: (AUG-CC-PVTZ AUX)
    Blend: AUG-CC-PVTZ-JKFIT

    Orbital Energies [Eh]
    ---------------------

    Doubly Occupied:

       1A    -15.591360     2A    -15.550244     3A    -11.327359
       4A    -11.283856     5A    -11.277279     6A    -11.248928
       7A    -11.238725     8A    -11.236140     9A    -11.233231
      10A    -11.230678    11A    -11.230499    12A    -11.229887
      13A    -11.223341    14A    -11.221682    15A     -1.340281
      16A     -1.253506    17A     -1.137313    18A     -1.098492
      19A     -1.040244    20A     -1.010778    21A     -0.992066
      22A     -0.936802    23A     -0.863287    24A     -0.840541
      25A     -0.825072    26A     -0.803627    27A     -0.725699
      28A     -0.716534    29A     -0.673454    30A     -0.661464
      31A     -0.634836    32A     -0.616914    33A     -0.604182
      34A     -0.597286    35A     -0.583618    36A     -0.580032
      37A     -0.571615    38A     -0.567950    39A     -0.553693
      40A     -0.527502    41A     -0.520803    42A     -0.504832
      43A     -0.488310    44A     -0.463590    45A     -0.403518
      46A     -0.389641    47A     -0.334558    48A     -0.328660
      49A     -0.266119

  @DF-RHF Final Energy:  -570.44003866473884

   => Energetics <=

    Nuclear Repulsion Energy =            793.7673752191973335
    One-Electron Energy =               -2347.2547720097577439
    Two-Electron Energy =                 983.0473581258216882
    Total Energy =                       -570.4400386647388359
  Basis Set: (AUG-CC-PVTZ AUX)
    Blend: AUG-CC-PVTZ-RI
    Molecular point group: c1

    Geometry (in Angstrom), charge = 0, multiplicity = 1:

       Center              X                  Y                   Z               Mass
    ------------   -----------------  -----------------  -----------------  -----------------
         N           -0.447706408259     1.063905712955    -0.310224272300    14.003074004430
         N            1.052294591741    -0.726889287045    -0.007157272300    14.003074004430
         C           -1.666328408259     0.389806712955    -0.118125272300    12.000000000000
         C            0.848618591741     0.589672712955    -0.148918272300    12.000000000000
         C            3.446324591741    -0.326457287045     0.118576727700    12.000000000000
         C            1.912578591741     1.516527712955    -0.174372272300    12.000000000000
         C            3.207865591741     1.048540712955    -0.037349272300    12.000000000000
         C           -2.775056408259     1.163863712955     0.263938727700    12.000000000000
         C           -1.842941408259    -0.979732287045    -0.373944272300    12.000000000000
         C            2.135260591741    -1.088521387045     0.103819227700    12.000000000000
         C            4.836801591741    -0.878656287045     0.268294727700    12.000000000000
         C           -4.031786408259     0.582528712955     0.411071727700    12.000000000000
         C           -3.104623408259    -1.551300287045    -0.203892272300    12.000000000000
         C           -4.205589408259    -0.783148287045     0.178254727700    12.000000000000
         H           -0.524613408259     2.072233712955    -0.234263272300     1.007825032230
         H            1.716737591741     2.580126712955    -0.296400272300     1.007825032230
         H            4.040605591741     1.750532712955    -0.050274272300     1.007825032230
         H           -2.644094408259     2.227088712955     0.464008727700     1.007825032230
         H           -0.995865408259    -1.582282287045    -0.672076272300     1.007825032230
         H            2.439954591741    -2.229685287045     0.239525727700     1.007825032230
         H            5.453233591741    -0.645173287045    -0.605787272300     1.007825032230
         H            5.337325591741    -0.460276287045     1.147442727700     1.007825032230
         H            4.812333591741    -1.966019287045     0.381416727700     1.007825032230
         H           -4.874764408259     1.201076712955     0.710421727700     1.007825032230
         H           -3.227009408259    -2.614977287045    -0.395933272300     1.007825032230
         H           -5.183120408259    -1.242286287045     0.300251727700     1.007825032230

  Basis Set: AUG-CC-PVTZ
    Blend: AUG-CC-PVTZ
  Basis Set: (AUG-CC-PVTZ AUX)
    Blend: AUG-CC-PVTZ-JKFIT
	 Reference Energy          =    -570.4400386647388359 [Eh]
	 Singles Energy            =      -0.0000000000000000 [Eh]
	 Same-Spin Energy          =      -0.6357006338830195 [Eh]
	 Opposite-Spin Energy      =      -1.9696578786972667 [Eh]
	 Correlation Energy        =      -2.6053585125802861 [Eh]
	 Total Energy              =    -573.0453971773191597 [Eh]

	 ================> DF-SCS-MP2 Energies <==================
	-----------------------------------------------------------
	 SCS Same-Spin Scale       =       0.3333333333333333 [-]
	 SCS Opposite-Spin Scale   =       1.2000000000000000 [-]
	 SCS Same-Spin Energy      =      -0.2119002112943398 [Eh]
	 SCS Opposite-Spin Energy  =      -2.3635894544367200 [Eh]
	 SCS Correlation Energy    =      -2.5754896657310598 [Eh]
	 SCS Total Energy          =    -573.0155283304699196 [Eh]
	-----------------------------------------------------------

  Dipole Moment: [D]
     X:     1.4767      Y:     1.8600      Z:     0.1431     Total:     2.3793

*** Psi4 exiting successfully. Buy a developer a beer!
