                               Psi4 1.4a3.dev225

  ==> Input File <==

--------------------------------------------------------------------------
#psi4
#
memory 32 gb

molecule  {
0 1
  N       -0.4914050     1.0723760    -0.3164170
  N        1.0085960    -0.7184190    -0.0133500
  C       -1.7533688     0.3743018    -0.1174858
  C        0.8049200     0.5981430    -0.1551110
  C        3.4026260    -0.3179870     0.1123840
  C        1.8688800     1.5249980    -0.1805650
  C        3.1641670     1.0570110    -0.0435420
  C       -2.8187550     1.1723340     0.2577460
  C       -1.8866400    -0.9712620    -0.3801370
  C        2.2803750    -1.1431010     0.1169750
  C        4.7931030    -0.8701860     0.2621020
  C       -4.0754850     0.5909990     0.4048790
  C       -3.1483220    -1.5428300    -0.2100850
  C       -4.2492880    -0.7746780     0.1720620
  H       -0.5683120     2.0807040    -0.2404560
  H        1.6730390     2.5885970    -0.3025930
  H        3.9969070     1.7590030    -0.0564670
  H       -2.6877930     2.2355590     0.4578160
  H       -1.0395640    -1.5738120    -0.6782690
  H        2.3962560    -2.2212150     0.2333330
  H        5.4095350    -0.6367030    -0.6119800
  H        5.2936270    -0.4518060     1.1412500
  H        4.7686350    -1.9575490     0.3752240
  H       -4.9184630     1.2095470     0.7042290
  H       -3.2707080    -2.6065070    -0.4021260
  H       -5.2268190    -1.2338160     0.2940590
units angstrom
no_reorient  #important for SAPT in psi4, default
symmetry c1  #important for SAPT in psi4, default
}

set PROPERTIES_ORIGIN ["COM"]
properties('MP2/aug-cc-pvtz', properties = ['dipole'])
--------------------------------------------------------------------------

    Molecular point group: c1
  Charge       = 0
  Multiplicity = 1
  Basis Set: AUG-CC-PVTZ
    Blend: AUG-CC-PVTZ
  Basis Set: (AUG-CC-PVTZ AUX)
    Blend: AUG-CC-PVTZ-JKFIT

    Orbital Energies [Eh]
    ---------------------

    Doubly Occupied:

       1A    -15.584371     2A    -15.550687     3A    -11.320129
       4A    -11.279347     5A    -11.270695     6A    -11.256296
       7A    -11.235893     8A    -11.235710     9A    -11.232556
      10A    -11.232375    11A    -11.229482    12A    -11.227230
      13A    -11.224399    14A    -11.218489    15A     -1.285019
      16A     -1.212342    17A     -1.138664    18A     -1.094503
      19A     -1.042535    20A     -1.013502    21A     -0.996041
      22A     -0.932323    23A     -0.864771    24A     -0.839824
      25A     -0.822612    26A     -0.798317    27A     -0.720218
      28A     -0.712188    29A     -0.669963    30A     -0.649499
      31A     -0.634187    32A     -0.622885    33A     -0.597893
      34A     -0.590805    35A     -0.587988    36A     -0.581893
      37A     -0.566090    38A     -0.560195    39A     -0.544972
      40A     -0.517627    41A     -0.511887    42A     -0.502648
      43A     -0.494815    44A     -0.451988    45A     -0.412039
      46A     -0.379295    47A     -0.337691    48A     -0.333267
      49A     -0.279710

  @DF-RHF Final Energy:  -570.49666511544126

   => Energetics <=

    Nuclear Repulsion Energy =            790.7019528605632104
    One-Electron Energy =               -2341.6015254574822393
    Two-Electron Energy =                 980.4029074814776550
    Total Energy =                       -570.4966651154412602
  Basis Set: (AUG-CC-PVTZ AUX)
    Blend: AUG-CC-PVTZ-RI
    Molecular point group: c1

    Geometry (in Angstrom), charge = 0, multiplicity = 1:

       Center              X                  Y                   Z               Mass
    ------------   -----------------  -----------------  -----------------  -----------------
         N           -0.457188504626     1.069578178601    -0.311930781357    14.003074004430
         N            1.042812495374    -0.721216821399    -0.008863781357    14.003074004430
         C           -1.719152304626     0.371503978601    -0.112999581357    12.000000000000
         C            0.839136495374     0.595345178601    -0.150624781357    12.000000000000
         C            3.436842495374    -0.320784821399     0.116870218643    12.000000000000
         C            1.903096495374     1.522200178601    -0.176078781357    12.000000000000
         C            3.198383495374     1.054213178601    -0.039055781357    12.000000000000
         C           -2.784538504626     1.169536178601     0.262232218643    12.000000000000
         C           -1.852423504626    -0.974059821399    -0.375650781357    12.000000000000
         C            2.314591495374    -1.145898821399     0.121461218643    12.000000000000
         C            4.827319495374    -0.872983821399     0.266588218643    12.000000000000
         C           -4.041268504626     0.588201178601     0.409365218643    12.000000000000
         C           -3.114105504626    -1.545627821399    -0.205598781357    12.000000000000
         C           -4.215071504626    -0.777475821399     0.176548218643    12.000000000000
         H           -0.534095504626     2.077906178601    -0.235969781357     1.007825032230
         H            1.707255495374     2.585799178601    -0.298106781357     1.007825032230
         H            4.031123495374     1.756205178601    -0.051980781357     1.007825032230
         H           -2.653576504626     2.232761178601     0.462302218643     1.007825032230
         H           -1.005347504626    -1.576609821399    -0.673782781357     1.007825032230
         H            2.430472495374    -2.224012821399     0.237819218643     1.007825032230
         H            5.443751495374    -0.639500821399    -0.607493781357     1.007825032230
         H            5.327843495374    -0.454603821399     1.145736218643     1.007825032230
         H            4.802851495374    -1.960346821399     0.379710218643     1.007825032230
         H           -4.884246504626     1.206749178601     0.708715218643     1.007825032230
         H           -3.236491504626    -2.609304821399    -0.397639781357     1.007825032230
         H           -5.192602504626    -1.236613821399     0.298545218643     1.007825032230

  Basis Set: AUG-CC-PVTZ
    Blend: AUG-CC-PVTZ
  Basis Set: (AUG-CC-PVTZ AUX)
    Blend: AUG-CC-PVTZ-JKFIT
	 Reference Energy          =    -570.4966651154412602 [Eh]
	 Singles Energy            =      -0.0000000000000000 [Eh]
	 Same-Spin Energy          =      -0.6360340744938043 [Eh]
	 Opposite-Spin Energy      =      -1.9705638803660028 [Eh]
	 Correlation Energy        =      -2.6065979548598071 [Eh]
	 Total Energy              =    -573.1032630703010682 [Eh]

	 ================> DF-SCS-MP2 Energies <==================
	-----------------------------------------------------------
	 SCS Same-Spin Scale       =       0.3333333333333333 [-]
	 SCS Opposite-Spin Scale   =       1.2000000000000000 [-]
	 SCS Same-Spin Energy      =      -0.2120113581646014 [Eh]
	 SCS Opposite-Spin Energy  =      -2.3646766564392032 [Eh]
	 SCS Correlation Energy    =      -2.5766880146038047 [Eh]
	 SCS Total Energy          =    -573.0733531300451205 [Eh]
	-----------------------------------------------------------

  Dipole Moment: [D]
     X:     1.4414      Y:     1.7698      Z:     0.1929     Total:     2.2907

*** Psi4 exiting successfully. Buy a developer a beer!
