                               Psi4 1.4a3.dev225

  ==> Input File <==

--------------------------------------------------------------------------
#psi4
#
memory 32 gb

molecule  {
0 1
  N       -0.4914050     1.0723760    -0.3164170
  N        1.0085960    -0.7184190    -0.0133500
  C       -1.7100270     0.3982770    -0.1243180
  C        0.8049200     0.5981430    -0.1551110
  C        3.4026260    -0.3179870     0.1123840
  C        1.8688800     1.5249980    -0.1805650
  C        3.1675634     1.0374270    -0.0413212
  C       -2.8187550     1.1723340     0.2577460
  C       -1.8866400    -0.9712620    -0.3801370
  C        2.2803750    -1.1431010     0.1169750
  C        4.7931030    -0.8701860     0.2621020
  C       -4.0754850     0.5909990     0.4048790
  C       -3.1483220    -1.5428300    -0.2100850
  C       -4.2492880    -0.7746780     0.1720620
  H       -0.5683120     2.0807040    -0.2404560
  H        1.6730390     2.5885970    -0.3025930
  H        3.9969070     1.7590030    -0.0564670
  H       -2.6877930     2.2355590     0.4578160
  H       -1.0395640    -1.5738120    -0.6782690
  H        2.3962560    -2.2212150     0.2333330
  H        5.4095350    -0.6367030    -0.6119800
  H        5.2936270    -0.4518060     1.1412500
  H        4.7686350    -1.9575490     0.3752240
  H       -4.9184630     1.2095470     0.7042290
  H       -3.2707080    -2.6065070    -0.4021260
  H       -5.2268190    -1.2338160     0.2940590
units angstrom
no_reorient  #important for SAPT in psi4, default
symmetry c1  #important for SAPT in psi4, default
}

set PROPERTIES_ORIGIN ["COM"]
properties('MP2/aug-cc-pvtz', properties = ['dipole'])
--------------------------------------------------------------------------

    Molecular point group: c1
  Charge       = 0
  Multiplicity = 1
  Basis Set: AUG-CC-PVTZ
    Blend: AUG-CC-PVTZ
  Basis Set: (AUG-CC-PVTZ AUX)
    Blend: AUG-CC-PVTZ-JKFIT

    Orbital Energies [Eh]
    ---------------------

    Doubly Occupied:

       1A    -15.588548     2A    -15.554443     3A    -11.322392
       4A    -11.280762     5A    -11.274227     6A    -11.258063
       7A    -11.238839     8A    -11.233853     9A    -11.233600
      10A    -11.230206    11A    -11.229165    12A    -11.228370
      13A    -11.221255    14A    -11.218252    15A     -1.293125
      16A     -1.220625    17A     -1.132715    18A     -1.098859
      19A     -1.045135    20A     -1.007903    21A     -0.992407
      22A     -0.935554    23A     -0.869257    24A     -0.841561
      25A     -0.821472    26A     -0.797239    27A     -0.722934
      28A     -0.715689    29A     -0.670535    30A     -0.653464
      31A     -0.637626    32A     -0.620790    33A     -0.595430
      34A     -0.593633    35A     -0.588839    36A     -0.579360
      37A     -0.569078    38A     -0.559671    39A     -0.547165
      40A     -0.520775    41A     -0.511646    42A     -0.504319
      43A     -0.487299    44A     -0.454471    45A     -0.414680
      46A     -0.380958    47A     -0.337126    48A     -0.330495
      49A     -0.276966

  @DF-RHF Final Energy:  -570.49841255228819

   => Energetics <=

    Nuclear Repulsion Energy =            790.9762193870991496
    One-Electron Energy =               -2342.0677182441022524
    Two-Electron Energy =                 980.5930863047148023
    Total Energy =                       -570.4984125522881868
  Basis Set: (AUG-CC-PVTZ AUX)
    Blend: AUG-CC-PVTZ-RI
    Molecular point group: c1

    Geometry (in Angstrom), charge = 0, multiplicity = 1:

       Center              X                  Y                   Z               Mass
    ------------   -----------------  -----------------  -----------------  -----------------
         N           -0.460234991603     1.069291951626    -0.311630201317    14.003074004430
         N            1.039766008397    -0.721503048374    -0.008563201317    14.003074004430
         C           -1.678856991603     0.395192951626    -0.119531201317    12.000000000000
         C            0.836090008397     0.595058951626    -0.150324201317    12.000000000000
         C            3.433796008397    -0.321071048374     0.117170798683    12.000000000000
         C            1.900050008397     1.521913951626    -0.175778201317    12.000000000000
         C            3.198733408397     1.034342951626    -0.036534401317    12.000000000000
         C           -2.787584991603     1.169249951626     0.262532798683    12.000000000000
         C           -1.855469991603    -0.974346048374    -0.375350201317    12.000000000000
         C            2.311545008397    -1.146185048374     0.121761798683    12.000000000000
         C            4.824273008397    -0.873270048374     0.266888798683    12.000000000000
         C           -4.044314991603     0.587914951626     0.409665798683    12.000000000000
         C           -3.117151991603    -1.545914048374    -0.205298201317    12.000000000000
         C           -4.218117991603    -0.777762048374     0.176848798683    12.000000000000
         H           -0.537141991603     2.077619951626    -0.235669201317     1.007825032230
         H            1.704209008397     2.585512951626    -0.297806201317     1.007825032230
         H            4.028077008397     1.755918951626    -0.051680201317     1.007825032230
         H           -2.656622991603     2.232474951626     0.462602798683     1.007825032230
         H           -1.008393991603    -1.576896048374    -0.673482201317     1.007825032230
         H            2.427426008397    -2.224299048374     0.238119798683     1.007825032230
         H            5.440705008397    -0.639787048374    -0.607193201317     1.007825032230
         H            5.324797008397    -0.454890048374     1.146036798683     1.007825032230
         H            4.799805008397    -1.960633048374     0.380010798683     1.007825032230
         H           -4.887292991603     1.206462951626     0.709015798683     1.007825032230
         H           -3.239537991603    -2.609591048374    -0.397339201317     1.007825032230
         H           -5.195648991603    -1.236900048374     0.298845798683     1.007825032230

  Basis Set: AUG-CC-PVTZ
    Blend: AUG-CC-PVTZ
  Basis Set: (AUG-CC-PVTZ AUX)
    Blend: AUG-CC-PVTZ-JKFIT
	 Reference Energy          =    -570.4984125522881868 [Eh]
	 Singles Energy            =      -0.0000000000000000 [Eh]
	 Same-Spin Energy          =      -0.6365111035398313 [Eh]
	 Opposite-Spin Energy      =      -1.9708991209536582 [Eh]
	 Correlation Energy        =      -2.6074102244934894 [Eh]
	 Total Energy              =    -573.1058227767816788 [Eh]

	 ================> DF-SCS-MP2 Energies <==================
	-----------------------------------------------------------
	 SCS Same-Spin Scale       =       0.3333333333333333 [-]
	 SCS Opposite-Spin Scale   =       1.2000000000000000 [-]
	 SCS Same-Spin Energy      =      -0.2121703678466104 [Eh]
	 SCS Opposite-Spin Energy  =      -2.3650789451443899 [Eh]
	 SCS Correlation Energy    =      -2.5772493129910004 [Eh]
	 SCS Total Energy          =    -573.0756618652792440 [Eh]
	-----------------------------------------------------------

  Dipole Moment: [D]
     X:     1.8823      Y:     1.8356      Z:     0.1646     Total:     2.6343

*** Psi4 exiting successfully. Buy a developer a beer!
