                               Psi4 1.4a3.dev225

  ==> Input File <==

--------------------------------------------------------------------------
#psi4
#
memory 32 gb

molecule  {
0 1
  N       -0.4914050     1.0723760    -0.3164170
  N        1.0085960    -0.7184190    -0.0133500
  C       -1.7100270     0.3982770    -0.1243180
  C        0.8049200     0.5981430    -0.1551110
  C        3.4026260    -0.3179870     0.1123840
  C        1.8688800     1.5249980    -0.1805650
  C        3.1641670     1.0570110    -0.0435420
  C       -2.8187550     1.1723340     0.2577460
  C       -1.8866400    -0.9712620    -0.3801370
  C        2.2803750    -1.1431010     0.1169750
  C        4.7931030    -0.8701860     0.2621020
  C       -4.0754850     0.5909990     0.4048790
  C       -3.1483220    -1.5428300    -0.2100850
  C       -4.2492880    -0.7746780     0.1720620
  H       -0.5683120     2.0807040    -0.2404560
  H        1.6730390     2.5885970    -0.3025930
  H        3.9586808     1.7267787    -0.0558737
  H       -2.6877930     2.2355590     0.4578160
  H       -1.0395640    -1.5738120    -0.6782690
  H        2.3962560    -2.2212150     0.2333330
  H        5.4095350    -0.6367030    -0.6119800
  H        5.2936270    -0.4518060     1.1412500
  H        4.7686350    -1.9575490     0.3752240
  H       -4.9184630     1.2095470     0.7042290
  H       -3.2707080    -2.6065070    -0.4021260
  H       -5.2268190    -1.2338160     0.2940590
units angstrom
no_reorient  #important for SAPT in psi4, default
symmetry c1  #important for SAPT in psi4, default
}

set PROPERTIES_ORIGIN ["COM"]
properties('MP2/aug-cc-pvtz', properties = ['dipole'])
--------------------------------------------------------------------------

    Molecular point group: c1
  Charge       = 0
  Multiplicity = 1
  Basis Set: AUG-CC-PVTZ
    Blend: AUG-CC-PVTZ
  Basis Set: (AUG-CC-PVTZ AUX)
    Blend: AUG-CC-PVTZ-JKFIT

    Orbital Energies [Eh]
    ---------------------

    Doubly Occupied:

       1A    -15.588951     2A    -15.553572     3A    -11.322682
       4A    -11.280836     5A    -11.272424     6A    -11.252579
       7A    -11.238474     8A    -11.234851     9A    -11.233655
      10A    -11.230229    11A    -11.228945    12A    -11.228507
      13A    -11.221364    14A    -11.218320    15A     -1.292927
      16A     -1.219946    17A     -1.132702    18A     -1.098112
      19A     -1.045876    20A     -1.007960    21A     -0.993237
      22A     -0.934893    23A     -0.871331    24A     -0.841136
      25A     -0.821096    26A     -0.799888    27A     -0.726464
      28A     -0.715429    29A     -0.670563    30A     -0.653553
      31A     -0.636952    32A     -0.622928    33A     -0.597044
      34A     -0.593538    35A     -0.588482    36A     -0.579718
      37A     -0.570458    38A     -0.565941    39A     -0.546763
      40A     -0.518901    41A     -0.510989    42A     -0.504032
      43A     -0.487295    44A     -0.453958    45A     -0.414429
      46A     -0.381197    47A     -0.336401    48A     -0.330392
      49A     -0.276750

  @DF-RHF Final Energy:  -570.49818923976272

   => Energetics <=

    Nuclear Repulsion Energy =            791.0432259258483327
    One-Electron Energy =               -2342.1894871246204275
    Two-Electron Energy =                 980.6480719590094850
    Total Energy =                       -570.4981892397627234
  Basis Set: (AUG-CC-PVTZ AUX)
    Blend: AUG-CC-PVTZ-RI
    Molecular point group: c1

    Geometry (in Angstrom), charge = 0, multiplicity = 1:

       Center              X                  Y                   Z               Mass
    ------------   -----------------  -----------------  -----------------  -----------------
         N           -0.459804344670     1.068191834892    -0.311488693166    14.003074004430
         N            1.040196655330    -0.722603165108    -0.008421693166    14.003074004430
         C           -1.678426344670     0.394092834892    -0.119389693166    12.000000000000
         C            0.836520655330     0.593958834892    -0.150182693166    12.000000000000
         C            3.434226655330    -0.322171165108     0.117312306834    12.000000000000
         C            1.900480655330     1.520813834892    -0.175636693166    12.000000000000
         C            3.195767655330     1.052826834892    -0.038613693166    12.000000000000
         C           -2.787154344670     1.168149834892     0.262674306834    12.000000000000
         C           -1.855039344670    -0.975446165108    -0.375208693166    12.000000000000
         C            2.311975655330    -1.147285165108     0.121903306834    12.000000000000
         C            4.824703655330    -0.874370165108     0.267030306834    12.000000000000
         C           -4.043884344670     0.586814834892     0.409807306834    12.000000000000
         C           -3.116721344670    -1.547014165108    -0.205156693166    12.000000000000
         C           -4.217687344670    -0.778862165108     0.176990306834    12.000000000000
         H           -0.536711344670     2.076519834892    -0.235527693166     1.007825032230
         H            1.704639655330     2.584412834892    -0.297664693166     1.007825032230
         H            3.990281455330     1.722594534892    -0.050945393166     1.007825032230
         H           -2.656192344670     2.231374834892     0.462744306834     1.007825032230
         H           -1.007963344670    -1.577996165108    -0.673340693166     1.007825032230
         H            2.427856655330    -2.225399165108     0.238261306834     1.007825032230
         H            5.441135655330    -0.640887165108    -0.607051693166     1.007825032230
         H            5.325227655330    -0.455990165108     1.146178306834     1.007825032230
         H            4.800235655330    -1.961733165108     0.380152306834     1.007825032230
         H           -4.886862344670     1.205362834892     0.709157306834     1.007825032230
         H           -3.239107344670    -2.610691165108    -0.397197693166     1.007825032230
         H           -5.195218344670    -1.238000165108     0.298987306834     1.007825032230

  Basis Set: AUG-CC-PVTZ
    Blend: AUG-CC-PVTZ
  Basis Set: (AUG-CC-PVTZ AUX)
    Blend: AUG-CC-PVTZ-JKFIT
	 Reference Energy          =    -570.4981892397627234 [Eh]
	 Singles Energy            =      -0.0000000000000000 [Eh]
	 Same-Spin Energy          =      -0.6363236113995342 [Eh]
	 Opposite-Spin Energy      =      -1.9705792983363974 [Eh]
	 Correlation Energy        =      -2.6069029097359318 [Eh]
	 Total Energy              =    -573.1050921494986596 [Eh]

	 ================> DF-SCS-MP2 Energies <==================
	-----------------------------------------------------------
	 SCS Same-Spin Scale       =       0.3333333333333333 [-]
	 SCS Opposite-Spin Scale   =       1.2000000000000000 [-]
	 SCS Same-Spin Energy      =      -0.2121078704665114 [Eh]
	 SCS Opposite-Spin Energy  =      -2.3646951580036770 [Eh]
	 SCS Correlation Energy    =      -2.5768030284701884 [Eh]
	 SCS Total Energy          =    -573.0749922682329043 [Eh]
	-----------------------------------------------------------

  Dipole Moment: [D]
     X:     1.8881      Y:     1.8643      Z:     0.1627     Total:     2.6584

*** Psi4 exiting successfully. Buy a developer a beer!
