                               Psi4 1.4a3.dev225

  ==> Input File <==

--------------------------------------------------------------------------
#psi4
#
memory 32 gb

molecule  {
0 1
  N       -0.4914050     1.0723760    -0.3164170
  N        1.0085960    -0.7184190    -0.0133500
  C       -1.7100270     0.3982770    -0.1243180
  C        0.8049200     0.5981430    -0.1551110
  C        3.4026260    -0.3179870     0.1123840
  C        1.8688800     1.5249980    -0.1805650
  C        3.1641670     1.0570110    -0.0435420
  C       -2.8187550     1.1723340     0.2577460
  C       -1.8866400    -0.9712620    -0.3801370
  C        2.2803750    -1.1431010     0.1169750
  C        4.7931030    -0.8701860     0.2621020
  C       -4.0754850     0.5909990     0.4048790
  C       -3.1483220    -1.5428300    -0.2100850
  C       -4.2492880    -0.7746780     0.1720620
  H       -0.5683120     2.0807040    -0.2404560
  H        1.6730390     2.5885970    -0.3025930
  H        3.9204546     1.6945544    -0.0552804
  H       -2.6877930     2.2355590     0.4578160
  H       -1.0395640    -1.5738120    -0.6782690
  H        2.3962560    -2.2212150     0.2333330
  H        5.4095350    -0.6367030    -0.6119800
  H        5.2936270    -0.4518060     1.1412500
  H        4.7686350    -1.9575490     0.3752240
  H       -4.9184630     1.2095470     0.7042290
  H       -3.2707080    -2.6065070    -0.4021260
  H       -5.2268190    -1.2338160     0.2940590
units angstrom
no_reorient  #important for SAPT in psi4, default
symmetry c1  #important for SAPT in psi4, default
}

set PROPERTIES_ORIGIN ["COM"]
properties('MP2/aug-cc-pvtz', properties = ['dipole'])
--------------------------------------------------------------------------

    Molecular point group: c1
  Charge       = 0
  Multiplicity = 1
  Basis Set: AUG-CC-PVTZ
    Blend: AUG-CC-PVTZ
  Basis Set: (AUG-CC-PVTZ AUX)
    Blend: AUG-CC-PVTZ-JKFIT

    Orbital Energies [Eh]
    ---------------------

    Doubly Occupied:

       1A    -15.588806     2A    -15.553467     3A    -11.322415
       4A    -11.280750     5A    -11.272118     6A    -11.246609
       7A    -11.238157     8A    -11.234474     9A    -11.233595
      10A    -11.230167    11A    -11.228975    12A    -11.228434
      13A    -11.221298    14A    -11.218244    15A     -1.292766
      16A     -1.219816    17A     -1.132627    18A     -1.099630
      19A     -1.045859    20A     -1.007893    21A     -0.993487
      22A     -0.934958    23A     -0.874899    24A     -0.841072
      25A     -0.821032    26A     -0.802087    27A     -0.729494
      28A     -0.715325    29A     -0.670592    30A     -0.653906
      31A     -0.636792    32A     -0.624960    33A     -0.598691
      34A     -0.593442    35A     -0.588518    36A     -0.579952
      37A     -0.572359    38A     -0.567164    39A     -0.546755
      40A     -0.518682    41A     -0.510884    42A     -0.503925
      43A     -0.487240    44A     -0.453838    45A     -0.414502
      46A     -0.381048    47A     -0.336250    48A     -0.330318
      49A     -0.276602

  @DF-RHF Final Energy:  -570.49319235641690

   => Energetics <=

    Nuclear Repulsion Energy =            791.3376780139349194
    One-Electron Energy =               -2342.7519925295805479
    Two-Electron Energy =                 980.9211221592287302
    Total Energy =                       -570.4931923564168983
  Basis Set: (AUG-CC-PVTZ AUX)
    Blend: AUG-CC-PVTZ-RI
    Molecular point group: c1

    Geometry (in Angstrom), charge = 0, multiplicity = 1:

       Center              X                  Y                   Z               Mass
    ------------   -----------------  -----------------  -----------------  -----------------
         N           -0.459595081709     1.068368241452    -0.311491941088    14.003074004430
         N            1.040405918291    -0.722426758548    -0.008424941088    14.003074004430
         C           -1.678217081709     0.394269241452    -0.119392941088    12.000000000000
         C            0.836729918291     0.594135241452    -0.150185941088    12.000000000000
         C            3.434435918291    -0.321994758548     0.117309058912    12.000000000000
         C            1.900689918291     1.520990241452    -0.175639941088    12.000000000000
         C            3.195976918291     1.053003241452    -0.038616941088    12.000000000000
         C           -2.786945081709     1.168326241452     0.262671058912    12.000000000000
         C           -1.854830081709    -0.975269758548    -0.375211941088    12.000000000000
         C            2.312184918291    -1.147108758548     0.121900058912    12.000000000000
         C            4.824912918291    -0.874193758548     0.267027058912    12.000000000000
         C           -4.043675081709     0.586991241452     0.409804058912    12.000000000000
         C           -3.116512081709    -1.546837758548    -0.205159941088    12.000000000000
         C           -4.217478081709    -0.778685758548     0.176987058912    12.000000000000
         H           -0.536502081709     2.076696241452    -0.235530941088     1.007825032230
         H            1.704848918291     2.584589241452    -0.297667941088     1.007825032230
         H            3.952264518291     1.690546641452    -0.050355341088     1.007825032230
         H           -2.655983081709     2.231551241452     0.462741058912     1.007825032230
         H           -1.007754081709    -1.577819758548    -0.673343941088     1.007825032230
         H            2.428065918291    -2.225222758548     0.238258058912     1.007825032230
         H            5.441344918291    -0.640710758548    -0.607054941088     1.007825032230
         H            5.325436918291    -0.455813758548     1.146175058912     1.007825032230
         H            4.800444918291    -1.961556758548     0.380149058912     1.007825032230
         H           -4.886653081709     1.205539241452     0.709154058912     1.007825032230
         H           -3.238898081709    -2.610514758548    -0.397200941088     1.007825032230
         H           -5.195009081709    -1.237823758548     0.298984058912     1.007825032230

  Basis Set: AUG-CC-PVTZ
    Blend: AUG-CC-PVTZ
  Basis Set: (AUG-CC-PVTZ AUX)
    Blend: AUG-CC-PVTZ-JKFIT
	 Reference Energy          =    -570.4931923564168983 [Eh]
	 Singles Energy            =      -0.0000000000000000 [Eh]
	 Same-Spin Energy          =      -0.6362602057745680 [Eh]
	 Opposite-Spin Energy      =      -1.9703797367724070 [Eh]
	 Correlation Energy        =      -2.6066399425469751 [Eh]
	 Total Energy              =    -573.0998322989638609 [Eh]

	 ================> DF-SCS-MP2 Energies <==================
	-----------------------------------------------------------
	 SCS Same-Spin Scale       =       0.3333333333333333 [-]
	 SCS Opposite-Spin Scale   =       1.2000000000000000 [-]
	 SCS Same-Spin Energy      =      -0.2120867352581893 [Eh]
	 SCS Opposite-Spin Energy  =      -2.3644556841268884 [Eh]
	 SCS Correlation Energy    =      -2.5765424193850777 [Eh]
	 SCS Total Energy          =    -573.0697347758019760 [Eh]
	-----------------------------------------------------------

  Dipole Moment: [D]
     X:     1.9021      Y:     1.8722      Z:     0.1624     Total:     2.6739

*** Psi4 exiting successfully. Buy a developer a beer!
