                               Psi4 1.4a3.dev225

  ==> Input File <==

--------------------------------------------------------------------------
#psi4
#
memory 32 gb

molecule  {
0 1
  N       -0.4914050     1.0723760    -0.3164170
  N        1.0085960    -0.7184190    -0.0133500
  C       -1.7100270     0.3982770    -0.1243180
  C        0.8515591     0.5810811    -0.1493075
  C        3.4026260    -0.3179870     0.1123840
  C        1.8688800     1.5249980    -0.1805650
  C        3.1641670     1.0570110    -0.0435420
  C       -2.8187550     1.1723340     0.2577460
  C       -1.8866400    -0.9712620    -0.3801370
  C        2.2803750    -1.1431010     0.1169750
  C        4.7931030    -0.8701860     0.2621020
  C       -4.0754850     0.5909990     0.4048790
  C       -3.1483220    -1.5428300    -0.2100850
  C       -4.2492880    -0.7746780     0.1720620
  H       -0.5683120     2.0807040    -0.2404560
  H        1.6730390     2.5885970    -0.3025930
  H        3.9969070     1.7590030    -0.0564670
  H       -2.6877930     2.2355590     0.4578160
  H       -1.0395640    -1.5738120    -0.6782690
  H        2.3962560    -2.2212150     0.2333330
  H        5.4095350    -0.6367030    -0.6119800
  H        5.2936270    -0.4518060     1.1412500
  H        4.7686350    -1.9575490     0.3752240
  H       -4.9184630     1.2095470     0.7042290
  H       -3.2707080    -2.6065070    -0.4021260
  H       -5.2268190    -1.2338160     0.2940590
units angstrom
no_reorient  #important for SAPT in psi4, default
symmetry c1  #important for SAPT in psi4, default
}

set PROPERTIES_ORIGIN ["COM"]
properties('MP2/aug-cc-pvtz', properties = ['dipole'])
--------------------------------------------------------------------------

    Molecular point group: c1
  Charge       = 0
  Multiplicity = 1
  Basis Set: AUG-CC-PVTZ
    Blend: AUG-CC-PVTZ
  Basis Set: (AUG-CC-PVTZ AUX)
    Blend: AUG-CC-PVTZ-JKFIT

    Orbital Energies [Eh]
    ---------------------

    Doubly Occupied:

       1A    -15.581976     2A    -15.557588     3A    -11.321570
       4A    -11.277374     5A    -11.275976     6A    -11.261622
       7A    -11.240402     8A    -11.239935     9A    -11.231796
      10A    -11.230947    11A    -11.227732    12A    -11.224561
      13A    -11.217904    14A    -11.214909    15A     -1.291446
      16A     -1.218369    17A     -1.127730    18A     -1.103437
      19A     -1.049991    20A     -1.004897    21A     -0.988668
      22A     -0.937314    23A     -0.872904    24A     -0.837662
      25A     -0.819397    26A     -0.797594    27A     -0.718018
      28A     -0.711692    29A     -0.669759    30A     -0.656700
      31A     -0.638445    32A     -0.620517    33A     -0.593493
      34A     -0.592439    35A     -0.585573    36A     -0.577043
      37A     -0.568423    38A     -0.563539    39A     -0.550088
      40A     -0.520891    41A     -0.512037    42A     -0.501767
      43A     -0.484709    44A     -0.449415    45A     -0.422420
      46A     -0.385695    47A     -0.338145    48A     -0.328184
      49A     -0.277036

  @DF-RHF Final Energy:  -570.49656189712232

   => Energetics <=

    Nuclear Repulsion Energy =            790.8441478327696359
    One-Electron Energy =               -2341.8419578477519281
    Two-Electron Energy =                 980.5012481178600865
    Total Energy =                       -570.4965618971223194
  Basis Set: (AUG-CC-PVTZ AUX)
    Blend: AUG-CC-PVTZ-RI
    Molecular point group: c1

    Geometry (in Angstrom), charge = 0, multiplicity = 1:

       Center              X                  Y                   Z               Mass
    ------------   -----------------  -----------------  -----------------  -----------------
         N           -0.463053635078     1.069127556231    -0.311863728686    14.003074004430
         N            1.036947364922    -0.721667443769    -0.008796728686    14.003074004430
         C           -1.681675635078     0.395028556231    -0.119764728686    12.000000000000
         C            0.879910464922     0.577832656231    -0.144754228686    12.000000000000
         C            3.430977364922    -0.321235443769     0.116937271314    12.000000000000
         C            1.897231364922     1.521749556231    -0.176011728686    12.000000000000
         C            3.192518364922     1.053762556231    -0.038988728686    12.000000000000
         C           -2.790403635078     1.169085556231     0.262299271314    12.000000000000
         C           -1.858288635078    -0.974510443769    -0.375583728686    12.000000000000
         C            2.308726364922    -1.146349443769     0.121528271314    12.000000000000
         C            4.821454364922    -0.873434443769     0.266655271314    12.000000000000
         C           -4.047133635078     0.587750556231     0.409432271314    12.000000000000
         C           -3.119970635078    -1.546078443769    -0.205531728686    12.000000000000
         C           -4.220936635078    -0.777926443769     0.176615271314    12.000000000000
         H           -0.539960635078     2.077455556231    -0.235902728686     1.007825032230
         H            1.701390364922     2.585348556231    -0.298039728686     1.007825032230
         H            4.025258364922     1.755754556231    -0.051913728686     1.007825032230
         H           -2.659441635078     2.232310556231     0.462369271314     1.007825032230
         H           -1.011212635078    -1.577060443769    -0.673715728686     1.007825032230
         H            2.424607364922    -2.224463443769     0.237886271314     1.007825032230
         H            5.437886364922    -0.639951443769    -0.607426728686     1.007825032230
         H            5.321978364922    -0.455054443769     1.145803271314     1.007825032230
         H            4.796986364922    -1.960797443769     0.379777271314     1.007825032230
         H           -4.890111635078     1.206298556231     0.708782271314     1.007825032230
         H           -3.242356635078    -2.609755443769    -0.397572728686     1.007825032230
         H           -5.198467635078    -1.237064443769     0.298612271314     1.007825032230

  Basis Set: AUG-CC-PVTZ
    Blend: AUG-CC-PVTZ
  Basis Set: (AUG-CC-PVTZ AUX)
    Blend: AUG-CC-PVTZ-JKFIT
	 Reference Energy          =    -570.4965618971223194 [Eh]
	 Singles Energy            =      -0.0000000000000000 [Eh]
	 Same-Spin Energy          =      -0.6362075275366491 [Eh]
	 Opposite-Spin Energy      =      -1.9706712801948991 [Eh]
	 Correlation Energy        =      -2.6068788077315483 [Eh]
	 Total Energy              =    -573.1034407048538242 [Eh]

	 ================> DF-SCS-MP2 Energies <==================
	-----------------------------------------------------------
	 SCS Same-Spin Scale       =       0.3333333333333333 [-]
	 SCS Opposite-Spin Scale   =       1.2000000000000000 [-]
	 SCS Same-Spin Energy      =      -0.2120691758455497 [Eh]
	 SCS Opposite-Spin Energy  =      -2.3648055362338787 [Eh]
	 SCS Correlation Energy    =      -2.5768747120794284 [Eh]
	 SCS Total Energy          =    -573.0734366092017353 [Eh]
	-----------------------------------------------------------

  Dipole Moment: [D]
     X:     2.4572      Y:     1.7936      Z:     0.1988     Total:     3.0487

*** Psi4 exiting successfully. Buy a developer a beer!
