                               Psi4 1.4a3.dev225

  ==> Input File <==

--------------------------------------------------------------------------
#psi4
#
memory 32 gb

molecule  {
0 1
  N       -0.4914050     1.0723760    -0.3164170
  N        0.9159073    -0.7299301    -0.0179277
  C       -1.7100270     0.3982770    -0.1243180
  C        0.8049200     0.5981430    -0.1551110
  C        3.4026260    -0.3179870     0.1123840
  C        1.8688800     1.5249980    -0.1805650
  C        3.1641670     1.0570110    -0.0435420
  C       -2.8187550     1.1723340     0.2577460
  C       -1.8866400    -0.9712620    -0.3801370
  C        2.2803750    -1.1431010     0.1169750
  C        4.7931030    -0.8701860     0.2621020
  C       -4.0754850     0.5909990     0.4048790
  C       -3.1483220    -1.5428300    -0.2100850
  C       -4.2492880    -0.7746780     0.1720620
  H       -0.5683120     2.0807040    -0.2404560
  H        1.6730390     2.5885970    -0.3025930
  H        3.9969070     1.7590030    -0.0564670
  H       -2.6877930     2.2355590     0.4578160
  H       -1.0395640    -1.5738120    -0.6782690
  H        2.3962560    -2.2212150     0.2333330
  H        5.4095350    -0.6367030    -0.6119800
  H        5.2936270    -0.4518060     1.1412500
  H        4.7686350    -1.9575490     0.3752240
  H       -4.9184630     1.2095470     0.7042290
  H       -3.2707080    -2.6065070    -0.4021260
  H       -5.2268190    -1.2338160     0.2940590
units angstrom
no_reorient  #important for SAPT in psi4, default
symmetry c1  #important for SAPT in psi4, default
}

set PROPERTIES_ORIGIN ["COM"]
properties('MP2/aug-cc-pvtz', properties = ['dipole'])
--------------------------------------------------------------------------

    Molecular point group: c1
  Charge       = 0
  Multiplicity = 1
  Basis Set: AUG-CC-PVTZ
    Blend: AUG-CC-PVTZ
  Basis Set: (AUG-CC-PVTZ AUX)
    Blend: AUG-CC-PVTZ-JKFIT

    Orbital Energies [Eh]
    ---------------------

    Doubly Occupied:

       1A    -15.585935     2A    -15.561450     3A    -11.322713
       4A    -11.280717     5A    -11.279046     6A    -11.263386
       7A    -11.242173     8A    -11.239737     9A    -11.232125
      10A    -11.231679    11A    -11.228334    12A    -11.227289
      13A    -11.220117    14A    -11.215986    15A     -1.289698
      16A     -1.204795    17A     -1.130303    18A     -1.099860
      19A     -1.044042    20A     -1.006288    21A     -0.992464
      22A     -0.932916    23A     -0.873072    24A     -0.837950
      25A     -0.819491    26A     -0.792414    27A     -0.720493
      28A     -0.712623    29A     -0.669773    30A     -0.648931
      31A     -0.638150    32A     -0.620327    33A     -0.593392
      34A     -0.591278    35A     -0.586821    36A     -0.578328
      37A     -0.569061    38A     -0.559960    39A     -0.546733
      40A     -0.517330    41A     -0.508574    42A     -0.501659
      43A     -0.486336    44A     -0.450466    45A     -0.425493
      46A     -0.377491    47A     -0.337250    48A     -0.328813
      49A     -0.278526

  @DF-RHF Final Energy:  -570.48710841698824

   => Energetics <=

    Nuclear Repulsion Energy =            789.9695200888053250
    One-Electron Energy =               -2340.1096824959645346
    Two-Electron Energy =                 979.6530539901708607
    Total Energy =                       -570.4871084169882351
  Basis Set: (AUG-CC-PVTZ AUX)
    Blend: AUG-CC-PVTZ-RI
    Molecular point group: c1

    Geometry (in Angstrom), charge = 0, multiplicity = 1:

       Center              X                  Y                   Z               Mass
    ------------   -----------------  -----------------  -----------------  -----------------
         N           -0.452963491475     1.068890989130    -0.311137254831    14.003074004430
         N            0.954348808525    -0.733415110870    -0.012647954831    14.003074004430
         C           -1.671585491475     0.394791989130    -0.119038254831    12.000000000000
         C            0.843361508525     0.594657989130    -0.149831254831    12.000000000000
         C            3.441067508525    -0.321472010870     0.117663745169    12.000000000000
         C            1.907321508525     1.521512989130    -0.175285254831    12.000000000000
         C            3.202608508525     1.053525989130    -0.038262254831    12.000000000000
         C           -2.780313491475     1.168848989130     0.263025745169    12.000000000000
         C           -1.848198491475    -0.974747010870    -0.374857254831    12.000000000000
         C            2.318816508525    -1.146586010870     0.122254745169    12.000000000000
         C            4.831544508525    -0.873671010870     0.267381745169    12.000000000000
         C           -4.037043491475     0.587513989130     0.410158745169    12.000000000000
         C           -3.109880491475    -1.546315010870    -0.204805254831    12.000000000000
         C           -4.210846491475    -0.778163010870     0.177341745169    12.000000000000
         H           -0.529870491475     2.077218989130    -0.235176254831     1.007825032230
         H            1.711480508525     2.585111989130    -0.297313254831     1.007825032230
         H            4.035348508525     1.755517989130    -0.051187254831     1.007825032230
         H           -2.649351491475     2.232073989130     0.463095745169     1.007825032230
         H           -1.001122491475    -1.577297010870    -0.672989254831     1.007825032230
         H            2.434697508525    -2.224700010870     0.238612745169     1.007825032230
         H            5.447976508525    -0.640188010870    -0.606700254831     1.007825032230
         H            5.332068508525    -0.455291010870     1.146529745169     1.007825032230
         H            4.807076508525    -1.961034010870     0.380503745169     1.007825032230
         H           -4.880021491475     1.206061989130     0.709508745169     1.007825032230
         H           -3.232266491475    -2.609992010870    -0.396846254831     1.007825032230
         H           -5.188377491475    -1.237301010870     0.299338745169     1.007825032230

  Basis Set: AUG-CC-PVTZ
    Blend: AUG-CC-PVTZ
  Basis Set: (AUG-CC-PVTZ AUX)
    Blend: AUG-CC-PVTZ-JKFIT
	 Reference Energy          =    -570.4871084169882351 [Eh]
	 Singles Energy            =      -0.0000000000000000 [Eh]
	 Same-Spin Energy          =      -0.6370205707483408 [Eh]
	 Opposite-Spin Energy      =      -1.9741524959131782 [Eh]
	 Correlation Energy        =      -2.6111730666615189 [Eh]
	 Total Energy              =    -573.0982814836497710 [Eh]

	 ================> DF-SCS-MP2 Energies <==================
	-----------------------------------------------------------
	 SCS Same-Spin Scale       =       0.3333333333333333 [-]
	 SCS Opposite-Spin Scale   =       1.2000000000000000 [-]
	 SCS Same-Spin Energy      =      -0.2123401902494469 [Eh]
	 SCS Opposite-Spin Energy  =      -2.3689829950958137 [Eh]
	 SCS Correlation Energy    =      -2.5813231853452607 [Eh]
	 SCS Total Energy          =    -573.0684316023334759 [Eh]
	-----------------------------------------------------------

  Dipole Moment: [D]
     X:     2.1363      Y:     1.9119      Z:     0.1693     Total:     2.8718

*** Psi4 exiting successfully. Buy a developer a beer!
