                               Psi4 1.4a3.dev225

  ==> Input File <==

--------------------------------------------------------------------------
#psi4
#
memory 32 gb

molecule  {
0 1
  N       -0.4914050     1.0723760    -0.3164170
  N        1.0085960    -0.7184190    -0.0133500
  C       -1.7100270     0.3982770    -0.1243180
  C        0.8049200     0.5981430    -0.1551110
  C        3.4026260    -0.3179870     0.1123840
  C        1.8688800     1.5249980    -0.1805650
  C        3.1641670     1.0570110    -0.0435420
  C       -2.8187550     1.1723340     0.2577460
  C       -1.8866400    -0.9712620    -0.3801370
  C        2.2803750    -1.1431010     0.1169750
  C        4.7931030    -0.8701860     0.2621020
  C       -4.0754850     0.5909990     0.4048790
  C       -3.1483220    -1.5428300    -0.2100850
  C       -4.2492880    -0.7746780     0.1720620
  H       -0.5683120     2.0807040    -0.2404560
  H        1.6730390     2.5885970    -0.3025930
  H        3.9969070     1.7590030    -0.0564670
  H       -2.6877930     2.2355590     0.4578160
  H       -1.0395640    -1.5738120    -0.6782690
  H        2.3962560    -2.2212150     0.2333330
  H        5.4242726    -0.7496784    -0.6242529
  H        5.2936270    -0.4518060     1.1412500
  H        4.7686350    -1.9575490     0.3752240
  H       -4.9184630     1.2095470     0.7042290
  H       -3.2707080    -2.6065070    -0.4021260
  H       -5.2268190    -1.2338160     0.2940590
units angstrom
no_reorient  #important for SAPT in psi4, default
symmetry c1  #important for SAPT in psi4, default
}

set PROPERTIES_ORIGIN ["COM"]
properties('MP2/aug-cc-pvtz', properties = ['dipole'])
--------------------------------------------------------------------------

    Molecular point group: c1
  Charge       = 0
  Multiplicity = 1
  Basis Set: AUG-CC-PVTZ
    Blend: AUG-CC-PVTZ
  Basis Set: (AUG-CC-PVTZ AUX)
    Blend: AUG-CC-PVTZ-JKFIT

    Orbital Energies [Eh]
    ---------------------

    Doubly Occupied:

       1A    -15.589338     2A    -15.553883     3A    -11.323326
       4A    -11.281053     5A    -11.273278     6A    -11.258543
       7A    -11.238722     8A    -11.235678     9A    -11.233824
      10A    -11.230403    11A    -11.228712    12A    -11.228450
      13A    -11.221553    14A    -11.218538    15A     -1.293336
      16A     -1.220320    17A     -1.132910    18A     -1.096704
      19A     -1.045942    20A     -1.008144    21A     -0.993108
      22A     -0.935032    23A     -0.868548    24A     -0.841706
      25A     -0.821427    26A     -0.798029    27A     -0.723792
      28A     -0.715518    29A     -0.670769    30A     -0.653140
      31A     -0.638255    32A     -0.621418    33A     -0.595911
      34A     -0.593602    35A     -0.590254    36A     -0.579781
      37A     -0.570604    38A     -0.563396    39A     -0.539098
      40A     -0.518693    41A     -0.512136    42A     -0.503689
      43A     -0.487440    44A     -0.454454    45A     -0.414532
      46A     -0.381612    47A     -0.336977    48A     -0.330618
      49A     -0.277277

  @DF-RHF Final Energy:  -570.49780727651387

   => Energetics <=

    Nuclear Repulsion Energy =            790.6758619186222177
    One-Electron Energy =               -2341.4603919679452702
    Two-Electron Energy =                 980.2867227728092985
    Total Energy =                       -570.4978072765138677
  Basis Set: (AUG-CC-PVTZ AUX)
    Blend: AUG-CC-PVTZ-RI
    Molecular point group: c1

    Geometry (in Angstrom), charge = 0, multiplicity = 1:

       Center              X                  Y                   Z               Mass
    ------------   -----------------  -----------------  -----------------  -----------------
         N           -0.460094286166     1.068633893331    -0.311418259298    14.003074004430
         N            1.039906713834    -0.722161106669    -0.008351259298    14.003074004430
         C           -1.678716286166     0.394534893331    -0.119319259298    12.000000000000
         C            0.836230713834     0.594400893331    -0.150112259298    12.000000000000
         C            3.433936713834    -0.321729106669     0.117382740702    12.000000000000
         C            1.900190713834     1.521255893331    -0.175566259298    12.000000000000
         C            3.195477713834     1.053268893331    -0.038543259298    12.000000000000
         C           -2.787444286166     1.168591893331     0.262744740702    12.000000000000
         C           -1.855329286166    -0.975004106669    -0.375138259298    12.000000000000
         C            2.311685713834    -1.146843106669     0.121973740702    12.000000000000
         C            4.824413713834    -0.873928106669     0.267100740702    12.000000000000
         C           -4.044174286166     0.587256893331     0.409877740702    12.000000000000
         C           -3.117011286166    -1.546572106669    -0.205086259298    12.000000000000
         C           -4.217977286166    -0.778420106669     0.177060740702    12.000000000000
         H           -0.537001286166     2.076961893331    -0.235457259298     1.007825032230
         H            1.704349713834     2.584854893331    -0.297594259298     1.007825032230
         H            4.028217713834     1.755260893331    -0.051468259298     1.007825032230
         H           -2.656482286166     2.231816893331     0.462814740702     1.007825032230
         H           -1.008253286166    -1.577554106669    -0.673270259298     1.007825032230
         H            2.427566713834    -2.224957106669     0.238331740702     1.007825032230
         H            5.455583313834    -0.753420506669    -0.619254159298     1.007825032230
         H            5.324937713834    -0.455548106669     1.146248740702     1.007825032230
         H            4.799945713834    -1.961291106669     0.380222740702     1.007825032230
         H           -4.887152286166     1.205804893331     0.709227740702     1.007825032230
         H           -3.239397286166    -2.610249106669    -0.397127259298     1.007825032230
         H           -5.195508286166    -1.237558106669     0.299057740702     1.007825032230

  Basis Set: AUG-CC-PVTZ
    Blend: AUG-CC-PVTZ
  Basis Set: (AUG-CC-PVTZ AUX)
    Blend: AUG-CC-PVTZ-JKFIT
	 Reference Energy          =    -570.4978072765138677 [Eh]
	 Singles Energy            =      -0.0000000000000000 [Eh]
	 Same-Spin Energy          =      -0.6364111428569663 [Eh]
	 Opposite-Spin Energy      =      -1.9708490509009076 [Eh]
	 Correlation Energy        =      -2.6072601937578739 [Eh]
	 Total Energy              =    -573.1050674702717060 [Eh]

	 ================> DF-SCS-MP2 Energies <==================
	-----------------------------------------------------------
	 SCS Same-Spin Scale       =       0.3333333333333333 [-]
	 SCS Opposite-Spin Scale   =       1.2000000000000000 [-]
	 SCS Same-Spin Energy      =      -0.2121370476189888 [Eh]
	 SCS Opposite-Spin Energy  =      -2.3650188610810892 [Eh]
	 SCS Correlation Energy    =      -2.5771559087000777 [Eh]
	 SCS Total Energy          =    -573.0749631852139601 [Eh]
	-----------------------------------------------------------

  Dipole Moment: [D]
     X:     1.8435      Y:     1.8238      Z:     0.1454     Total:     2.5973

*** Psi4 exiting successfully. Buy a developer a beer!
