                               Psi4 1.4a3.dev225

  ==> Input File <==

--------------------------------------------------------------------------
#psi4
#
memory 32 gb

molecule  {
0 1
  N       -0.4914050     1.0723760    -0.3164170
  N        1.0085960    -0.7184190    -0.0133500
  C       -1.7100270     0.3982770    -0.1243180
  C        0.8049200     0.5981430    -0.1551110
  C        3.4026260    -0.3179870     0.1123840
  C        1.8688800     1.5249980    -0.1805650
  C        3.1981305     0.8611711    -0.0213336
  C       -2.8187550     1.1723340     0.2577460
  C       -1.8866400    -0.9712620    -0.3801370
  C        2.2803750    -1.1431010     0.1169750
  C        4.7931030    -0.8701860     0.2621020
  C       -4.0754850     0.5909990     0.4048790
  C       -3.1483220    -1.5428300    -0.2100850
  C       -4.2492880    -0.7746780     0.1720620
  H       -0.5683120     2.0807040    -0.2404560
  H        1.6730390     2.5885970    -0.3025930
  H        3.9969070     1.7590030    -0.0564670
  H       -2.6877930     2.2355590     0.4578160
  H       -1.0395640    -1.5738120    -0.6782690
  H        2.3962560    -2.2212150     0.2333330
  H        5.4095350    -0.6367030    -0.6119800
  H        5.2936270    -0.4518060     1.1412500
  H        4.7686350    -1.9575490     0.3752240
  H       -4.9184630     1.2095470     0.7042290
  H       -3.2707080    -2.6065070    -0.4021260
  H       -5.2268190    -1.2338160     0.2940590
units angstrom
no_reorient  #important for SAPT in psi4, default
symmetry c1  #important for SAPT in psi4, default
}

set PROPERTIES_ORIGIN ["COM"]
properties('MP2/aug-cc-pvtz', properties = ['dipole'])
--------------------------------------------------------------------------

    Molecular point group: c1
  Charge       = 0
  Multiplicity = 1
  Basis Set: AUG-CC-PVTZ
    Blend: AUG-CC-PVTZ
  Basis Set: (AUG-CC-PVTZ AUX)
    Blend: AUG-CC-PVTZ-JKFIT

    Orbital Energies [Eh]
    ---------------------

    Doubly Occupied:

       1A    -15.583974     2A    -15.561983     3A    -11.317495
       4A    -11.288541     5A    -11.279403     6A    -11.250395
       7A    -11.238172     8A    -11.232647     9A    -11.231867
      10A    -11.229548    11A    -11.226583    12A    -11.219800
      13A    -11.217103    14A    -11.216554    15A     -1.294504
      16A     -1.227075    17A     -1.136359    18A     -1.124134
      19A     -1.034954    20A     -1.006870    21A     -0.985782
      22A     -0.943160    23A     -0.884874    24A     -0.839047
      25A     -0.821875    26A     -0.790713    27A     -0.718028
      28A     -0.715730    29A     -0.671875    30A     -0.654086
      31A     -0.640572    32A     -0.620510    33A     -0.600371
      34A     -0.593569    35A     -0.591756    36A     -0.578462
      37A     -0.568455    38A     -0.553563    39A     -0.551184
      40A     -0.514620    41A     -0.506159    42A     -0.497135
      43A     -0.486006    44A     -0.459719    45A     -0.413891
      46A     -0.389991    47A     -0.338683    48A     -0.330164
      49A     -0.276211

  @DF-RHF Final Energy:  -570.43674682473136

   => Energetics <=

    Nuclear Repulsion Energy =            793.1673196376239048
    One-Electron Energy =               -2346.2998281436339312
    Two-Electron Energy =                 982.6957616812786682
    Total Energy =                       -570.4367468247313582
  Basis Set: (AUG-CC-PVTZ AUX)
    Blend: AUG-CC-PVTZ-RI
    Molecular point group: c1

    Geometry (in Angstrom), charge = 0, multiplicity = 1:

       Center              X                  Y                   Z               Mass
    ------------   -----------------  -----------------  -----------------  -----------------
         N           -0.462227414762     1.080780654743    -0.312933032044    14.003074004430
         N            1.037773585238    -0.710014345257    -0.009866032044    14.003074004430
         C           -1.680849414762     0.406681654743    -0.120834032044    12.000000000000
         C            0.834097585238     0.606547654743    -0.151627032044    12.000000000000
         C            3.431803585238    -0.309582345257     0.115867967956    12.000000000000
         C            1.898057585238     1.533402654743    -0.177081032044    12.000000000000
         C            3.227308085238     0.869575754743    -0.017849632044    12.000000000000
         C           -2.789577414762     1.180738654743     0.261229967956    12.000000000000
         C           -1.857462414762    -0.962857345257    -0.376653032044    12.000000000000
         C            2.309552585238    -1.134696345257     0.120458967956    12.000000000000
         C            4.822280585238    -0.861781345257     0.265585967956    12.000000000000
         C           -4.046307414762     0.599403654743     0.408362967956    12.000000000000
         C           -3.119144414762    -1.534425345257    -0.206601032044    12.000000000000
         C           -4.220110414762    -0.766273345257     0.175545967956    12.000000000000
         H           -0.539134414762     2.089108654743    -0.236972032044     1.007825032230
         H            1.702216585238     2.597001654743    -0.299109032044     1.007825032230
         H            4.026084585238     1.767407654743    -0.052983032044     1.007825032230
         H           -2.658615414762     2.243963654743     0.461299967956     1.007825032230
         H           -1.010386414762    -1.565407345257    -0.674785032044     1.007825032230
         H            2.425433585238    -2.212810345257     0.236816967956     1.007825032230
         H            5.438712585238    -0.628298345257    -0.608496032044     1.007825032230
         H            5.322804585238    -0.443401345257     1.144733967956     1.007825032230
         H            4.797812585238    -1.949144345257     0.378707967956     1.007825032230
         H           -4.889285414762     1.217951654743     0.707712967956     1.007825032230
         H           -3.241530414762    -2.598102345257    -0.398642032044     1.007825032230
         H           -5.197641414762    -1.225411345257     0.297542967956     1.007825032230

  Basis Set: AUG-CC-PVTZ
    Blend: AUG-CC-PVTZ
  Basis Set: (AUG-CC-PVTZ AUX)
    Blend: AUG-CC-PVTZ-JKFIT
	 Reference Energy          =    -570.4367468247313582 [Eh]
	 Singles Energy            =      -0.0000000000000000 [Eh]
	 Same-Spin Energy          =      -0.6368712154732715 [Eh]
	 Opposite-Spin Energy      =      -1.9725268154451030 [Eh]
	 Correlation Energy        =      -2.6093980309183746 [Eh]
	 Total Energy              =    -573.0461448556496862 [Eh]

	 ================> DF-SCS-MP2 Energies <==================
	-----------------------------------------------------------
	 SCS Same-Spin Scale       =       0.3333333333333333 [-]
	 SCS Opposite-Spin Scale   =       1.2000000000000000 [-]
	 SCS Same-Spin Energy      =      -0.2122904051577572 [Eh]
	 SCS Opposite-Spin Energy  =      -2.3670321785341235 [Eh]
	 SCS Correlation Energy    =      -2.5793225836918805 [Eh]
	 SCS Total Energy          =    -573.0160694084232773 [Eh]
	-----------------------------------------------------------

  Dipole Moment: [D]
     X:     1.9491      Y:     1.6254      Z:     0.1817     Total:     2.5444

*** Psi4 exiting successfully. Buy a developer a beer!
