                               Psi4 1.3.2 release

  ==> Input File <==

--------------------------------------------------------------------------
#psi4
#
memory 32 gb

molecule  {
0 1
  O        0.0168640     0.1901590    -0.4020990
  O       -1.3063300    -1.6835180    -0.2393630
  O        1.1131790    -1.1413980     1.1162780
  C       -2.3394790     0.5235580    -0.2686750
  C        2.3972750     0.1605680    -0.4950760
  C       -1.2129060    -0.4792070    -0.2860030
  C        1.1581700    -0.3826440     0.1751130
  C       -3.6769720    -0.1720140    -0.4890940
  C       -2.2983330     1.2966310     1.0564140
  C        2.4741530     1.6802570    -0.2975580
  C        3.6385590    -0.5497050     0.0312540
  H       -2.1437190     1.2306780    -1.0846340
  H        2.2784230    -0.0395630    -1.5677780
  H       -4.4834260     0.5663220    -0.5092150
  H       -3.6860570    -0.7233770    -1.4323560
  H       -3.8736540    -0.8834450     0.3164790
  H       -3.1030040     2.0367670     1.0791630
  H       -2.4386000     0.6130600     1.8994820
  H       -1.3454850     1.8152510     1.1829620
  H        2.5408530     1.9208960     0.7682120
  H        1.5983600     2.1807600    -0.7147640
  H        3.3683510     2.0723810    -0.7901000
  H        3.7622080    -0.3606850     1.1004290
  H        4.5263690    -0.1854060    -0.4932010
  H        3.5668740    -1.6302420    -0.1114630
units angstrom
no_reorient  #important for SAPT in psi4, default
symmetry c1  #important for SAPT in psi4, default
}

set PROPERTIES_ORIGIN ["COM"]
properties('MP2/aug-cc-pvtz', properties = ['dipole'])
--------------------------------------------------------------------------

    Molecular point group: c1
  Charge       = 0
  Multiplicity = 1
  Basis Set: AUG-CC-PVTZ
    Blend: AUG-CC-PVTZ
  Basis Set: (AUG-CC-PVTZ AUX)
    Blend: AUG-CC-PVTZ-JKFIT

    Orbital Energies [Eh]
    ---------------------

    Doubly Occupied:

       1A    -20.623576     2A    -20.561584     3A    -20.560871
       4A    -11.394574     5A    -11.394238     6A    -11.259172
       7A    -11.258859     8A    -11.235983     9A    -11.234652
      10A    -11.224066    11A    -11.223529    12A     -1.481379
      13A     -1.401746    14A     -1.360472    15A     -1.108260
      16A     -1.095002    17A     -0.952141    18A     -0.946618
      19A     -0.936099    20A     -0.863448    21A     -0.791710
      22A     -0.735591    23A     -0.706060    24A     -0.701851
      25A     -0.675040    26A     -0.645297    27A     -0.630149
      28A     -0.615644    29A     -0.606683    30A     -0.575917
      31A     -0.567521    32A     -0.553966    33A     -0.551873
      34A     -0.536596    35A     -0.532454    36A     -0.528115
      37A     -0.503157    38A     -0.498618    39A     -0.494771
      40A     -0.491138    41A     -0.477086    42A     -0.468487
      43A     -0.432733

  @DF-RHF Final Energy:  -535.91222087012000

   => Energetics <=

    Nuclear Repulsion Energy =            648.5183581487274296
    One-Electron Energy =               -2017.9877133912148111
    Two-Electron Energy =                 833.5571343723673863
    Total Energy =                       -535.9122208701199952
  Basis Set: (AUG-CC-PVTZ AUX)
    Blend: AUG-CC-PVTZ-RI
    Molecular point group: c1

    Geometry (in Angstrom), charge = 0, multiplicity = 1:

       Center              X                  Y                   Z               Mass
    ------------   -----------------  -----------------  -----------------  -----------------
         O            0.020419839033     0.244130512295    -0.404322771169    15.994914619570
         O           -1.302774160967    -1.629546487705    -0.241586771169    15.994914619570
         O            1.116734839033    -1.087426487705     1.114054228831    15.994914619570
         C           -2.335923160967     0.577529512295    -0.270898771169    12.000000000000
         C            2.400830839033     0.214539512295    -0.497299771169    12.000000000000
         C           -1.209350160967    -0.425235487705    -0.288226771169    12.000000000000
         C            1.161725839033    -0.328672487705     0.172889228831    12.000000000000
         C           -3.673416160967    -0.118042487705    -0.491317771169    12.000000000000
         C           -2.294777160967     1.350602512295     1.054190228831    12.000000000000
         C            2.477708839033     1.734228512295    -0.299781771169    12.000000000000
         C            3.642114839033    -0.495733487705     0.029030228831    12.000000000000
         H           -2.140163160967     1.284649512295    -1.086857771169     1.007825032230
         H            2.281978839033     0.014408512295    -1.570001771169     1.007825032230
         H           -4.479870160967     0.620293512295    -0.511438771169     1.007825032230
         H           -3.682501160967    -0.669405487705    -1.434579771169     1.007825032230
         H           -3.870098160967    -0.829473487705     0.314255228831     1.007825032230
         H           -3.099448160967     2.090738512295     1.076939228831     1.007825032230
         H           -2.435044160967     0.667031512295     1.897258228831     1.007825032230
         H           -1.341929160967     1.869222512295     1.180738228831     1.007825032230
         H            2.544408839033     1.974867512295     0.765988228831     1.007825032230
         H            1.601915839033     2.234731512295    -0.716987771169     1.007825032230
         H            3.371906839033     2.126352512295    -0.792323771169     1.007825032230
         H            3.765763839033    -0.306713487705     1.098205228831     1.007825032230
         H            4.529924839033    -0.131434487705    -0.495424771169     1.007825032230
         H            3.570429839033    -1.576270487705    -0.113686771169     1.007825032230

  Basis Set: AUG-CC-PVTZ
    Blend: AUG-CC-PVTZ
  Basis Set: (AUG-CC-PVTZ AUX)
    Blend: AUG-CC-PVTZ-JKFIT
	 Reference Energy          =    -535.9122208701199952 [Eh]
	 Singles Energy            =      -0.0000000000000000 [Eh]
	 Same-Spin Energy          =      -0.5374071911656995 [Eh]
	 Opposite-Spin Energy      =      -1.7524091608496253 [Eh]
	 Correlation Energy        =      -2.2898163520153245 [Eh]
	 Total Energy              =    -538.2020372221353455 [Eh]

	 ================> DF-SCS-MP2 Energies <==================
	-----------------------------------------------------------
	 SCS Same-Spin Scale       =       0.3333333333333333 [-]
	 SCS Opposite-Spin Scale   =       1.2000000000000000 [-]
	 SCS Same-Spin Energy      =      -0.1791357303885665 [Eh]
	 SCS Opposite-Spin Energy  =      -2.1028909930195501 [Eh]
	 SCS Correlation Energy    =      -2.2820267234081166 [Eh]
	 SCS Total Energy          =    -538.1942475935280754 [Eh]
	-----------------------------------------------------------

  Dipole Moment: [D]
     X:     0.1941      Y:     3.4004      Z:    -1.4218     Total:     3.6908

*** Psi4 exiting successfully. Buy a developer a beer!
