                               Psi4 1.3.2 release

  ==> Input File <==

--------------------------------------------------------------------------
#psi4
#
memory 32 gb

molecule  {
0 1
  O        0.0168640     0.1901590    -0.4020990
  O       -1.3063300    -1.6835180    -0.2393630
  O        1.1131790    -1.1413980     1.1162780
  C       -2.3582209     0.5108119    -0.5678176
  C        2.3972750     0.1605680    -0.4950760
  C       -1.2129060    -0.4792070    -0.2860030
  C        1.1581700    -0.3826440     0.1751130
  C       -3.6769720    -0.1720140    -0.4890940
  C       -2.2983330     1.2966310     1.0564140
  C        2.4741530     1.6802570    -0.2975580
  C        3.6385590    -0.5497050     0.0312540
  H       -2.1437190     1.2306780    -1.0846340
  H        2.2784230    -0.0395630    -1.5677780
  H       -4.4834260     0.5663220    -0.5092150
  H       -3.6860570    -0.7233770    -1.4323560
  H       -3.8736540    -0.8834450     0.3164790
  H       -3.1030040     2.0367670     1.0791630
  H       -2.4386000     0.6130600     1.8994820
  H       -1.3454850     1.8152510     1.1829620
  H        2.5408530     1.9208960     0.7682120
  H        1.5983600     2.1807600    -0.7147640
  H        3.3683510     2.0723810    -0.7901000
  H        3.7622080    -0.3606850     1.1004290
  H        4.5263690    -0.1854060    -0.4932010
  H        3.5668740    -1.6302420    -0.1114630
units angstrom
no_reorient  #important for SAPT in psi4, default
symmetry c1  #important for SAPT in psi4, default
}

set PROPERTIES_ORIGIN ["COM"]
properties('MP2/aug-cc-pvtz', properties = ['dipole'])
--------------------------------------------------------------------------

    Molecular point group: c1
  Charge       = 0
  Multiplicity = 1
  Basis Set: AUG-CC-PVTZ
    Blend: AUG-CC-PVTZ
  Basis Set: (AUG-CC-PVTZ AUX)
    Blend: AUG-CC-PVTZ-JKFIT

    Orbital Energies [Eh]
    ---------------------

    Doubly Occupied:

       1A    -20.623850     2A    -20.559590     3A    -20.556739
       4A    -11.397908     5A    -11.393173     6A    -11.261046
       7A    -11.258699     8A    -11.244765     9A    -11.235716
      10A    -11.226814    11A    -11.223140    12A     -1.479917
      13A     -1.399433    14A     -1.358829    15A     -1.104282
      16A     -1.088045    17A     -0.952320    18A     -0.943149
      19A     -0.925249    20A     -0.871246    21A     -0.806678
      22A     -0.743021    23A     -0.717894    24A     -0.701162
      25A     -0.671089    26A     -0.647960    27A     -0.616928
      28A     -0.616029    29A     -0.597289    30A     -0.581889
      31A     -0.574311    32A     -0.556190    33A     -0.552285
      34A     -0.545914    35A     -0.534700    36A     -0.532176
      37A     -0.524342    38A     -0.499977    39A     -0.492064
      40A     -0.476128    41A     -0.472957    42A     -0.437021
      43A     -0.407604

  @DF-RHF Final Energy:  -535.83536445288303

   => Energetics <=

    Nuclear Repulsion Energy =            646.4502887967995548
    One-Electron Energy =               -2013.7522713177693277
    Two-Electron Energy =                 831.4666180680868592
    Total Energy =                       -535.8353644528830273
  Basis Set: (AUG-CC-PVTZ AUX)
    Blend: AUG-CC-PVTZ-RI
    Molecular point group: c1

    Geometry (in Angstrom), charge = 0, multiplicity = 1:

       Center              X                  Y                   Z               Mass
    ------------   -----------------  -----------------  -----------------  -----------------
         O            0.021842425477     0.245097993131    -0.381616631041    15.994914619570
         O           -1.301351574523    -1.628579006869    -0.218880631041    15.994914619570
         O            1.118157425477    -1.086459006869     1.136760368959    15.994914619570
         C           -2.353242474523     0.565750893131    -0.547335231041    12.000000000000
         C            2.402253425477     0.215506993131    -0.474593631041    12.000000000000
         C           -1.207927574523    -0.424268006869    -0.265520631041    12.000000000000
         C            1.163148425477    -0.327705006869     0.195595368959    12.000000000000
         C           -3.671993574523    -0.117075006869    -0.468611631041    12.000000000000
         C           -2.293354574523     1.351569993131     1.076896368959    12.000000000000
         C            2.479131425477     1.735195993131    -0.277075631041    12.000000000000
         C            3.643537425477    -0.494766006869     0.051736368959    12.000000000000
         H           -2.138740574523     1.285616993131    -1.064151631041     1.007825032230
         H            2.283401425477     0.015375993131    -1.547295631041     1.007825032230
         H           -4.478447574523     0.621260993131    -0.488732631041     1.007825032230
         H           -3.681078574523    -0.668438006869    -1.411873631041     1.007825032230
         H           -3.868675574523    -0.828506006869     0.336961368959     1.007825032230
         H           -3.098025574523     2.091705993131     1.099645368959     1.007825032230
         H           -2.433621574523     0.667998993131     1.919964368959     1.007825032230
         H           -1.340506574523     1.870189993131     1.203444368959     1.007825032230
         H            2.545831425477     1.975834993131     0.788694368959     1.007825032230
         H            1.603338425477     2.235698993131    -0.694281631041     1.007825032230
         H            3.373329425477     2.127319993131    -0.769617631041     1.007825032230
         H            3.767186425477    -0.305746006869     1.120911368959     1.007825032230
         H            4.531347425477    -0.130467006869    -0.472718631041     1.007825032230
         H            3.571852425477    -1.575303006869    -0.090980631041     1.007825032230

  Basis Set: AUG-CC-PVTZ
    Blend: AUG-CC-PVTZ
  Basis Set: (AUG-CC-PVTZ AUX)
    Blend: AUG-CC-PVTZ-JKFIT
	 Reference Energy          =    -535.8353644528830273 [Eh]
	 Singles Energy            =      -0.0000000000000000 [Eh]
	 Same-Spin Energy          =      -0.5388625439155239 [Eh]
	 Opposite-Spin Energy      =      -1.7568486002044894 [Eh]
	 Correlation Energy        =      -2.2957111441200135 [Eh]
	 Total Energy              =    -538.1310755970030186 [Eh]

	 ================> DF-SCS-MP2 Energies <==================
	-----------------------------------------------------------
	 SCS Same-Spin Scale       =       0.3333333333333333 [-]
	 SCS Opposite-Spin Scale   =       1.2000000000000000 [-]
	 SCS Same-Spin Energy      =      -0.1796208479718413 [Eh]
	 SCS Opposite-Spin Energy  =      -2.1082183202453870 [Eh]
	 SCS Correlation Energy    =      -2.2878391682172285 [Eh]
	 SCS Total Energy          =    -538.1232036211002878 [Eh]
	-----------------------------------------------------------

  Dipole Moment: [D]
     X:     0.0472      Y:     3.4762      Z:    -1.4711     Total:     3.7750

*** Psi4 exiting successfully. Buy a developer a beer!
