                               Psi4 1.3.2 release

  ==> Input File <==

--------------------------------------------------------------------------
#psi4
#
memory 32 gb

molecule  {
0 1
  O        0.0168640     0.1901590    -0.4020990
  O       -1.3063300    -1.6835180    -0.2393630
  O        1.1131790    -1.1413980     1.1162780
  C       -2.3488499     0.5171849    -0.4182463
  C        2.3972750     0.1605680    -0.4950760
  C       -1.2129060    -0.4792070    -0.2860030
  C        1.1581700    -0.3826440     0.1751130
  C       -3.6769720    -0.1720140    -0.4890940
  C       -2.2983330     1.2966310     1.0564140
  C        2.4741530     1.6802570    -0.2975580
  C        3.6385590    -0.5497050     0.0312540
  H       -2.1437190     1.2306780    -1.0846340
  H        2.2784230    -0.0395630    -1.5677780
  H       -4.4834260     0.5663220    -0.5092150
  H       -3.6860570    -0.7233770    -1.4323560
  H       -3.8736540    -0.8834450     0.3164790
  H       -3.1030040     2.0367670     1.0791630
  H       -2.4386000     0.6130600     1.8994820
  H       -1.3454850     1.8152510     1.1829620
  H        2.5408530     1.9208960     0.7682120
  H        1.5983600     2.1807600    -0.7147640
  H        3.3683510     2.0723810    -0.7901000
  H        3.7622080    -0.3606850     1.1004290
  H        4.5263690    -0.1854060    -0.4932010
  H        3.5668740    -1.6302420    -0.1114630
units angstrom
no_reorient  #important for SAPT in psi4, default
symmetry c1  #important for SAPT in psi4, default
}

set PROPERTIES_ORIGIN ["COM"]
properties('MP2/aug-cc-pvtz', properties = ['dipole'])
--------------------------------------------------------------------------

    Molecular point group: c1
  Charge       = 0
  Multiplicity = 1
  Basis Set: AUG-CC-PVTZ
    Blend: AUG-CC-PVTZ
  Basis Set: (AUG-CC-PVTZ AUX)
    Blend: AUG-CC-PVTZ-JKFIT

    Orbital Energies [Eh]
    ---------------------

    Doubly Occupied:

       1A    -20.623870     2A    -20.560305     3A    -20.559135
       4A    -11.394945     5A    -11.393943     6A    -11.258992
       7A    -11.257258     8A    -11.240193     9A    -11.235920
      10A    -11.223891    11A    -11.223377    12A     -1.480773
      13A     -1.400611    14A     -1.359712    15A     -1.105516
      16A     -1.090574    17A     -0.952430    18A     -0.944019
      19A     -0.930450    20A     -0.866298    21A     -0.797288
      22A     -0.739162    23A     -0.713133    24A     -0.702056
      25A     -0.673125    26A     -0.646615    27A     -0.622112
      28A     -0.615601    29A     -0.602660    30A     -0.575383
      31A     -0.567850    32A     -0.555468    33A     -0.551477
      34A     -0.535462    35A     -0.534816    36A     -0.532114
      37A     -0.523864    38A     -0.500094    39A     -0.492681
      40A     -0.477376    41A     -0.473720    42A     -0.457125
      43A     -0.428124

  @DF-RHF Final Energy:  -535.89270541486940

   => Energetics <=

    Nuclear Repulsion Energy =            647.5814858598790806
    One-Electron Energy =               -2016.1093531557587539
    Two-Electron Energy =                 832.6351618810103901
    Total Energy =                       -535.8927054148693969
  Basis Set: (AUG-CC-PVTZ AUX)
    Blend: AUG-CC-PVTZ-RI
    Molecular point group: c1

    Geometry (in Angstrom), charge = 0, multiplicity = 1:

       Center              X                  Y                   Z               Mass
    ------------   -----------------  -----------------  -----------------  -----------------
         O            0.021131128459     0.244614256509    -0.392969701105    15.994914619570
         O           -1.302062871541    -1.629062743491    -0.230233701105    15.994914619570
         O            1.117446128459    -1.086942743491     1.125407298895    15.994914619570
         C           -2.344582771541     0.571640156509    -0.409117001105    12.000000000000
         C            2.401542128459     0.215023256509    -0.485946701105    12.000000000000
         C           -1.208638871541    -0.424751743491    -0.276873701105    12.000000000000
         C            1.162437128459    -0.328188743491     0.184242298895    12.000000000000
         C           -3.672704871541    -0.117558743491    -0.479964701105    12.000000000000
         C           -2.294065871541     1.351086256509     1.065543298895    12.000000000000
         C            2.478420128459     1.734712256509    -0.288428701105    12.000000000000
         C            3.642826128459    -0.495249743491     0.040383298895    12.000000000000
         H           -2.139451871541     1.285133256509    -1.075504701105     1.007825032230
         H            2.282690128459     0.014892256509    -1.558648701105     1.007825032230
         H           -4.479158871541     0.620777256509    -0.500085701105     1.007825032230
         H           -3.681789871541    -0.668921743491    -1.423226701105     1.007825032230
         H           -3.869386871541    -0.828989743491     0.325608298895     1.007825032230
         H           -3.098736871541     2.091222256509     1.088292298895     1.007825032230
         H           -2.434332871541     0.667515256509     1.908611298895     1.007825032230
         H           -1.341217871541     1.869706256509     1.192091298895     1.007825032230
         H            2.545120128459     1.975351256509     0.777341298895     1.007825032230
         H            1.602627128459     2.235215256509    -0.705634701105     1.007825032230
         H            3.372618128459     2.126836256509    -0.780970701105     1.007825032230
         H            3.766475128459    -0.306229743491     1.109558298895     1.007825032230
         H            4.530636128459    -0.130950743491    -0.484071701105     1.007825032230
         H            3.571141128459    -1.575786743491    -0.102333701105     1.007825032230

  Basis Set: AUG-CC-PVTZ
    Blend: AUG-CC-PVTZ
  Basis Set: (AUG-CC-PVTZ AUX)
    Blend: AUG-CC-PVTZ-JKFIT
	 Reference Energy          =    -535.8927054148693969 [Eh]
	 Singles Energy            =      -0.0000000000000000 [Eh]
	 Same-Spin Energy          =      -0.5375436545943577 [Eh]
	 Opposite-Spin Energy      =      -1.7531961015840405 [Eh]
	 Correlation Energy        =      -2.2907397561783984 [Eh]
	 Total Energy              =    -538.1834451710477651 [Eh]

	 ================> DF-SCS-MP2 Energies <==================
	-----------------------------------------------------------
	 SCS Same-Spin Scale       =       0.3333333333333333 [-]
	 SCS Opposite-Spin Scale   =       1.2000000000000000 [-]
	 SCS Same-Spin Energy      =      -0.1791812181981192 [Eh]
	 SCS Opposite-Spin Energy  =      -2.1038353219008483 [Eh]
	 SCS Correlation Energy    =      -2.2830165400989677 [Eh]
	 SCS Total Energy          =    -538.1757219549683668 [Eh]
	-----------------------------------------------------------

  Dipole Moment: [D]
     X:     0.1352      Y:     3.4412      Z:    -1.4610     Total:     3.7410

*** Psi4 exiting successfully. Buy a developer a beer!
