                               Psi4 1.3.2 release

  ==> Input File <==

--------------------------------------------------------------------------
#psi4
#
memory 32 gb

molecule  {
0 1
  O        0.0168640     0.1901590    -0.4020990
  O       -1.3063300    -1.6835180    -0.2393630
  O        1.1131790    -1.1413980     1.1162780
  C       -2.3426026     0.5214336    -0.3185321
  C        2.3972750     0.1605680    -0.4950760
  C       -1.2129060    -0.4792070    -0.2860030
  C        1.1581700    -0.3826440     0.1751130
  C       -3.6769720    -0.1720140    -0.4890940
  C       -2.2983330     1.2966310     1.0564140
  C        2.4741530     1.6802570    -0.2975580
  C        3.6385590    -0.5497050     0.0312540
  H       -2.1437190     1.2306780    -1.0846340
  H        2.2784230    -0.0395630    -1.5677780
  H       -4.4834260     0.5663220    -0.5092150
  H       -3.6860570    -0.7233770    -1.4323560
  H       -3.8736540    -0.8834450     0.3164790
  H       -3.1030040     2.0367670     1.0791630
  H       -2.4386000     0.6130600     1.8994820
  H       -1.3454850     1.8152510     1.1829620
  H        2.5408530     1.9208960     0.7682120
  H        1.5983600     2.1807600    -0.7147640
  H        3.3683510     2.0723810    -0.7901000
  H        3.7622080    -0.3606850     1.1004290
  H        4.5263690    -0.1854060    -0.4932010
  H        3.5668740    -1.6302420    -0.1114630
units angstrom
no_reorient  #important for SAPT in psi4, default
symmetry c1  #important for SAPT in psi4, default
}

set PROPERTIES_ORIGIN ["COM"]
properties('MP2/aug-cc-pvtz', properties = ['dipole'])
--------------------------------------------------------------------------

    Molecular point group: c1
  Charge       = 0
  Multiplicity = 1
  Basis Set: AUG-CC-PVTZ
    Blend: AUG-CC-PVTZ
  Basis Set: (AUG-CC-PVTZ AUX)
    Blend: AUG-CC-PVTZ-JKFIT

    Orbital Energies [Eh]
    ---------------------

    Doubly Occupied:

       1A    -20.623705     2A    -20.560766     3A    -20.560697
       4A    -11.394379     5A    -11.394198     6A    -11.259124
       7A    -11.257756     8A    -11.236607     9A    -11.235977
      10A    -11.223673    11A    -11.223487    12A     -1.481204
      13A     -1.401371    14A     -1.360232    15A     -1.106981
      16A     -1.093323    17A     -0.952269    18A     -0.945358
      19A     -0.934419    20A     -0.864295    21A     -0.793164
      22A     -0.736576    23A     -0.708199    24A     -0.702269
      25A     -0.674416    26A     -0.645684    27A     -0.627224
      28A     -0.615430    29A     -0.605553    30A     -0.575620
      31A     -0.566453    32A     -0.554489    33A     -0.551710
      34A     -0.536145    35A     -0.532320    36A     -0.529123
      37A     -0.510939    38A     -0.500055    39A     -0.493219
      40A     -0.484009    41A     -0.476419    42A     -0.469124
      43A     -0.431895

  @DF-RHF Final Energy:  -535.91028791785061

   => Energetics <=

    Nuclear Repulsion Energy =            648.2247096855344353
    One-Electron Energy =               -2017.4102830072192774
    Two-Electron Energy =                 833.2752854038342321
    Total Energy =                       -535.9102879178506100
  Basis Set: (AUG-CC-PVTZ AUX)
    Blend: AUG-CC-PVTZ-RI
    Molecular point group: c1

    Geometry (in Angstrom), charge = 0, multiplicity = 1:

       Center              X                  Y                   Z               Mass
    ------------   -----------------  -----------------  -----------------  -----------------
         O            0.020656932978     0.244291762897    -0.400538414481    15.994914619570
         O           -1.302537067022    -1.629385237103    -0.237802414481    15.994914619570
         O            1.116971932978    -1.087265237103     1.117838585519    15.994914619570
         C           -2.338809667022     0.575566362897    -0.316971514481    12.000000000000
         C            2.401067932978     0.214700762897    -0.493515414481    12.000000000000
         C           -1.209113067022    -0.425074237103    -0.284442414481    12.000000000000
         C            1.161962932978    -0.328511237103     0.176673585519    12.000000000000
         C           -3.673179067022    -0.117881237103    -0.487533414481    12.000000000000
         C           -2.294540067022     1.350763762897     1.057974585519    12.000000000000
         C            2.477945932978     1.734389762897    -0.295997414481    12.000000000000
         C            3.642351932978    -0.495572237103     0.032814585519    12.000000000000
         H           -2.139926067022     1.284810762897    -1.083073414481     1.007825032230
         H            2.282215932978     0.014569762897    -1.566217414481     1.007825032230
         H           -4.479633067022     0.620454762897    -0.507654414481     1.007825032230
         H           -3.682264067022    -0.669244237103    -1.430795414481     1.007825032230
         H           -3.869861067022    -0.829312237103     0.318039585519     1.007825032230
         H           -3.099211067022     2.090899762897     1.080723585519     1.007825032230
         H           -2.434807067022     0.667192762897     1.901042585519     1.007825032230
         H           -1.341692067022     1.869383762897     1.184522585519     1.007825032230
         H            2.544645932978     1.975028762897     0.769772585519     1.007825032230
         H            1.602152932978     2.234892762897    -0.713203414481     1.007825032230
         H            3.372143932978     2.126513762897    -0.788539414481     1.007825032230
         H            3.766000932978    -0.306552237103     1.101989585519     1.007825032230
         H            4.530161932978    -0.131273237103    -0.491640414481     1.007825032230
         H            3.570666932978    -1.576109237103    -0.109902414481     1.007825032230

  Basis Set: AUG-CC-PVTZ
    Blend: AUG-CC-PVTZ
  Basis Set: (AUG-CC-PVTZ AUX)
    Blend: AUG-CC-PVTZ-JKFIT
	 Reference Energy          =    -535.9102879178506100 [Eh]
	 Singles Energy            =      -0.0000000000000000 [Eh]
	 Same-Spin Energy          =      -0.5373120530649416 [Eh]
	 Opposite-Spin Energy      =      -1.7523537574289678 [Eh]
	 Correlation Energy        =      -2.2896658104939096 [Eh]
	 Total Energy              =    -538.1999537283445534 [Eh]

	 ================> DF-SCS-MP2 Energies <==================
	-----------------------------------------------------------
	 SCS Same-Spin Scale       =       0.3333333333333333 [-]
	 SCS Opposite-Spin Scale   =       1.2000000000000000 [-]
	 SCS Same-Spin Energy      =      -0.1791040176883139 [Eh]
	 SCS Opposite-Spin Energy  =      -2.1028245089147615 [Eh]
	 SCS Correlation Energy    =      -2.2819285266030755 [Eh]
	 SCS Total Energy          =    -538.1922164444537202 [Eh]
	-----------------------------------------------------------

  Dipole Moment: [D]
     X:     0.1777      Y:     3.4148      Z:    -1.4387     Total:     3.7098

*** Psi4 exiting successfully. Buy a developer a beer!
