                               Psi4 1.3.2 release

  ==> Input File <==

--------------------------------------------------------------------------
#psi4
#
memory 32 gb

molecule  {
0 1
  O        0.0168640     0.1901590    -0.4020990
  O       -1.3063300    -1.6835180    -0.2393630
  O        1.1131790    -1.1413980     1.1162780
  C       -2.3550972     0.5129362    -0.5179605
  C        2.3972750     0.1605680    -0.4950760
  C       -1.2129060    -0.4792070    -0.2860030
  C        1.1581700    -0.3826440     0.1751130
  C       -3.6769720    -0.1720140    -0.4890940
  C       -2.2983330     1.2966310     1.0564140
  C        2.4741530     1.6802570    -0.2975580
  C        3.6385590    -0.5497050     0.0312540
  H       -2.1437190     1.2306780    -1.0846340
  H        2.2784230    -0.0395630    -1.5677780
  H       -4.4834260     0.5663220    -0.5092150
  H       -3.6860570    -0.7233770    -1.4323560
  H       -3.8736540    -0.8834450     0.3164790
  H       -3.1030040     2.0367670     1.0791630
  H       -2.4386000     0.6130600     1.8994820
  H       -1.3454850     1.8152510     1.1829620
  H        2.5408530     1.9208960     0.7682120
  H        1.5983600     2.1807600    -0.7147640
  H        3.3683510     2.0723810    -0.7901000
  H        3.7622080    -0.3606850     1.1004290
  H        4.5263690    -0.1854060    -0.4932010
  H        3.5668740    -1.6302420    -0.1114630
units angstrom
no_reorient  #important for SAPT in psi4, default
symmetry c1  #important for SAPT in psi4, default
}

set PROPERTIES_ORIGIN ["COM"]
properties('MP2/aug-cc-pvtz', properties = ['dipole'])
--------------------------------------------------------------------------

    Molecular point group: c1
  Charge       = 0
  Multiplicity = 1
  Basis Set: AUG-CC-PVTZ
    Blend: AUG-CC-PVTZ
  Basis Set: (AUG-CC-PVTZ AUX)
    Blend: AUG-CC-PVTZ-JKFIT

    Orbital Energies [Eh]
    ---------------------

    Doubly Occupied:

       1A    -20.623896     2A    -20.559846     3A    -20.557531
       4A    -11.396707     5A    -11.393445     6A    -11.259184
       7A    -11.258810     8A    -11.243320     9A    -11.235800
      10A    -11.225504    11A    -11.223229    12A     -1.480232
      13A     -1.399833    14A     -1.359139    15A     -1.104640
      16A     -1.088721    17A     -0.952404    18A     -0.943375
      19A     -0.926778    20A     -0.869217    21A     -0.803242
      22A     -0.741962    23A     -0.716764    24A     -0.701497
      25A     -0.671780    26A     -0.647542    27A     -0.617884
      28A     -0.616350    29A     -0.599164    30A     -0.577132
      31A     -0.573554    32A     -0.555955    33A     -0.551824
      34A     -0.543679    35A     -0.534904    36A     -0.532219
      37A     -0.525020    38A     -0.500032    39A     -0.492279
      40A     -0.476478    41A     -0.473235    42A     -0.441305
      43A     -0.417055

  @DF-RHF Final Energy:  -535.85825140391034

   => Energetics <=

    Nuclear Repulsion Energy =            646.8516933029696929
    One-Electron Energy =               -2014.5949512182210128
    Two-Electron Energy =                 831.8850065113410892
    Total Energy =                       -535.8582514039103444
  Basis Set: (AUG-CC-PVTZ AUX)
    Blend: AUG-CC-PVTZ-RI
    Molecular point group: c1

    Geometry (in Angstrom), charge = 0, multiplicity = 1:

       Center              X                  Y                   Z               Mass
    ------------   -----------------  -----------------  -----------------  -----------------
         O            0.021605323941     0.244936750120    -0.385400987729    15.994914619570
         O           -1.301588676059    -1.628740249880    -0.222664987729    15.994914619570
         O            1.117920323941    -1.086620249880     1.132976012271    15.994914619570
         C           -2.350355876059     0.567713950120    -0.501262487729    12.000000000000
         C            2.402016323941     0.215345750120    -0.478377987729    12.000000000000
         C           -1.208164676059    -0.424429249880    -0.269304987729    12.000000000000
         C            1.162911323941    -0.327866249880     0.191811012271    12.000000000000
         C           -3.672230676059    -0.117236249880    -0.472395987729    12.000000000000
         C           -2.293591676059     1.351408750120     1.073112012271    12.000000000000
         C            2.478894323941     1.735034750120    -0.280859987729    12.000000000000
         C            3.643300323941    -0.494927249880     0.047952012271    12.000000000000
         H           -2.138977676059     1.285455750120    -1.067935987729     1.007825032230
         H            2.283164323941     0.015214750120    -1.551079987729     1.007825032230
         H           -4.478684676059     0.621099750120    -0.492516987729     1.007825032230
         H           -3.681315676059    -0.668599249880    -1.415657987729     1.007825032230
         H           -3.868912676059    -0.828667249880     0.333177012271     1.007825032230
         H           -3.098262676059     2.091544750120     1.095861012271     1.007825032230
         H           -2.433858676059     0.667837750120     1.916180012271     1.007825032230
         H           -1.340743676059     1.870028750120     1.199660012271     1.007825032230
         H            2.545594323941     1.975673750120     0.784910012271     1.007825032230
         H            1.603101323941     2.235537750120    -0.698065987729     1.007825032230
         H            3.373092323941     2.127158750120    -0.773401987729     1.007825032230
         H            3.766949323941    -0.305907249880     1.117127012271     1.007825032230
         H            4.531110323941    -0.130628249880    -0.476502987729     1.007825032230
         H            3.571615323941    -1.575464249880    -0.094764987729     1.007825032230

  Basis Set: AUG-CC-PVTZ
    Blend: AUG-CC-PVTZ
  Basis Set: (AUG-CC-PVTZ AUX)
    Blend: AUG-CC-PVTZ-JKFIT
	 Reference Energy          =    -535.8582514039103444 [Eh]
	 Singles Energy            =      -0.0000000000000000 [Eh]
	 Same-Spin Energy          =      -0.5383001851544331 [Eh]
	 Opposite-Spin Energy      =      -1.7553142011215646 [Eh]
	 Correlation Energy        =      -2.2936143862759977 [Eh]
	 Total Energy              =    -538.1518657901863207 [Eh]

	 ================> DF-SCS-MP2 Energies <==================
	-----------------------------------------------------------
	 SCS Same-Spin Scale       =       0.3333333333333333 [-]
	 SCS Opposite-Spin Scale   =       1.2000000000000000 [-]
	 SCS Same-Spin Energy      =      -0.1794333950514777 [Eh]
	 SCS Opposite-Spin Energy  =      -2.1063770413458776 [Eh]
	 SCS Correlation Energy    =      -2.2858104363973553 [Eh]
	 SCS Total Energy          =    -538.1440618403076996 [Eh]
	-----------------------------------------------------------

  Dipole Moment: [D]
     X:     0.0796      Y:     3.4646      Z:    -1.4712     Total:     3.7649

*** Psi4 exiting successfully. Buy a developer a beer!
