                               Psi4 1.3.2 release

  ==> Input File <==

--------------------------------------------------------------------------
#psi4
#
memory 32 gb

molecule  {
0 1
  O        0.0168640     0.1901590    -0.4020990
  O       -1.3063300    -1.6835180    -0.2393630
  O        1.1131790    -1.1413980     1.1162780
  C       -2.3457263     0.5193093    -0.3683892
  C        2.3972750     0.1605680    -0.4950760
  C       -1.2129060    -0.4792070    -0.2860030
  C        1.1581700    -0.3826440     0.1751130
  C       -3.6769720    -0.1720140    -0.4890940
  C       -2.2983330     1.2966310     1.0564140
  C        2.4741530     1.6802570    -0.2975580
  C        3.6385590    -0.5497050     0.0312540
  H       -2.1437190     1.2306780    -1.0846340
  H        2.2784230    -0.0395630    -1.5677780
  H       -4.4834260     0.5663220    -0.5092150
  H       -3.6860570    -0.7233770    -1.4323560
  H       -3.8736540    -0.8834450     0.3164790
  H       -3.1030040     2.0367670     1.0791630
  H       -2.4386000     0.6130600     1.8994820
  H       -1.3454850     1.8152510     1.1829620
  H        2.5408530     1.9208960     0.7682120
  H        1.5983600     2.1807600    -0.7147640
  H        3.3683510     2.0723810    -0.7901000
  H        3.7622080    -0.3606850     1.1004290
  H        4.5263690    -0.1854060    -0.4932010
  H        3.5668740    -1.6302420    -0.1114630
units angstrom
no_reorient  #important for SAPT in psi4, default
symmetry c1  #important for SAPT in psi4, default
}

set PROPERTIES_ORIGIN ["COM"]
properties('MP2/aug-cc-pvtz', properties = ['dipole'])
--------------------------------------------------------------------------

    Molecular point group: c1
  Charge       = 0
  Multiplicity = 1
  Basis Set: AUG-CC-PVTZ
    Blend: AUG-CC-PVTZ
  Basis Set: (AUG-CC-PVTZ AUX)
    Blend: AUG-CC-PVTZ-JKFIT

    Orbital Energies [Eh]
    ---------------------

    Doubly Occupied:

       1A    -20.623804     2A    -20.560509     3A    -20.559948
       4A    -11.394437     5A    -11.394168     6A    -11.259064
       7A    -11.257212     8A    -11.238459     9A    -11.235956
      10A    -11.223609    11A    -11.223437    12A     -1.481002
      13A     -1.400993    14A     -1.359979    15A     -1.106129
      16A     -1.091830    17A     -0.952370    18A     -0.944546
      19A     -0.932463    20A     -0.865224    21A     -0.794999
      22A     -0.737779    23A     -0.710725    24A     -0.702243
      25A     -0.673777    26A     -0.646137    27A     -0.624547
      28A     -0.615430    29A     -0.604202    30A     -0.575447
      31A     -0.566490    32A     -0.555033    33A     -0.551556
      34A     -0.535779    35A     -0.532312    36A     -0.530790
      37A     -0.519190    38A     -0.500102    39A     -0.492897
      40A     -0.478616    41A     -0.474713    42A     -0.465784
      43A     -0.430484

  @DF-RHF Final Energy:  -535.90371544412517

   => Energetics <=

    Nuclear Repulsion Energy =            647.9130525386322006
    One-Electron Energy =               -2016.7851956353272271
    Two-Electron Energy =                 832.9684276525698579
    Total Energy =                       -535.9037154441251687
  Basis Set: (AUG-CC-PVTZ AUX)
    Blend: AUG-CC-PVTZ-RI
    Molecular point group: c1

    Geometry (in Angstrom), charge = 0, multiplicity = 1:

       Center              X                  Y                   Z               Mass
    ------------   -----------------  -----------------  -----------------  -----------------
         O            0.020894034514     0.244453005907    -0.396754057793    15.994914619570
         O           -1.302299965486    -1.629223994093    -0.234018057793    15.994914619570
         O            1.117209034514    -1.087103994093     1.121622942207    15.994914619570
         C           -2.341696265486     0.573603305907    -0.363044257793    12.000000000000
         C            2.401305034514     0.214862005907    -0.489731057793    12.000000000000
         C           -1.208875965486    -0.424912994093    -0.280658057793    12.000000000000
         C            1.162200034514    -0.328349994093     0.180457942207    12.000000000000
         C           -3.672941965486    -0.117719994093    -0.483749057793    12.000000000000
         C           -2.294302965486     1.350925005907     1.061758942207    12.000000000000
         C            2.478183034514     1.734551005907    -0.292213057793    12.000000000000
         C            3.642589034514    -0.495410994093     0.036598942207    12.000000000000
         H           -2.139688965486     1.284972005907    -1.079289057793     1.007825032230
         H            2.282453034514     0.014731005907    -1.562433057793     1.007825032230
         H           -4.479395965486     0.620616005907    -0.503870057793     1.007825032230
         H           -3.682026965486    -0.669082994093    -1.427011057793     1.007825032230
         H           -3.869623965486    -0.829150994093     0.321823942207     1.007825032230
         H           -3.098973965486     2.091061005907     1.084507942207     1.007825032230
         H           -2.434569965486     0.667354005907     1.904826942207     1.007825032230
         H           -1.341454965486     1.869545005907     1.188306942207     1.007825032230
         H            2.544883034514     1.975190005907     0.773556942207     1.007825032230
         H            1.602390034514     2.235054005907    -0.709419057793     1.007825032230
         H            3.372381034514     2.126675005907    -0.784755057793     1.007825032230
         H            3.766238034514    -0.306390994093     1.105773942207     1.007825032230
         H            4.530399034514    -0.131111994093    -0.487856057793     1.007825032230
         H            3.570904034514    -1.575947994093    -0.106118057793     1.007825032230

  Basis Set: AUG-CC-PVTZ
    Blend: AUG-CC-PVTZ
  Basis Set: (AUG-CC-PVTZ AUX)
    Blend: AUG-CC-PVTZ-JKFIT
	 Reference Energy          =    -535.9037154441251687 [Eh]
	 Singles Energy            =      -0.0000000000000000 [Eh]
	 Same-Spin Energy          =      -0.5373595378941082 [Eh]
	 Opposite-Spin Energy      =      -1.7526158966905800 [Eh]
	 Correlation Energy        =      -2.2899754345846883 [Eh]
	 Total Energy              =    -538.1936908787098446 [Eh]

	 ================> DF-SCS-MP2 Energies <==================
	-----------------------------------------------------------
	 SCS Same-Spin Scale       =       0.3333333333333333 [-]
	 SCS Opposite-Spin Scale   =       1.2000000000000000 [-]
	 SCS Same-Spin Energy      =      -0.1791198459647027 [Eh]
	 SCS Opposite-Spin Energy  =      -2.1031390760286959 [Eh]
	 SCS Correlation Energy    =      -2.2822589219933986 [Eh]
	 SCS Total Energy          =    -538.1859743661185576 [Eh]
	-----------------------------------------------------------

  Dipole Moment: [D]
     X:     0.1581      Y:     3.4285      Z:    -1.4515     Total:     3.7264

*** Psi4 exiting successfully. Buy a developer a beer!
