                               Psi4 1.3.2 release

  ==> Input File <==

--------------------------------------------------------------------------
#psi4
#
memory 32 gb

molecule  {
0 1
  O        0.0168640     0.1901590    -0.4020990
  O       -1.3063300    -1.6835180    -0.2393630
  O        1.1131790    -1.1413980     1.1162780
  C       -2.3519736     0.5150606    -0.4681034
  C        2.3972750     0.1605680    -0.4950760
  C       -1.2129060    -0.4792070    -0.2860030
  C        1.1581700    -0.3826440     0.1751130
  C       -3.6769720    -0.1720140    -0.4890940
  C       -2.2983330     1.2966310     1.0564140
  C        2.4741530     1.6802570    -0.2975580
  C        3.6385590    -0.5497050     0.0312540
  H       -2.1437190     1.2306780    -1.0846340
  H        2.2784230    -0.0395630    -1.5677780
  H       -4.4834260     0.5663220    -0.5092150
  H       -3.6860570    -0.7233770    -1.4323560
  H       -3.8736540    -0.8834450     0.3164790
  H       -3.1030040     2.0367670     1.0791630
  H       -2.4386000     0.6130600     1.8994820
  H       -1.3454850     1.8152510     1.1829620
  H        2.5408530     1.9208960     0.7682120
  H        1.5983600     2.1807600    -0.7147640
  H        3.3683510     2.0723810    -0.7901000
  H        3.7622080    -0.3606850     1.1004290
  H        4.5263690    -0.1854060    -0.4932010
  H        3.5668740    -1.6302420    -0.1114630
units angstrom
no_reorient  #important for SAPT in psi4, default
symmetry c1  #important for SAPT in psi4, default
}

set PROPERTIES_ORIGIN ["COM"]
properties('MP2/aug-cc-pvtz', properties = ['dipole'])
--------------------------------------------------------------------------

    Molecular point group: c1
  Charge       = 0
  Multiplicity = 1
  Basis Set: AUG-CC-PVTZ
    Blend: AUG-CC-PVTZ
  Basis Set: (AUG-CC-PVTZ AUX)
    Blend: AUG-CC-PVTZ-JKFIT

    Orbital Energies [Eh]
    ---------------------

    Doubly Occupied:

       1A    -20.623901     2A    -20.560084     3A    -20.558329
       4A    -11.395710     5A    -11.393702     6A    -11.258908
       7A    -11.257915     8A    -11.241808     9A    -11.235868
      10A    -11.224524    11A    -11.223308    12A     -1.480517
      13A     -1.400225    14A     -1.359433    15A     -1.105040
      16A     -1.089549    17A     -0.952441    18A     -0.943653
      19A     -0.928527    20A     -0.867598    21A     -0.800056
      22A     -0.740614    23A     -0.715177    24A     -0.701798
      25A     -0.672459    26A     -0.647089    27A     -0.619900
      28A     -0.615912    29A     -0.600967    30A     -0.575553
      31A     -0.570623    32A     -0.555752    33A     -0.551544
      34A     -0.539819    35A     -0.535158    36A     -0.532193
      37A     -0.525117    38A     -0.500070    39A     -0.492482
      40A     -0.476864    41A     -0.473445    42A     -0.448079
      43A     -0.423987

  @DF-RHF Final Energy:  -535.87746856031458

   => Energetics <=

    Nuclear Repulsion Energy =            647.2282444937663968
    One-Electron Energy =               -2015.3800322087986387
    Two-Electron Energy =                 832.2743191547176593
    Total Energy =                       -535.8774685603145826
  Basis Set: (AUG-CC-PVTZ AUX)
    Blend: AUG-CC-PVTZ-RI
    Molecular point group: c1

    Geometry (in Angstrom), charge = 0, multiplicity = 1:

       Center              X                  Y                   Z               Mass
    ------------   -----------------  -----------------  -----------------  -----------------
         O            0.021368229995     0.244775499519    -0.389185344417    15.994914619570
         O           -1.301825770005    -1.628901500481    -0.226449344417    15.994914619570
         O            1.117683229995    -1.086781500481     1.129191655583    15.994914619570
         C           -2.347469370005     0.569677099519    -0.455189744417    12.000000000000
         C            2.401779229995     0.215184499519    -0.482162344417    12.000000000000
         C           -1.208401770005    -0.424590500481    -0.273089344417    12.000000000000
         C            1.162674229995    -0.328027500481     0.188026655583    12.000000000000
         C           -3.672467770005    -0.117397500481    -0.476180344417    12.000000000000
         C           -2.293828770005     1.351247499519     1.069327655583    12.000000000000
         C            2.478657229995     1.734873499519    -0.284644344417    12.000000000000
         C            3.643063229995    -0.495088500481     0.044167655583    12.000000000000
         H           -2.139214770005     1.285294499519    -1.071720344417     1.007825032230
         H            2.282927229995     0.015053499519    -1.554864344417     1.007825032230
         H           -4.478921770005     0.620938499519    -0.496301344417     1.007825032230
         H           -3.681552770005    -0.668760500481    -1.419442344417     1.007825032230
         H           -3.869149770005    -0.828828500481     0.329392655583     1.007825032230
         H           -3.098499770005     2.091383499519     1.092076655583     1.007825032230
         H           -2.434095770005     0.667676499519     1.912395655583     1.007825032230
         H           -1.340980770005     1.869867499519     1.195875655583     1.007825032230
         H            2.545357229995     1.975512499519     0.781125655583     1.007825032230
         H            1.602864229995     2.235376499519    -0.701850344417     1.007825032230
         H            3.372855229995     2.126997499519    -0.777186344417     1.007825032230
         H            3.766712229995    -0.306068500481     1.113342655583     1.007825032230
         H            4.530873229995    -0.130789500481    -0.480287344417     1.007825032230
         H            3.571378229995    -1.575625500481    -0.098549344417     1.007825032230

  Basis Set: AUG-CC-PVTZ
    Blend: AUG-CC-PVTZ
  Basis Set: (AUG-CC-PVTZ AUX)
    Blend: AUG-CC-PVTZ-JKFIT
	 Reference Energy          =    -535.8774685603145826 [Eh]
	 Singles Energy            =      -0.0000000000000000 [Eh]
	 Same-Spin Energy          =      -0.5378589270384815 [Eh]
	 Opposite-Spin Energy      =      -1.7540955619723757 [Eh]
	 Correlation Energy        =      -2.2919544890108572 [Eh]
	 Total Energy              =    -538.1694230493254736 [Eh]

	 ================> DF-SCS-MP2 Energies <==================
	-----------------------------------------------------------
	 SCS Same-Spin Scale       =       0.3333333333333333 [-]
	 SCS Opposite-Spin Scale   =       1.2000000000000000 [-]
	 SCS Same-Spin Energy      =      -0.1792863090128272 [Eh]
	 SCS Opposite-Spin Energy  =      -2.1049146743668508 [Eh]
	 SCS Correlation Energy    =      -2.2842009833796779 [Eh]
	 SCS Total Energy          =    -538.1616695436943019 [Eh]
	-----------------------------------------------------------

  Dipole Moment: [D]
     X:     0.1090      Y:     3.4532      Z:    -1.4676     Total:     3.7537

*** Psi4 exiting successfully. Buy a developer a beer!
