                               Psi4 1.4a2.dev612

  ==> Input File <==

--------------------------------------------------------------------------
#psi4
#
memory 32 gb

molecule  {
0 1
  O        1.7739800     1.6003060    -0.2911220
  N        0.9906540    -0.4920130     0.2058460
  C       -2.2286800    -0.2510300    -0.1765170
  C       -1.2730330    -1.4351160    -0.3152870
  C       -1.5989250     1.1242550    -0.3956020
  C       -0.0841310    -1.3759550     0.6456410
  C       -0.4941506     1.4516391     0.4852235
  C        0.8707430     0.8730760     0.1404640
  C        2.1918860    -1.1187650    -0.3259700
  H       -2.6699130    -0.2765890     0.8297550
  H       -3.0608600    -0.3791320    -0.8796750
  H       -1.8321650    -2.3606500    -0.1255340
  H       -0.8887130    -1.5005570    -1.3409750
  H       -2.3834680     1.8827830    -0.2893500
  H       -1.2246060     1.2090190    -1.4238390
  H       -0.4244360    -1.0900460     1.6492300
  H        0.3620160    -2.3701320     0.7449650
  H       -0.7218730     1.1400510     1.5944380
  H       -0.2910430     2.5394790     0.6064930
  H        1.9486170    -1.7578730    -1.1825500
  H        2.6762910    -1.7288140     0.4434650
  H        2.8674440    -0.3269360    -0.6441440
units angstrom
no_reorient  #important for SAPT in psi4, default
symmetry c1  #important for SAPT in psi4, default
}

set PROPERTIES_ORIGIN ["COM"]
properties('MP2/aug-cc-pvtz', properties = ['dipole'])
--------------------------------------------------------------------------

    Molecular point group: c1
  Charge       = 0
  Multiplicity = 1
  Basis Set: AUG-CC-PVTZ
    Blend: AUG-CC-PVTZ
  Basis Set: (AUG-CC-PVTZ AUX)
    Blend: AUG-CC-PVTZ-JKFIT

    Orbital Energies [Eh]
    ---------------------

    Doubly Occupied:

       1A    -20.506871     2A    -15.581114     3A    -11.340858
       4A    -11.271980     5A    -11.250961     6A    -11.238757
       7A    -11.233711     8A    -11.232034     9A    -11.229851
      10A     -1.362714    11A     -1.241702    12A     -1.105925
      13A     -1.042969    14A     -0.974742    15A     -0.916062
      16A     -0.876616    17A     -0.793896    18A     -0.723904
      19A     -0.690141    20A     -0.670316    21A     -0.633442
      22A     -0.612240    23A     -0.602285    24A     -0.593168
      25A     -0.586112    26A     -0.555550    27A     -0.550294
      28A     -0.527184    29A     -0.510870    30A     -0.499689
      31A     -0.477873    32A     -0.474628    33A     -0.458933
      34A     -0.405884    35A     -0.365439

  @DF-RHF Final Energy:  -402.10105074698987

   => Energetics <=

    Nuclear Repulsion Energy =            487.1520031209983017
    One-Electron Energy =               -1512.2286821140316988
    Two-Electron Energy =                 622.9756282460436978
    Total Energy =                       -402.1010507469898130
  Basis Set: (AUG-CC-PVTZ AUX)
    Blend: AUG-CC-PVTZ-RI
    Molecular point group: c1

    Geometry (in Angstrom), charge = 0, multiplicity = 1:

       Center              X                  Y                   Z               Mass
    ------------   -----------------  -----------------  -----------------  -----------------
         O            1.733346475600     1.562023941867    -0.282495509862    15.994914619570
         N            0.950020475600    -0.530295058133     0.214472490138    14.003074004430
         C           -2.269313524400    -0.289312058133    -0.167890509862    12.000000000000
         C           -1.313666524400    -1.473398058133    -0.306660509862    12.000000000000
         C           -1.639558524400     1.085972941867    -0.386975509862    12.000000000000
         C           -0.124764524400    -1.414237058133     0.654267490138    12.000000000000
         C           -0.534784124400     1.413357041867     0.493849990138    12.000000000000
         C            0.830109475600     0.834793941867     0.149090490138    12.000000000000
         C            2.151252475600    -1.157047058133    -0.317343509862    12.000000000000
         H           -2.710546524400    -0.314871058133     0.838381490138     1.007825032230
         H           -3.101493524400    -0.417414058133    -0.871048509862     1.007825032230
         H           -1.872798524400    -2.398932058133    -0.116907509862     1.007825032230
         H           -0.929346524400    -1.538839058133    -1.332348509862     1.007825032230
         H           -2.424101524400     1.844500941867    -0.280723509862     1.007825032230
         H           -1.265239524400     1.170736941867    -1.415212509862     1.007825032230
         H           -0.465069524400    -1.128328058133     1.657856490138     1.007825032230
         H            0.321382475600    -2.408414058133     0.753591490138     1.007825032230
         H           -0.762506524400     1.101768941867     1.603064490138     1.007825032230
         H           -0.331676524400     2.501196941867     0.615119490138     1.007825032230
         H            1.907983475600    -1.796155058133    -1.173923509862     1.007825032230
         H            2.635657475600    -1.767096058133     0.452091490138     1.007825032230
         H            2.826810475600    -0.365218058133    -0.635517509862     1.007825032230

  Basis Set: AUG-CC-PVTZ
    Blend: AUG-CC-PVTZ
  Basis Set: (AUG-CC-PVTZ AUX)
    Blend: AUG-CC-PVTZ-JKFIT
	 Reference Energy          =    -402.1010507469898698 [Eh]
	 Singles Energy            =      -0.0000000000000000 [Eh]
	 Same-Spin Energy          =      -0.4227213212144008 [Eh]
	 Opposite-Spin Energy      =      -1.4064642669043372 [Eh]
	 Correlation Energy        =      -1.8291855881187380 [Eh]
	 Total Energy              =    -403.9302363351085887 [Eh]

	 ================> DF-SCS-MP2 Energies <==================
	-----------------------------------------------------------
	 SCS Same-Spin Scale       =       0.3333333333333333 [-]
	 SCS Opposite-Spin Scale   =       1.2000000000000000 [-]
	 SCS Same-Spin Energy      =      -0.1409071070714669 [Eh]
	 SCS Opposite-Spin Energy  =      -1.6877571202852046 [Eh]
	 SCS Correlation Energy    =      -1.8286642273566716 [Eh]
	 SCS Total Energy          =    -403.9297149743465525 [Eh]
	-----------------------------------------------------------

  Dipole Moment: [D]
     X:    -2.5550      Y:    -3.1114      Z:     0.7256     Total:     4.0909

*** Psi4 exiting successfully. Buy a developer a beer!
