                               Psi4 1.4a2.dev612

  ==> Input File <==

--------------------------------------------------------------------------
#psi4
#
memory 32 gb

molecule  {
0 1
  O        1.7739800     1.6003060    -0.2911220
  N        0.9906540    -0.4920130     0.2058460
  C       -2.2286800    -0.2510300    -0.1765170
  C       -1.2730330    -1.4351160    -0.3152870
  C       -1.5989250     1.1242550    -0.3956020
  C       -0.0841310    -1.3759550     0.6456410
  C       -0.5654958     1.4341652     0.2992006
  C        0.8707430     0.8730760     0.1404640
  C        2.1918860    -1.1187650    -0.3259700
  H       -2.6699130    -0.2765890     0.8297550
  H       -3.0608600    -0.3791320    -0.8796750
  H       -1.8321650    -2.3606500    -0.1255340
  H       -0.8887130    -1.5005570    -1.3409750
  H       -2.3834680     1.8827830    -0.2893500
  H       -1.2246060     1.2090190    -1.4238390
  H       -0.4244360    -1.0900460     1.6492300
  H        0.3620160    -2.3701320     0.7449650
  H       -0.7218730     1.1400510     1.5944380
  H       -0.2910430     2.5394790     0.6064930
  H        1.9486170    -1.7578730    -1.1825500
  H        2.6762910    -1.7288140     0.4434650
  H        2.8674440    -0.3269360    -0.6441440
units angstrom
no_reorient  #important for SAPT in psi4, default
symmetry c1  #important for SAPT in psi4, default
}

set PROPERTIES_ORIGIN ["COM"]
properties('MP2/aug-cc-pvtz', properties = ['dipole'])
--------------------------------------------------------------------------

    Molecular point group: c1
  Charge       = 0
  Multiplicity = 1
  Basis Set: AUG-CC-PVTZ
    Blend: AUG-CC-PVTZ
  Basis Set: (AUG-CC-PVTZ AUX)
    Blend: AUG-CC-PVTZ-JKFIT

    Orbital Energies [Eh]
    ---------------------

    Doubly Occupied:

       1A    -20.510286     2A    -15.582094     3A    -11.346544
       4A    -11.271294     5A    -11.254093     6A    -11.251878
       7A    -11.235262     8A    -11.234649     9A    -11.221663
      10A     -1.364983    11A     -1.242896    12A     -1.137165
      13A     -1.053009    14A     -0.972466    15A     -0.924182
      16A     -0.871130    17A     -0.798179    18A     -0.721058
      19A     -0.694911    20A     -0.677266    21A     -0.634517
      22A     -0.630647    23A     -0.608665    24A     -0.593343
      25A     -0.586549    26A     -0.567780    27A     -0.549604
      28A     -0.525227    29A     -0.514226    30A     -0.493059
      31A     -0.484241    32A     -0.468654    33A     -0.429126
      34A     -0.389639    35A     -0.366022

  @DF-RHF Final Energy:  -402.01427755644761

   => Energetics <=

    Nuclear Repulsion Energy =            488.7935636019973344
    One-Electron Energy =               -1515.2030640696079899
    Two-Electron Energy =                 624.3952229111629322
    Total Energy =                       -402.0142775564476096
  Basis Set: (AUG-CC-PVTZ AUX)
    Blend: AUG-CC-PVTZ-RI
    Molecular point group: c1

    Geometry (in Angstrom), charge = 0, multiplicity = 1:

       Center              X                  Y                   Z               Mass
    ------------   -----------------  -----------------  -----------------  -----------------
         O            1.740082465578     1.563673723706    -0.264932332660    15.994914619570
         N            0.956756465578    -0.528645276294     0.232035667340    14.003074004430
         C           -2.262577534422    -0.287662276294    -0.150327332660    12.000000000000
         C           -1.306930534422    -1.471748276294    -0.289097332660    12.000000000000
         C           -1.632822534422     1.087622723706    -0.369412332660    12.000000000000
         C           -0.118028534422    -1.412587276294     0.671830667340    12.000000000000
         C           -0.599393334422     1.397532923706     0.325390267340    12.000000000000
         C            0.836845465578     0.836443723706     0.166653667340    12.000000000000
         C            2.157988465578    -1.155397276294    -0.299780332660    12.000000000000
         H           -2.703810534422    -0.313221276294     0.855944667340     1.007825032230
         H           -3.094757534422    -0.415764276294    -0.853485332660     1.007825032230
         H           -1.866062534422    -2.397282276294    -0.099344332660     1.007825032230
         H           -0.922610534422    -1.537189276294    -1.314785332660     1.007825032230
         H           -2.417365534422     1.846150723706    -0.263160332660     1.007825032230
         H           -1.258503534422     1.172386723706    -1.397649332660     1.007825032230
         H           -0.458333534422    -1.126678276294     1.675419667340     1.007825032230
         H            0.328118465578    -2.406764276294     0.771154667340     1.007825032230
         H           -0.755770534422     1.103418723706     1.620627667340     1.007825032230
         H           -0.324940534422     2.502846723706     0.632682667340     1.007825032230
         H            1.914719465578    -1.794505276294    -1.156360332660     1.007825032230
         H            2.642393465578    -1.765446276294     0.469654667340     1.007825032230
         H            2.833546465578    -0.363568276294    -0.617954332660     1.007825032230

  Basis Set: AUG-CC-PVTZ
    Blend: AUG-CC-PVTZ
  Basis Set: (AUG-CC-PVTZ AUX)
    Blend: AUG-CC-PVTZ-JKFIT
	 Reference Energy          =    -402.0142775564476096 [Eh]
	 Singles Energy            =      -0.0000000000000000 [Eh]
	 Same-Spin Energy          =      -0.4267038921800534 [Eh]
	 Opposite-Spin Energy      =      -1.4126996480473608 [Eh]
	 Correlation Energy        =      -1.8394035402274143 [Eh]
	 Total Energy              =    -403.8536810966750181 [Eh]

	 ================> DF-SCS-MP2 Energies <==================
	-----------------------------------------------------------
	 SCS Same-Spin Scale       =       0.3333333333333333 [-]
	 SCS Opposite-Spin Scale   =       1.2000000000000000 [-]
	 SCS Same-Spin Energy      =      -0.1422346307266845 [Eh]
	 SCS Opposite-Spin Energy  =      -1.6952395776568330 [Eh]
	 SCS Correlation Energy    =      -1.8374742083835174 [Eh]
	 SCS Total Energy          =    -403.8517517648311355 [Eh]
	-----------------------------------------------------------

  Dipole Moment: [D]
     X:    -2.5483      Y:    -3.1561      Z:     0.4339     Total:     4.0796

*** Psi4 exiting successfully. Buy a developer a beer!
