                               Psi4 1.4a2.dev612

  ==> Input File <==

--------------------------------------------------------------------------
#psi4
#
memory 32 gb

molecule  {
0 1
  O        1.7739800     1.6003060    -0.2911220
  N        0.9906540    -0.4920130     0.2058460
  C       -2.2286800    -0.2510300    -0.1765170
  C       -1.2730330    -1.4351160    -0.3152870
  C       -1.5989250     1.1242550    -0.3956020
  C       -0.0841310    -1.3759550     0.6456410
  C       -0.4584780     1.4603760     0.5782350
  C        0.8707430     0.8730760     0.1404640
  C        2.1918860    -1.1187650    -0.3259700
  H       -2.6699130    -0.2765890     0.8297550
  H       -3.0608600    -0.3791320    -0.8796750
  H       -1.8321650    -2.3606500    -0.1255340
  H       -0.8887130    -1.5005570    -1.3409750
  H       -2.3834680     1.8827830    -0.2893500
  H       -1.2246060     1.2090190    -1.4238390
  H       -0.4244360    -1.0900460     1.6492300
  H        0.3620160    -2.3701320     0.7449650
  H       -0.7218730     1.1400510     1.5944380
  H       -0.2910430     2.5394790     0.6064930
  H        1.9486170    -1.7578730    -1.1825500
  H        2.6762910    -1.7288140     0.4434650
  H        2.8674440    -0.3269360    -0.6441440
units angstrom
no_reorient  #important for SAPT in psi4, default
symmetry c1  #important for SAPT in psi4, default
}

set PROPERTIES_ORIGIN ["COM"]
properties('MP2/aug-cc-pvtz', properties = ['dipole'])
--------------------------------------------------------------------------

    Molecular point group: c1
  Charge       = 0
  Multiplicity = 1
  Basis Set: AUG-CC-PVTZ
    Blend: AUG-CC-PVTZ
  Basis Set: (AUG-CC-PVTZ AUX)
    Blend: AUG-CC-PVTZ-JKFIT

    Orbital Energies [Eh]
    ---------------------

    Doubly Occupied:

       1A    -20.505709     2A    -15.580580     3A    -11.339935
       4A    -11.272220     5A    -11.250591     6A    -11.234664
       7A    -11.233512     8A    -11.233389     9A    -11.231502
      10A     -1.361849    11A     -1.241199    12A     -1.097557
      13A     -1.038144    14A     -0.975619    15A     -0.913914
      16A     -0.878171    17A     -0.792527    18A     -0.725294
      19A     -0.690622    20A     -0.668823    21A     -0.633275
      22A     -0.608305    23A     -0.601860    24A     -0.594320
      25A     -0.583202    26A     -0.558325    27A     -0.544441
      28A     -0.527099    29A     -0.509770    30A     -0.509099
      31A     -0.479402    32A     -0.467419    33A     -0.465350
      34A     -0.407453    35A     -0.365107

  @DF-RHF Final Energy:  -402.11206581521378

   => Energetics <=

    Nuclear Repulsion Energy =            486.3014368295192753
    One-Electron Energy =               -1510.5865146353482942
    Two-Electron Energy =                 622.1730119906153504
    Total Energy =                       -402.1120658152137821
  Basis Set: (AUG-CC-PVTZ AUX)
    Blend: AUG-CC-PVTZ-RI
    Molecular point group: c1

    Geometry (in Angstrom), charge = 0, multiplicity = 1:

       Center              X                  Y                   Z               Mass
    ------------   -----------------  -----------------  -----------------  -----------------
         O            1.729978480611     1.561199055668    -0.291277103183    15.994914619570
         N            0.946652480611    -0.531119944332     0.205690896817    14.003074004430
         C           -2.272681519389    -0.290136944332    -0.176672103183    12.000000000000
         C           -1.317034519389    -1.474222944332    -0.315442103183    12.000000000000
         C           -1.642926519389     1.085148055668    -0.395757103183    12.000000000000
         C           -0.128132519389    -1.415061944332     0.645485896817    12.000000000000
         C           -0.502479519389     1.421269055668     0.578079896817    12.000000000000
         C            0.826741480611     0.833969055668     0.140308896817    12.000000000000
         C            2.147884480611    -1.157871944332    -0.326125103183    12.000000000000
         H           -2.713914519389    -0.315695944332     0.829599896817     1.007825032230
         H           -3.104861519389    -0.418238944332    -0.879830103183     1.007825032230
         H           -1.876166519389    -2.399756944332    -0.125689103183     1.007825032230
         H           -0.932714519389    -1.539663944332    -1.341130103183     1.007825032230
         H           -2.427469519389     1.843676055668    -0.289505103183     1.007825032230
         H           -1.268607519389     1.169912055668    -1.423994103183     1.007825032230
         H           -0.468437519389    -1.129152944332     1.649074896817     1.007825032230
         H            0.318014480611    -2.409238944332     0.744809896817     1.007825032230
         H           -0.765874519389     1.100944055668     1.594282896817     1.007825032230
         H           -0.335044519389     2.500372055668     0.606337896817     1.007825032230
         H            1.904615480611    -1.796979944332    -1.182705103183     1.007825032230
         H            2.632289480611    -1.767920944332     0.443309896817     1.007825032230
         H            2.823442480611    -0.366042944332    -0.644299103183     1.007825032230

  Basis Set: AUG-CC-PVTZ
    Blend: AUG-CC-PVTZ
  Basis Set: (AUG-CC-PVTZ AUX)
    Blend: AUG-CC-PVTZ-JKFIT
	 Reference Energy          =    -402.1120658152137821 [Eh]
	 Singles Energy            =      -0.0000000000000000 [Eh]
	 Same-Spin Energy          =      -0.4217802252015359 [Eh]
	 Opposite-Spin Energy      =      -1.4052078154367935 [Eh]
	 Correlation Energy        =      -1.8269880406383294 [Eh]
	 Total Energy              =    -403.9390538558521371 [Eh]

	 ================> DF-SCS-MP2 Energies <==================
	-----------------------------------------------------------
	 SCS Same-Spin Scale       =       0.3333333333333333 [-]
	 SCS Opposite-Spin Scale   =       1.2000000000000000 [-]
	 SCS Same-Spin Energy      =      -0.1405934084005120 [Eh]
	 SCS Opposite-Spin Energy  =      -1.6862493785241521 [Eh]
	 SCS Correlation Energy    =      -1.8268427869246642 [Eh]
	 SCS Total Energy          =    -403.9389086021384401 [Eh]
	-----------------------------------------------------------

  Dipole Moment: [D]
     X:    -2.5799      Y:    -3.1038      Z:     0.7933     Total:     4.1133

*** Psi4 exiting successfully. Buy a developer a beer!
