                               Psi4 1.4a2.dev612

  ==> Input File <==

--------------------------------------------------------------------------
#psi4
#
memory 32 gb

molecule  {
0 1
  O        1.7739800     1.6003060    -0.2911220
  N        0.9906540    -0.4920130     0.2058460
  C       -2.2286800    -0.2510300    -0.1765170
  C       -1.2730330    -1.4351160    -0.3152870
  C       -1.5989250     1.1242550    -0.3956020
  C       -0.0841310    -1.3759550     0.6456410
  C       -0.5119869     1.4472706     0.4387178
  C        0.8707430     0.8730760     0.1404640
  C        2.1918860    -1.1187650    -0.3259700
  H       -2.6699130    -0.2765890     0.8297550
  H       -3.0608600    -0.3791320    -0.8796750
  H       -1.8321650    -2.3606500    -0.1255340
  H       -0.8887130    -1.5005570    -1.3409750
  H       -2.3834680     1.8827830    -0.2893500
  H       -1.2246060     1.2090190    -1.4238390
  H       -0.4244360    -1.0900460     1.6492300
  H        0.3620160    -2.3701320     0.7449650
  H       -0.7218730     1.1400510     1.5944380
  H       -0.2910430     2.5394790     0.6064930
  H        1.9486170    -1.7578730    -1.1825500
  H        2.6762910    -1.7288140     0.4434650
  H        2.8674440    -0.3269360    -0.6441440
units angstrom
no_reorient  #important for SAPT in psi4, default
symmetry c1  #important for SAPT in psi4, default
}

set PROPERTIES_ORIGIN ["COM"]
properties('MP2/aug-cc-pvtz', properties = ['dipole'])
--------------------------------------------------------------------------

    Molecular point group: c1
  Charge       = 0
  Multiplicity = 1
  Basis Set: AUG-CC-PVTZ
    Blend: AUG-CC-PVTZ
  Basis Set: (AUG-CC-PVTZ AUX)
    Blend: AUG-CC-PVTZ-JKFIT

    Orbital Energies [Eh]
    ---------------------

    Doubly Occupied:

       1A    -20.507593     2A    -15.581373     3A    -11.341818
       4A    -11.271835     5A    -11.251169     6A    -11.242037
       7A    -11.233942     8A    -11.232436     9A    -11.227597
      10A     -1.363219    11A     -1.241975    12A     -1.111656
      13A     -1.045498    14A     -0.974236    15A     -0.917662
      16A     -0.875541    17A     -0.794849    18A     -0.723194
      19A     -0.690671    20A     -0.671493    21A     -0.633617
      22A     -0.615730    23A     -0.603478    24A     -0.592646
      25A     -0.586839    26A     -0.557865    27A     -0.550673
      28A     -0.526745    29A     -0.511620    30A     -0.496191
      31A     -0.479043    32A     -0.474660    33A     -0.452972
      34A     -0.403935    35A     -0.365604

  @DF-RHF Final Energy:  -402.08794101129610

   => Energetics <=

    Nuclear Repulsion Energy =            487.5672691774694272
    One-Electron Energy =               -1513.0076010019936348
    Two-Electron Energy =                 623.3523908132281122
    Total Energy =                       -402.0879410112961523
  Basis Set: (AUG-CC-PVTZ AUX)
    Blend: AUG-CC-PVTZ-RI
    Molecular point group: c1

    Geometry (in Angstrom), charge = 0, multiplicity = 1:

       Center              X                  Y                   Z               Mass
    ------------   -----------------  -----------------  -----------------  -----------------
         O            1.735030473094     1.562436389687    -0.278104717922    15.994914619570
         N            0.951704473094    -0.529882610313     0.218863282078    14.003074004430
         C           -2.267629526906    -0.288899610313    -0.163499717922    12.000000000000
         C           -1.311982526906    -1.472985610313    -0.302269717922    12.000000000000
         C           -1.637874526906     1.086385389687    -0.382584717922    12.000000000000
         C           -0.123080526906    -1.413824610313     0.658658282078    12.000000000000
         C           -0.550936426906     1.409400989687     0.451735082078    12.000000000000
         C            0.831793473094     0.835206389687     0.153481282078    12.000000000000
         C            2.152936473094    -1.156634610313    -0.312952717922    12.000000000000
         H           -2.708862526906    -0.314458610313     0.842772282078     1.007825032230
         H           -3.099809526906    -0.417001610313    -0.866657717922     1.007825032230
         H           -1.871114526906    -2.398519610313    -0.112516717922     1.007825032230
         H           -0.927662526906    -1.538426610313    -1.327957717922     1.007825032230
         H           -2.422417526906     1.844913389687    -0.276332717922     1.007825032230
         H           -1.263555526906     1.171149389687    -1.410821717922     1.007825032230
         H           -0.463385526906    -1.127915610313     1.662247282078     1.007825032230
         H            0.323066473094    -2.408001610313     0.757982282078     1.007825032230
         H           -0.760822526906     1.102181389687     1.607455282078     1.007825032230
         H           -0.329992526906     2.501609389687     0.619510282078     1.007825032230
         H            1.909667473094    -1.795742610313    -1.169532717922     1.007825032230
         H            2.637341473094    -1.766683610313     0.456482282078     1.007825032230
         H            2.828494473094    -0.364805610313    -0.631126717922     1.007825032230

  Basis Set: AUG-CC-PVTZ
    Blend: AUG-CC-PVTZ
  Basis Set: (AUG-CC-PVTZ AUX)
    Blend: AUG-CC-PVTZ-JKFIT
	 Reference Energy          =    -402.0879410112960954 [Eh]
	 Singles Energy            =      -0.0000000000000000 [Eh]
	 Same-Spin Energy          =      -0.4234432186322110 [Eh]
	 Opposite-Spin Energy      =      -1.4075558440564597 [Eh]
	 Correlation Energy        =      -1.8309990626886707 [Eh]
	 Total Energy              =    -403.9189400739847429 [Eh]

	 ================> DF-SCS-MP2 Energies <==================
	-----------------------------------------------------------
	 SCS Same-Spin Scale       =       0.3333333333333333 [-]
	 SCS Opposite-Spin Scale   =       1.2000000000000000 [-]
	 SCS Same-Spin Energy      =      -0.1411477395440703 [Eh]
	 SCS Opposite-Spin Energy  =      -1.6890670128677516 [Eh]
	 SCS Correlation Energy    =      -1.8302147524118220 [Eh]
	 SCS Total Energy          =    -403.9181557637079436 [Eh]
	-----------------------------------------------------------

  Dipole Moment: [D]
     X:    -2.5463      Y:    -3.1180      Z:     0.6753     Total:     4.0819

*** Psi4 exiting successfully. Buy a developer a beer!
