                               Psi4 1.4a2.dev612

  ==> Input File <==

--------------------------------------------------------------------------
#psi4
#
memory 32 gb

molecule  {
0 1
  O        1.7739800     1.6003060    -0.2911220
  N        0.9906540    -0.4920130     0.2058460
  C       -2.2286800    -0.2510300    -0.1765170
  C       -1.2730330    -1.4351160    -0.3152870
  C       -1.5989250     1.1242550    -0.3956020
  C       -0.0841310    -1.3759550     0.6456410
  C       -0.5476595     1.4385337     0.3457064
  C        0.8707430     0.8730760     0.1404640
  C        2.1918860    -1.1187650    -0.3259700
  H       -2.6699130    -0.2765890     0.8297550
  H       -3.0608600    -0.3791320    -0.8796750
  H       -1.8321650    -2.3606500    -0.1255340
  H       -0.8887130    -1.5005570    -1.3409750
  H       -2.3834680     1.8827830    -0.2893500
  H       -1.2246060     1.2090190    -1.4238390
  H       -0.4244360    -1.0900460     1.6492300
  H        0.3620160    -2.3701320     0.7449650
  H       -0.7218730     1.1400510     1.5944380
  H       -0.2910430     2.5394790     0.6064930
  H        1.9486170    -1.7578730    -1.1825500
  H        2.6762910    -1.7288140     0.4434650
  H        2.8674440    -0.3269360    -0.6441440
units angstrom
no_reorient  #important for SAPT in psi4, default
symmetry c1  #important for SAPT in psi4, default
}

set PROPERTIES_ORIGIN ["COM"]
properties('MP2/aug-cc-pvtz', properties = ['dipole'])
--------------------------------------------------------------------------

    Molecular point group: c1
  Charge       = 0
  Multiplicity = 1
  Basis Set: AUG-CC-PVTZ
    Blend: AUG-CC-PVTZ
  Basis Set: (AUG-CC-PVTZ AUX)
    Blend: AUG-CC-PVTZ-JKFIT

    Orbital Energies [Eh]
    ---------------------

    Doubly Occupied:

       1A    -20.509305     2A    -15.581864     3A    -11.344676
       4A    -11.271494     5A    -11.251628     6A    -11.249763
       7A    -11.234639     8A    -11.233777     9A    -11.223410
      10A     -1.364357    11A     -1.242568    12A     -1.127136
      13A     -1.050555    14A     -0.973089    15A     -0.921776
      16A     -0.872776    17A     -0.797061    18A     -0.721764
      19A     -0.693054    20A     -0.674924    21A     -0.634147
      22A     -0.625172    23A     -0.606722    24A     -0.592747
      25A     -0.586877    26A     -0.564739    27A     -0.549763
      28A     -0.525667    29A     -0.513294    30A     -0.493175
      31A     -0.482764    32A     -0.470864    33A     -0.437210
      34A     -0.396238    35A     -0.365909

  @DF-RHF Final Energy:  -402.04495216201025

   => Energetics <=

    Nuclear Repulsion Energy =            488.3862299801606923
    One-Electron Energy =               -1514.4925579837245095
    Two-Electron Energy =                 624.0613758415535131
    Total Energy =                       -402.0449521620101905
  Basis Set: (AUG-CC-PVTZ AUX)
    Blend: AUG-CC-PVTZ-RI
    Molecular point group: c1

    Geometry (in Angstrom), charge = 0, multiplicity = 1:

       Center              X                  Y                   Z               Mass
    ------------   -----------------  -----------------  -----------------  -----------------
         O            1.738398468083     1.563261275886    -0.269323134042    15.994914619570
         N            0.955072468083    -0.529057724114     0.227644865958    14.003074004430
         C           -2.264261531917    -0.288074724114    -0.154718134042    12.000000000000
         C           -1.308614531917    -1.472160724114    -0.293488134042    12.000000000000
         C           -1.634506531917     1.087210275886    -0.373803134042    12.000000000000
         C           -0.119712531917    -1.412999724114     0.667439865958    12.000000000000
         C           -0.583241031917     1.401488975886     0.367505265958    12.000000000000
         C            0.835161468083     0.836031275886     0.162262865958    12.000000000000
         C            2.156304468083    -1.155809724114    -0.304171134042    12.000000000000
         H           -2.705494531917    -0.313633724114     0.851553865958     1.007825032230
         H           -3.096441531917    -0.416176724114    -0.857876134042     1.007825032230
         H           -1.867746531917    -2.397694724114    -0.103735134042     1.007825032230
         H           -0.924294531917    -1.537601724114    -1.319176134042     1.007825032230
         H           -2.419049531917     1.845738275886    -0.267551134042     1.007825032230
         H           -1.260187531917     1.171974275886    -1.402040134042     1.007825032230
         H           -0.460017531917    -1.127090724114     1.671028865958     1.007825032230
         H            0.326434468083    -2.407176724114     0.766763865958     1.007825032230
         H           -0.757454531917     1.103006275886     1.616236865958     1.007825032230
         H           -0.326624531917     2.502434275886     0.628291865958     1.007825032230
         H            1.913035468083    -1.794917724114    -1.160751134042     1.007825032230
         H            2.640709468083    -1.765858724114     0.465263865958     1.007825032230
         H            2.831862468083    -0.363980724114    -0.622345134042     1.007825032230

  Basis Set: AUG-CC-PVTZ
    Blend: AUG-CC-PVTZ
  Basis Set: (AUG-CC-PVTZ AUX)
    Blend: AUG-CC-PVTZ-JKFIT
	 Reference Energy          =    -402.0449521620102473 [Eh]
	 Singles Energy            =      -0.0000000000000000 [Eh]
	 Same-Spin Energy          =      -0.4254284362492997 [Eh]
	 Opposite-Spin Energy      =      -1.4106728194752096 [Eh]
	 Correlation Energy        =      -1.8361012557245093 [Eh]
	 Total Energy              =    -403.8810534177347336 [Eh]

	 ================> DF-SCS-MP2 Energies <==================
	-----------------------------------------------------------
	 SCS Same-Spin Scale       =       0.3333333333333333 [-]
	 SCS Opposite-Spin Scale   =       1.2000000000000000 [-]
	 SCS Same-Spin Energy      =      -0.1418094787497666 [Eh]
	 SCS Opposite-Spin Energy  =      -1.6928073833702515 [Eh]
	 SCS Correlation Energy    =      -1.8346168621200181 [Eh]
	 SCS Total Energy          =    -403.8795690241302623 [Eh]
	-----------------------------------------------------------

  Dipole Moment: [D]
     X:    -2.5416      Y:    -3.1397      Z:     0.5320     Total:     4.0743

*** Psi4 exiting successfully. Buy a developer a beer!
