                               Psi4 1.4a2.dev612

  ==> Input File <==

--------------------------------------------------------------------------
#psi4
#
memory 32 gb

molecule  {
0 1
  O        1.7739800     1.6003060    -0.2911220
  N        0.9906540    -0.4920130     0.2058460
  C       -2.2286800    -0.2510300    -0.1765170
  C       -1.2730330    -1.4351160    -0.3152870
  C       -1.5989250     1.1242550    -0.3956020
  C       -0.0841310    -1.3759550     0.6456410
  C       -0.4763143     1.4560075     0.5317293
  C        0.8707430     0.8730760     0.1404640
  C        2.1918860    -1.1187650    -0.3259700
  H       -2.6699130    -0.2765890     0.8297550
  H       -3.0608600    -0.3791320    -0.8796750
  H       -1.8321650    -2.3606500    -0.1255340
  H       -0.8887130    -1.5005570    -1.3409750
  H       -2.3834680     1.8827830    -0.2893500
  H       -1.2246060     1.2090190    -1.4238390
  H       -0.4244360    -1.0900460     1.6492300
  H        0.3620160    -2.3701320     0.7449650
  H       -0.7218730     1.1400510     1.5944380
  H       -0.2910430     2.5394790     0.6064930
  H        1.9486170    -1.7578730    -1.1825500
  H        2.6762910    -1.7288140     0.4434650
  H        2.8674440    -0.3269360    -0.6441440
units angstrom
no_reorient  #important for SAPT in psi4, default
symmetry c1  #important for SAPT in psi4, default
}

set PROPERTIES_ORIGIN ["COM"]
properties('MP2/aug-cc-pvtz', properties = ['dipole'])
--------------------------------------------------------------------------

    Molecular point group: c1
  Charge       = 0
  Multiplicity = 1
  Basis Set: AUG-CC-PVTZ
    Blend: AUG-CC-PVTZ
  Basis Set: (AUG-CC-PVTZ AUX)
    Blend: AUG-CC-PVTZ-JKFIT

    Orbital Energies [Eh]
    ---------------------

    Doubly Occupied:

       1A    -20.506242     2A    -15.580849     3A    -11.340228
       4A    -11.272108     5A    -11.250768     6A    -11.235944
       7A    -11.233533     8A    -11.232342     9A    -11.231561
      10A     -1.362256    11A     -1.241443    12A     -1.101287
      13A     -1.040503    14A     -0.975202    15A     -0.914809
      16A     -0.877487    17A     -0.793111    18A     -0.724603
      19A     -0.690098    20A     -0.669444    21A     -0.633328
      22A     -0.609757    23A     -0.601664    24A     -0.593815
      25A     -0.584874    26A     -0.556173    27A     -0.547614
      28A     -0.527363    29A     -0.510177    30A     -0.504339
      31A     -0.478598    32A     -0.471501    33A     -0.463100
      34A     -0.406999    35A     -0.365273

  @DF-RHF Final Energy:  -402.10900774958685

   => Energetics <=

    Nuclear Repulsion Energy =            486.7305822739709811
    One-Electron Energy =               -1511.4223992778122465
    Two-Electron Energy =                 622.5828092542543573
    Total Energy =                       -402.1090077495867945
  Basis Set: (AUG-CC-PVTZ AUX)
    Blend: AUG-CC-PVTZ-RI
    Molecular point group: c1

    Geometry (in Angstrom), charge = 0, multiplicity = 1:

       Center              X                  Y                   Z               Mass
    ------------   -----------------  -----------------  -----------------  -----------------
         O            1.731662478105     1.561611503488    -0.286886311243    15.994914619570
         N            0.948336478105    -0.530707496512     0.210081688757    14.003074004430
         C           -2.270997521895    -0.289724496512    -0.172281311243    12.000000000000
         C           -1.315350521895    -1.473810496512    -0.311051311243    12.000000000000
         C           -1.641242521895     1.085560503488    -0.391366311243    12.000000000000
         C           -0.126448521895    -1.414649496512     0.649876688757    12.000000000000
         C           -0.518631821895     1.417313003488     0.535964988757    12.000000000000
         C            0.828425478105     0.834381503488     0.144699688757    12.000000000000
         C            2.149568478105    -1.157459496512    -0.321734311243    12.000000000000
         H           -2.712230521895    -0.315283496512     0.833990688757     1.007825032230
         H           -3.103177521895    -0.417826496512    -0.875439311243     1.007825032230
         H           -1.874482521895    -2.399344496512    -0.121298311243     1.007825032230
         H           -0.931030521895    -1.539251496512    -1.336739311243     1.007825032230
         H           -2.425785521895     1.844088503488    -0.285114311243     1.007825032230
         H           -1.266923521895     1.170324503488    -1.419603311243     1.007825032230
         H           -0.466753521895    -1.128740496512     1.653465688757     1.007825032230
         H            0.319698478105    -2.408826496512     0.749200688757     1.007825032230
         H           -0.764190521895     1.101356503488     1.598673688757     1.007825032230
         H           -0.333360521895     2.500784503488     0.610728688757     1.007825032230
         H            1.906299478105    -1.796567496512    -1.178314311243     1.007825032230
         H            2.633973478105    -1.767508496512     0.447700688757     1.007825032230
         H            2.825126478105    -0.365630496512    -0.639908311243     1.007825032230

  Basis Set: AUG-CC-PVTZ
    Blend: AUG-CC-PVTZ
  Basis Set: (AUG-CC-PVTZ AUX)
    Blend: AUG-CC-PVTZ-JKFIT
	 Reference Energy          =    -402.1090077495868513 [Eh]
	 Singles Energy            =      -0.0000000000000000 [Eh]
	 Same-Spin Energy          =      -0.4221695352311637 [Eh]
	 Opposite-Spin Energy      =      -1.4056814288896855 [Eh]
	 Correlation Energy        =      -1.8278509641208491 [Eh]
	 Total Energy              =    -403.9368587137076929 [Eh]

	 ================> DF-SCS-MP2 Energies <==================
	-----------------------------------------------------------
	 SCS Same-Spin Scale       =       0.3333333333333333 [-]
	 SCS Opposite-Spin Scale   =       1.2000000000000000 [-]
	 SCS Same-Spin Energy      =      -0.1407231784103879 [Eh]
	 SCS Opposite-Spin Energy  =      -1.6868177146676226 [Eh]
	 SCS Correlation Energy    =      -1.8275408930780106 [Eh]
	 SCS Total Energy          =    -403.9365486426648886 [Eh]
	-----------------------------------------------------------

  Dipole Moment: [D]
     X:    -2.5665      Y:    -3.1068      Z:     0.7644     Total:     4.1016

*** Psi4 exiting successfully. Buy a developer a beer!
