                               Psi4 1.4a2.dev612

  ==> Input File <==

--------------------------------------------------------------------------
#psi4
#
memory 32 gb

molecule  {
0 1
  O        1.7739800     1.6003060    -0.2911220
  N        0.9906540    -0.4920130     0.2058460
  C       -2.2286800    -0.2510300    -0.1765170
  C       -1.2730330    -1.4351160    -0.3152870
  C       -1.5989250     1.1242550    -0.3956020
  C       -0.0841310    -1.3759550     0.6456410
  C       -0.5298232     1.4429021     0.3922121
  C        0.8707430     0.8730760     0.1404640
  C        2.1918860    -1.1187650    -0.3259700
  H       -2.6699130    -0.2765890     0.8297550
  H       -3.0608600    -0.3791320    -0.8796750
  H       -1.8321650    -2.3606500    -0.1255340
  H       -0.8887130    -1.5005570    -1.3409750
  H       -2.3834680     1.8827830    -0.2893500
  H       -1.2246060     1.2090190    -1.4238390
  H       -0.4244360    -1.0900460     1.6492300
  H        0.3620160    -2.3701320     0.7449650
  H       -0.7218730     1.1400510     1.5944380
  H       -0.2910430     2.5394790     0.6064930
  H        1.9486170    -1.7578730    -1.1825500
  H        2.6762910    -1.7288140     0.4434650
  H        2.8674440    -0.3269360    -0.6441440
units angstrom
no_reorient  #important for SAPT in psi4, default
symmetry c1  #important for SAPT in psi4, default
}

set PROPERTIES_ORIGIN ["COM"]
properties('MP2/aug-cc-pvtz', properties = ['dipole'])
--------------------------------------------------------------------------

    Molecular point group: c1
  Charge       = 0
  Multiplicity = 1
  Basis Set: AUG-CC-PVTZ
    Blend: AUG-CC-PVTZ
  Basis Set: (AUG-CC-PVTZ AUX)
    Blend: AUG-CC-PVTZ-JKFIT

    Orbital Energies [Eh]
    ---------------------

    Doubly Occupied:

       1A    -20.508406     2A    -15.581623     3A    -11.343095
       4A    -11.271674     5A    -11.251391     6A    -11.245725
       7A    -11.234240     8A    -11.233017     9A    -11.225420
      10A     -1.363768    11A     -1.242263    12A     -1.118672
      13A     -1.048041    14A     -0.973682    15A     -0.919582
      16A     -0.874257    17A     -0.795925    18A     -0.722478
      19A     -0.691646    20A     -0.673016    21A     -0.633851
      22A     -0.620116    23A     -0.604991    24A     -0.592485
      25A     -0.587053    26A     -0.561344    27A     -0.550162
      28A     -0.526201    29A     -0.512427    30A     -0.494102
      31A     -0.481038    32A     -0.472938    33A     -0.445464
      34A     -0.400859    35A     -0.365764

  @DF-RHF Final Energy:  -402.06936522276618

   => Energetics <=

    Nuclear Repulsion Energy =            487.9780802173217467
    One-Electron Energy =               -1513.7614631917892893
    Two-Electron Energy =                 623.7140177517013626
    Total Energy =                       -402.0693652227661232
  Basis Set: (AUG-CC-PVTZ AUX)
    Blend: AUG-CC-PVTZ-RI
    Molecular point group: c1

    Geometry (in Angstrom), charge = 0, multiplicity = 1:

       Center              X                  Y                   Z               Mass
    ------------   -----------------  -----------------  -----------------  -----------------
         O            1.736714470589     1.562848837507    -0.273713925982    15.994914619570
         N            0.953388470589    -0.529470162493     0.223254074018    14.003074004430
         C           -2.265945529411    -0.288487162493    -0.159108925982    12.000000000000
         C           -1.310298529411    -1.472573162493    -0.297878925982    12.000000000000
         C           -1.636190529411     1.086797837507    -0.378193925982    12.000000000000
         C           -0.121396529411    -1.413412162493     0.663049074018    12.000000000000
         C           -0.567088729411     1.405444937507     0.409620174018    12.000000000000
         C            0.833477470589     0.835618837507     0.157872074018    12.000000000000
         C            2.154620470589    -1.156222162493    -0.308561925982    12.000000000000
         H           -2.707178529411    -0.314046162493     0.847163074018     1.007825032230
         H           -3.098125529411    -0.416589162493    -0.862266925982     1.007825032230
         H           -1.869430529411    -2.398107162493    -0.108125925982     1.007825032230
         H           -0.925978529411    -1.538014162493    -1.323566925982     1.007825032230
         H           -2.420733529411     1.845325837507    -0.271941925982     1.007825032230
         H           -1.261871529411     1.171561837507    -1.406430925982     1.007825032230
         H           -0.461701529411    -1.127503162493     1.666638074018     1.007825032230
         H            0.324750470589    -2.407589162493     0.762373074018     1.007825032230
         H           -0.759138529411     1.102593837507     1.611846074018     1.007825032230
         H           -0.328308529411     2.502021837507     0.623901074018     1.007825032230
         H            1.911351470589    -1.795330162493    -1.165141925982     1.007825032230
         H            2.639025470589    -1.766271162493     0.460873074018     1.007825032230
         H            2.830178470589    -0.364393162493    -0.626735925982     1.007825032230

  Basis Set: AUG-CC-PVTZ
    Blend: AUG-CC-PVTZ
  Basis Set: (AUG-CC-PVTZ AUX)
    Blend: AUG-CC-PVTZ-JKFIT
	 Reference Energy          =    -402.0693652227661801 [Eh]
	 Singles Energy            =      -0.0000000000000000 [Eh]
	 Same-Spin Energy          =      -0.4243431806144671 [Eh]
	 Opposite-Spin Energy      =      -1.4089579523584841 [Eh]
	 Correlation Energy        =      -1.8333011329729512 [Eh]
	 Total Energy              =    -403.9026663557391430 [Eh]

	 ================> DF-SCS-MP2 Energies <==================
	-----------------------------------------------------------
	 SCS Same-Spin Scale       =       0.3333333333333333 [-]
	 SCS Opposite-Spin Scale   =       1.2000000000000000 [-]
	 SCS Same-Spin Energy      =      -0.1414477268714890 [Eh]
	 SCS Opposite-Spin Energy  =      -1.6907495428301809 [Eh]
	 SCS Correlation Energy    =      -1.8321972697016700 [Eh]
	 SCS Total Energy          =    -403.9015624924678605 [Eh]
	-----------------------------------------------------------

  Dipole Moment: [D]
     X:    -2.5414      Y:    -3.1272      Z:     0.6116     Total:     4.0758

*** Psi4 exiting successfully. Buy a developer a beer!
