                               Psi4 1.3.2 release

  ==> Input File <==

--------------------------------------------------------------------------
#psi4
#
memory 32 gb

molecule  {
0 1
  O        1.6031800    -0.7324980    -0.0000110
  O        0.6173340     1.3294240    -0.0000320
  N       -0.6250510    -0.6151900    -0.0000260
  C       -1.9301110     0.0126390     0.0000390
  C        0.5210560     0.1088720     0.0000320
  H       -0.5391193    -1.6216650    -0.1499310
  H       -2.5003300    -0.2657770    -0.8906260
  H       -1.7714790     1.0904060    -0.0008230
  H       -2.4997010    -0.2644210     0.8915380
  H        2.3761990    -0.1366920    -0.0000490
units angstrom
no_reorient  #important for SAPT in psi4, default
symmetry c1  #important for SAPT in psi4, default
}

set PROPERTIES_ORIGIN ["COM"]
properties('MP2/aug-cc-pvtz', properties = ['dipole'])
--------------------------------------------------------------------------

    Molecular point group: c1
  Charge       = 0
  Multiplicity = 1
  Basis Set: AUG-CC-PVTZ
    Blend: AUG-CC-PVTZ
  Basis Set: (AUG-CC-PVTZ AUX)
    Blend: AUG-CC-PVTZ-JKFIT

    Orbital Energies [Eh]
    ---------------------

    Doubly Occupied:

       1A    -20.611545     2A    -20.530438     3A    -15.596637
       4A    -11.409255     5A    -11.267051     6A     -1.459463
       7A     -1.348989     8A     -1.240857     9A     -0.967686
      10A     -0.817706    11A     -0.755740    12A     -0.696845
      13A     -0.656475    14A     -0.619018    15A     -0.605258
      16A     -0.594778    17A     -0.553950    18A     -0.491279
      19A     -0.459222    20A     -0.407183

  @DF-RHF Final Energy:  -282.96455292129292

   => Energetics <=

    Nuclear Repulsion Energy =            181.7895297993082977
    One-Electron Energy =                -747.3294146616350417
    Two-Electron Energy =                 282.5753319410338236
    Total Energy =                       -282.9645529212929205
  Basis Set: (AUG-CC-PVTZ AUX)
    Blend: AUG-CC-PVTZ-RI
    Molecular point group: c1

    Geometry (in Angstrom), charge = 0, multiplicity = 1:

       Center              X                  Y                   Z               Mass
    ------------   -----------------  -----------------  -----------------  -----------------
         O            1.538106535245    -0.748275752222     0.002004989257    15.994914619570
         O            0.552260535245     1.313646247778     0.001983989257    15.994914619570
         N           -0.690124464755    -0.630967752222     0.001989989257    14.003074004430
         C           -1.995184464755    -0.003138752222     0.002054989257    12.000000000000
         C            0.455982535245     0.093094247778     0.002047989257    12.000000000000
         H           -0.604192764755    -1.637442752222    -0.147915010743     1.007825032230
         H           -2.565403464755    -0.281554752222    -0.888610010743     1.007825032230
         H           -1.836552464755     1.074628247778     0.001192989257     1.007825032230
         H           -2.564774464755    -0.280198752222     0.893553989257     1.007825032230
         H            2.311125535245    -0.152469752222     0.001966989257     1.007825032230

  Basis Set: AUG-CC-PVTZ
    Blend: AUG-CC-PVTZ
  Basis Set: (AUG-CC-PVTZ AUX)
    Blend: AUG-CC-PVTZ-JKFIT
	 Reference Energy          =    -282.9645529212929205 [Eh]
	 Singles Energy            =      -0.0000000000000000 [Eh]
	 Same-Spin Energy          =      -0.2730558114406967 [Eh]
	 Opposite-Spin Energy      =      -0.8412653770651826 [Eh]
	 Correlation Energy        =      -1.1143211885058792 [Eh]
	 Total Energy              =    -284.0788741097987895 [Eh]

	 ================> DF-SCS-MP2 Energies <==================
	-----------------------------------------------------------
	 SCS Same-Spin Scale       =       0.3333333333333333 [-]
	 SCS Opposite-Spin Scale   =       1.2000000000000000 [-]
	 SCS Same-Spin Energy      =      -0.0910186038135656 [Eh]
	 SCS Opposite-Spin Energy  =      -1.0095184524782190 [Eh]
	 SCS Correlation Energy    =      -1.1005370562917847 [Eh]
	 SCS Total Energy          =    -284.0650899775847051 [Eh]
	-----------------------------------------------------------

  Dipole Moment: [D]
     X:    -1.1942      Y:    -2.1737      Z:    -0.2210     Total:     2.4900

*** Psi4 exiting successfully. Buy a developer a beer!
