                               Psi4 1.3.2 release

  ==> Input File <==

--------------------------------------------------------------------------
#psi4
#
memory 32 gb

molecule  {
0 1
  O        1.6031800    -0.7324980    -0.0000110
  O        0.6173340     1.3294240    -0.0000320
  N       -0.6250510    -0.6151900    -0.0000260
  C       -1.9301110     0.0126390     0.0000390
  C        0.5210560     0.1088720     0.0000320
  H       -0.5391195    -1.6216670    -0.2499310
  H       -2.5003300    -0.2657770    -0.8906260
  H       -1.7714790     1.0904060    -0.0008230
  H       -2.4997010    -0.2644210     0.8915380
  H        2.3761990    -0.1366920    -0.0000490
units angstrom
no_reorient  #important for SAPT in psi4, default
symmetry c1  #important for SAPT in psi4, default
}

set PROPERTIES_ORIGIN ["COM"]
properties('MP2/aug-cc-pvtz', properties = ['dipole'])
--------------------------------------------------------------------------

    Molecular point group: c1
  Charge       = 0
  Multiplicity = 1
  Basis Set: AUG-CC-PVTZ
    Blend: AUG-CC-PVTZ
  Basis Set: (AUG-CC-PVTZ AUX)
    Blend: AUG-CC-PVTZ-JKFIT

    Orbital Energies [Eh]
    ---------------------

    Doubly Occupied:

       1A    -20.611594     2A    -20.530991     3A    -15.597939
       4A    -11.409327     5A    -11.266747     6A     -1.459505
       7A     -1.349246     8A     -1.239013     9A     -0.967260
      10A     -0.814416    11A     -0.753287    12A     -0.696929
      13A     -0.657131    14A     -0.617058    15A     -0.605357
      16A     -0.594643    17A     -0.552596    18A     -0.491298
      19A     -0.459487    20A     -0.407408

  @DF-RHF Final Energy:  -282.96268212659555

   => Energetics <=

    Nuclear Repulsion Energy =            181.6972559864980497
    One-Electron Energy =                -747.1574127407607193
    Two-Electron Energy =                 282.4974746276671453
    Total Energy =                       -282.9626821265955527
  Basis Set: (AUG-CC-PVTZ AUX)
    Blend: AUG-CC-PVTZ-RI
    Molecular point group: c1

    Geometry (in Angstrom), charge = 0, multiplicity = 1:

       Center              X                  Y                   Z               Mass
    ------------   -----------------  -----------------  -----------------  -----------------
         O            1.538106537931    -0.748275725358     0.003348182362    15.994914619570
         O            0.552260537931     1.313646274642     0.003327182362    15.994914619570
         N           -0.690124462069    -0.630967725358     0.003333182362    14.003074004430
         C           -1.995184462069    -0.003138725358     0.003398182362    12.000000000000
         C            0.455982537931     0.093094274642     0.003391182362    12.000000000000
         H           -0.604192962069    -1.637444725358    -0.246571817638     1.007825032230
         H           -2.565403462069    -0.281554725358    -0.887266817638     1.007825032230
         H           -1.836552462069     1.074628274642     0.002536182362     1.007825032230
         H           -2.564774462069    -0.280198725358     0.894897182362     1.007825032230
         H            2.311125537931    -0.152469725358     0.003310182362     1.007825032230

  Basis Set: AUG-CC-PVTZ
    Blend: AUG-CC-PVTZ
  Basis Set: (AUG-CC-PVTZ AUX)
    Blend: AUG-CC-PVTZ-JKFIT
	 Reference Energy          =    -282.9626821265955527 [Eh]
	 Singles Energy            =      -0.0000000000000000 [Eh]
	 Same-Spin Energy          =      -0.2731861557628544 [Eh]
	 Opposite-Spin Energy      =      -0.8416387028787383 [Eh]
	 Correlation Energy        =      -1.1148248586415928 [Eh]
	 Total Energy              =    -284.0775069852371644 [Eh]

	 ================> DF-SCS-MP2 Energies <==================
	-----------------------------------------------------------
	 SCS Same-Spin Scale       =       0.3333333333333333 [-]
	 SCS Opposite-Spin Scale   =       1.2000000000000000 [-]
	 SCS Same-Spin Energy      =      -0.0910620519209515 [Eh]
	 SCS Opposite-Spin Energy  =      -1.0099664434544859 [Eh]
	 SCS Correlation Energy    =      -1.1010284953754375 [Eh]
	 SCS Total Energy          =    -284.0637106219709835 [Eh]
	-----------------------------------------------------------

  Dipole Moment: [D]
     X:    -1.1810      Y:    -2.1502      Z:    -0.3648     Total:     2.4802

*** Psi4 exiting successfully. Buy a developer a beer!
