                               Psi4 1.3.2 release

  ==> Input File <==

--------------------------------------------------------------------------
#psi4
#
memory 32 gb

molecule  {
0 1
  O        1.6031800    -0.7324980    -0.0000110
  O        0.6173340     1.3294240    -0.0000320
  N       -0.6250520    -0.6151889     0.1499740
  C       -1.9301110     0.0126390     0.0000390
  C        0.5210560     0.1088720     0.0000320
  H       -0.5391190    -1.6216620     0.0000690
  H       -2.5003300    -0.2657770    -0.8906260
  H       -1.7714790     1.0904060    -0.0008230
  H       -2.4997010    -0.2644210     0.8915380
  H        2.3761990    -0.1366920    -0.0000490
units angstrom
no_reorient  #important for SAPT in psi4, default
symmetry c1  #important for SAPT in psi4, default
}

set PROPERTIES_ORIGIN ["COM"]
properties('MP2/aug-cc-pvtz', properties = ['dipole'])
--------------------------------------------------------------------------

    Molecular point group: c1
  Charge       = 0
  Multiplicity = 1
  Basis Set: AUG-CC-PVTZ
    Blend: AUG-CC-PVTZ
  Basis Set: (AUG-CC-PVTZ AUX)
    Blend: AUG-CC-PVTZ-JKFIT

    Orbital Energies [Eh]
    ---------------------

    Doubly Occupied:

       1A    -20.612639     2A    -20.532717     3A    -15.597238
       4A    -11.410393     5A    -11.266787     6A     -1.460184
       7A     -1.350237     8A     -1.238672     9A     -0.965432
      10A     -0.817208    11A     -0.754089    12A     -0.697791
      13A     -0.655499    14A     -0.622201    15A     -0.606550
      16A     -0.586837    17A     -0.553198    18A     -0.491945
      19A     -0.460609    20A     -0.409880

  @DF-RHF Final Energy:  -282.96184958131965

   => Energetics <=

    Nuclear Repulsion Energy =            181.5552282331237279
    One-Electron Energy =                -746.8539405719782280
    Two-Electron Energy =                 282.3368627575349024
    Total Energy =                       -282.9618495813196546
  Basis Set: (AUG-CC-PVTZ AUX)
    Blend: AUG-CC-PVTZ-RI
    Molecular point group: c1

    Geometry (in Angstrom), charge = 0, multiplicity = 1:

       Center              X                  Y                   Z               Mass
    ------------   -----------------  -----------------  -----------------  -----------------
         O            1.538106717843    -0.748275997808    -0.028003993619    15.994914619570
         O            0.552260717843     1.313646002192    -0.028024993619    15.994914619570
         N           -0.690125282157    -0.630966897808     0.121981006381    14.003074004430
         C           -1.995184282157    -0.003138997808    -0.027953993619    12.000000000000
         C            0.455982717843     0.093094002192    -0.027960993619    12.000000000000
         H           -0.604192282157    -1.637439997808    -0.027923993619     1.007825032230
         H           -2.565403282157    -0.281554997808    -0.918618993619     1.007825032230
         H           -1.836552282157     1.074628002192    -0.028815993619     1.007825032230
         H           -2.564774282157    -0.280198997808     0.863545006381     1.007825032230
         H            2.311125717843    -0.152469997808    -0.028041993619     1.007825032230

  Basis Set: AUG-CC-PVTZ
    Blend: AUG-CC-PVTZ
  Basis Set: (AUG-CC-PVTZ AUX)
    Blend: AUG-CC-PVTZ-JKFIT
	 Reference Energy          =    -282.9618495813196546 [Eh]
	 Singles Energy            =      -0.0000000000000000 [Eh]
	 Same-Spin Energy          =      -0.2731339949258701 [Eh]
	 Opposite-Spin Energy      =      -0.8417176853800887 [Eh]
	 Correlation Energy        =      -1.1148516803059589 [Eh]
	 Total Energy              =    -284.0767012616256011 [Eh]

	 ================> DF-SCS-MP2 Energies <==================
	-----------------------------------------------------------
	 SCS Same-Spin Scale       =       0.3333333333333333 [-]
	 SCS Opposite-Spin Scale   =       1.2000000000000000 [-]
	 SCS Same-Spin Energy      =      -0.0910446649752900 [Eh]
	 SCS Opposite-Spin Energy  =      -1.0100612224561065 [Eh]
	 SCS Correlation Energy    =      -1.1011058874313966 [Eh]
	 SCS Total Energy          =    -284.0629554687510563 [Eh]
	-----------------------------------------------------------

  Dipole Moment: [D]
     X:    -1.1364      Y:    -2.1278      Z:    -0.3048     Total:     2.4314

*** Psi4 exiting successfully. Buy a developer a beer!
