                               Psi4 1.3.2 release

  ==> Input File <==

--------------------------------------------------------------------------
#psi4
#
memory 32 gb

molecule  {
0 1
  O        1.6031800    -0.7324980    -0.0000110
  O        0.6173340     1.3294240    -0.0000320
  N       -0.6250529    -0.6151879     0.2999740
  C       -1.9301110     0.0126390     0.0000390
  C        0.5210560     0.1088720     0.0000320
  H       -0.5391190    -1.6216620     0.0000690
  H       -2.5003300    -0.2657770    -0.8906260
  H       -1.7714790     1.0904060    -0.0008230
  H       -2.4997010    -0.2644210     0.8915380
  H        2.3761990    -0.1366920    -0.0000490
units angstrom
no_reorient  #important for SAPT in psi4, default
symmetry c1  #important for SAPT in psi4, default
}

set PROPERTIES_ORIGIN ["COM"]
properties('MP2/aug-cc-pvtz', properties = ['dipole'])
--------------------------------------------------------------------------

    Molecular point group: c1
  Charge       = 0
  Multiplicity = 1
  Basis Set: AUG-CC-PVTZ
    Blend: AUG-CC-PVTZ
  Basis Set: (AUG-CC-PVTZ AUX)
    Blend: AUG-CC-PVTZ-JKFIT

    Orbital Energies [Eh]
    ---------------------

    Doubly Occupied:

       1A    -20.615565     2A    -20.539592     3A    -15.602017
       4A    -11.413504     5A    -11.265836     6A     -1.462095
       7A     -1.353915     8A     -1.228843     9A     -0.958624
      10A     -0.812454    11A     -0.744339    12A     -0.700183
      13A     -0.654058    14A     -0.625041    15A     -0.608243
      16A     -0.568509    17A     -0.548763    18A     -0.493807
      19A     -0.464479    20A     -0.417992

  @DF-RHF Final Energy:  -282.94965897827643

   => Energetics <=

    Nuclear Repulsion Energy =            180.7184563687020216
    One-Electron Energy =                -745.1805146758522369
    Two-Electron Energy =                 281.5123993288737552
    Total Energy =                       -282.9496589782764318
  Basis Set: (AUG-CC-PVTZ AUX)
    Blend: AUG-CC-PVTZ-RI
    Molecular point group: c1

    Geometry (in Angstrom), charge = 0, multiplicity = 1:

       Center              X                  Y                   Z               Mass
    ------------   -----------------  -----------------  -----------------  -----------------
         O            1.538106885809    -0.748276184436    -0.055998186836    15.994914619570
         O            0.552260885809     1.313645815564    -0.056019186836    15.994914619570
         N           -0.690126014191    -0.630966084436     0.243986813164    14.003074004430
         C           -1.995184114191    -0.003139184436    -0.055948186836    12.000000000000
         C            0.455982885809     0.093093815564    -0.055955186836    12.000000000000
         H           -0.604192114191    -1.637440184436    -0.055918186836     1.007825032230
         H           -2.565403114191    -0.281555184436    -0.946613186836     1.007825032230
         H           -1.836552114191     1.074627815564    -0.056810186836     1.007825032230
         H           -2.564774114191    -0.280199184436     0.835550813164     1.007825032230
         H            2.311125885809    -0.152470184436    -0.056036186836     1.007825032230

  Basis Set: AUG-CC-PVTZ
    Blend: AUG-CC-PVTZ
  Basis Set: (AUG-CC-PVTZ AUX)
    Blend: AUG-CC-PVTZ-JKFIT
	 Reference Energy          =    -282.9496589782764318 [Eh]
	 Singles Energy            =      -0.0000000000000000 [Eh]
	 Same-Spin Energy          =      -0.2736365253279546 [Eh]
	 Opposite-Spin Energy      =      -0.8438678102114570 [Eh]
	 Correlation Energy        =      -1.1175043355394116 [Eh]
	 Total Energy              =    -284.0671633138158541 [Eh]

	 ================> DF-SCS-MP2 Energies <==================
	-----------------------------------------------------------
	 SCS Same-Spin Scale       =       0.3333333333333333 [-]
	 SCS Opposite-Spin Scale   =       1.2000000000000000 [-]
	 SCS Same-Spin Energy      =      -0.0912121751093182 [Eh]
	 SCS Opposite-Spin Energy  =      -1.0126413722537484 [Eh]
	 SCS Correlation Energy    =      -1.1038535473630666 [Eh]
	 SCS Total Energy          =    -284.0535125256395190 [Eh]
	-----------------------------------------------------------

  Dipole Moment: [D]
     X:    -0.9592      Y:    -1.9666      Z:    -0.6017     Total:     2.2692

*** Psi4 exiting successfully. Buy a developer a beer!
