                               Psi4 1.3.2 release

  ==> Input File <==

--------------------------------------------------------------------------
#psi4
#
memory 32 gb

molecule  {
0 1
  O        1.6031800    -0.7324980    -0.0000110
  O        0.6173340     1.3294240    -0.0000320
  N       -0.6250510    -0.6151900    -0.0000260
  C       -1.9301110     0.0126390     0.0000390
  C        0.5210560     0.1088720     0.0000320
  H       -0.5391192    -1.6216640    -0.0999310
  H       -2.5003300    -0.2657770    -0.8906260
  H       -1.7714790     1.0904060    -0.0008230
  H       -2.4997010    -0.2644210     0.8915380
  H        2.3761990    -0.1366920    -0.0000490
units angstrom
no_reorient  #important for SAPT in psi4, default
symmetry c1  #important for SAPT in psi4, default
}

set PROPERTIES_ORIGIN ["COM"]
properties('MP2/aug-cc-pvtz', properties = ['dipole'])
--------------------------------------------------------------------------

    Molecular point group: c1
  Charge       = 0
  Multiplicity = 1
  Basis Set: AUG-CC-PVTZ
    Blend: AUG-CC-PVTZ
  Basis Set: (AUG-CC-PVTZ AUX)
    Blend: AUG-CC-PVTZ-JKFIT

    Orbital Energies [Eh]
    ---------------------

    Doubly Occupied:

       1A    -20.611526     2A    -20.530259     3A    -15.596220
       4A    -11.409231     5A    -11.267152     6A     -1.459448
       7A     -1.348905     8A     -1.241463     9A     -0.967829
      10A     -0.818828    11A     -0.756483    12A     -0.696816
      13A     -0.656242    14A     -0.619670    15A     -0.605224
      16A     -0.594819    17A     -0.554361    18A     -0.491272
      19A     -0.459134    20A     -0.407111

  @DF-RHF Final Energy:  -282.96503176219971

   => Energetics <=

    Nuclear Repulsion Energy =            181.8192210382868836
    One-Electron Energy =                -747.3845170131684199
    Two-Electron Energy =                 282.6002642126818500
    Total Energy =                       -282.9650317621997146
  Basis Set: (AUG-CC-PVTZ AUX)
    Blend: AUG-CC-PVTZ-RI
    Molecular point group: c1

    Geometry (in Angstrom), charge = 0, multiplicity = 1:

       Center              X                  Y                   Z               Mass
    ------------   -----------------  -----------------  -----------------  -----------------
         O            1.538106533902    -0.748275765654     0.001333392704    15.994914619570
         O            0.552260533902     1.313646234346     0.001312392704    15.994914619570
         N           -0.690124466098    -0.630967765654     0.001318392704    14.003074004430
         C           -1.995184466098    -0.003138765654     0.001383392704    12.000000000000
         C            0.455982533902     0.093094234346     0.001376392704    12.000000000000
         H           -0.604192666098    -1.637441765654    -0.098586607296     1.007825032230
         H           -2.565403466098    -0.281554765654    -0.889281607296     1.007825032230
         H           -1.836552466098     1.074628234346     0.000521392704     1.007825032230
         H           -2.564774466098    -0.280198765654     0.892882392704     1.007825032230
         H            2.311125533902    -0.152469765654     0.001295392704     1.007825032230

  Basis Set: AUG-CC-PVTZ
    Blend: AUG-CC-PVTZ
  Basis Set: (AUG-CC-PVTZ AUX)
    Blend: AUG-CC-PVTZ-JKFIT
	 Reference Energy          =    -282.9650317621997146 [Eh]
	 Singles Energy            =      -0.0000000000000000 [Eh]
	 Same-Spin Energy          =      -0.2730146745398132 [Eh]
	 Opposite-Spin Energy      =      -0.8411506971041782 [Eh]
	 Correlation Energy        =      -1.1141653716439914 [Eh]
	 Total Energy              =    -284.0791971338437065 [Eh]

	 ================> DF-SCS-MP2 Energies <==================
	-----------------------------------------------------------
	 SCS Same-Spin Scale       =       0.3333333333333333 [-]
	 SCS Opposite-Spin Scale   =       1.2000000000000000 [-]
	 SCS Same-Spin Energy      =      -0.0910048915132711 [Eh]
	 SCS Opposite-Spin Energy  =      -1.0093808365250139 [Eh]
	 SCS Correlation Energy    =      -1.1003857280382849 [Eh]
	 SCS Total Energy          =    -284.0654174902380191 [Eh]
	-----------------------------------------------------------

  Dipole Moment: [D]
     X:    -1.1986      Y:    -2.1812      Z:    -0.1478     Total:     2.4932

*** Psi4 exiting successfully. Buy a developer a beer!
