                               Psi4 1.3.2 release

  ==> Input File <==

--------------------------------------------------------------------------
#psi4
#
memory 32 gb

molecule  {
0 1
  O        1.6031800    -0.7324980    -0.0000110
  O        0.6173340     1.3294240    -0.0000320
  N       -0.6250513    -0.6151896     0.0499740
  C       -1.9301110     0.0126390     0.0000390
  C        0.5210560     0.1088720     0.0000320
  H       -0.5391190    -1.6216620     0.0000690
  H       -2.5003300    -0.2657770    -0.8906260
  H       -1.7714790     1.0904060    -0.0008230
  H       -2.4997010    -0.2644210     0.8915380
  H        2.3761990    -0.1366920    -0.0000490
units angstrom
no_reorient  #important for SAPT in psi4, default
symmetry c1  #important for SAPT in psi4, default
}

set PROPERTIES_ORIGIN ["COM"]
properties('MP2/aug-cc-pvtz', properties = ['dipole'])
--------------------------------------------------------------------------

    Molecular point group: c1
  Charge       = 0
  Multiplicity = 1
  Basis Set: AUG-CC-PVTZ
    Blend: AUG-CC-PVTZ
  Basis Set: (AUG-CC-PVTZ AUX)
    Blend: AUG-CC-PVTZ-JKFIT

    Orbital Energies [Eh]
    ---------------------

    Doubly Occupied:

       1A    -20.611639     2A    -20.530410     3A    -15.596025
       4A    -11.409347     5A    -11.267182     6A     -1.459521
       7A     -1.348996     8A     -1.241594     9A     -0.967662
      10A     -0.819445    11A     -0.756749    12A     -0.696908
      13A     -0.655984    14A     -0.620482    15A     -0.605416
      16A     -0.593838    17A     -0.554521    18A     -0.491343
      19A     -0.459239    20A     -0.407369

  @DF-RHF Final Energy:  -282.96499813571694

   => Energetics <=

    Nuclear Repulsion Energy =            181.8110700689697694
    One-Electron Energy =                -747.3647966147266288
    Two-Electron Energy =                 282.5887284100398915
    Total Energy =                       -282.9649981357169395
  Basis Set: (AUG-CC-PVTZ AUX)
    Blend: AUG-CC-PVTZ-RI
    Molecular point group: c1

    Geometry (in Angstrom), charge = 0, multiplicity = 1:

       Center              X                  Y                   Z               Mass
    ------------   -----------------  -----------------  -----------------  -----------------
         O            1.538106587204    -0.748275867169    -0.009341198140    15.994914619570
         O            0.552260587204     1.313646132831    -0.009362198140    15.994914619570
         N           -0.690124712796    -0.630967467169     0.040643801860    14.003074004430
         C           -1.995184412796    -0.003138867169    -0.009291198140    12.000000000000
         C            0.455982587204     0.093094132831    -0.009298198140    12.000000000000
         H           -0.604192412796    -1.637439867169    -0.009261198140     1.007825032230
         H           -2.565403412796    -0.281554867169    -0.899956198140     1.007825032230
         H           -1.836552412796     1.074628132831    -0.010153198140     1.007825032230
         H           -2.564774412796    -0.280198867169     0.882207801860     1.007825032230
         H            2.311125587204    -0.152469867169    -0.009379198140     1.007825032230

  Basis Set: AUG-CC-PVTZ
    Blend: AUG-CC-PVTZ
  Basis Set: (AUG-CC-PVTZ AUX)
    Blend: AUG-CC-PVTZ-JKFIT
	 Reference Energy          =    -282.9649981357169395 [Eh]
	 Singles Energy            =      -0.0000000000000000 [Eh]
	 Same-Spin Energy          =      -0.2729981776534705 [Eh]
	 Opposite-Spin Energy      =      -0.8411305273566727 [Eh]
	 Correlation Energy        =      -1.1141287050101432 [Eh]
	 Total Energy              =    -284.0791268407270991 [Eh]

	 ================> DF-SCS-MP2 Energies <==================
	-----------------------------------------------------------
	 SCS Same-Spin Scale       =       0.3333333333333333 [-]
	 SCS Opposite-Spin Scale   =       1.2000000000000000 [-]
	 SCS Same-Spin Energy      =      -0.0909993925511568 [Eh]
	 SCS Opposite-Spin Energy  =      -1.0093566328280072 [Eh]
	 SCS Correlation Energy    =      -1.1003560253791640 [Eh]
	 SCS Total Energy          =    -284.0653541610960815 [Eh]
	-----------------------------------------------------------

  Dipole Moment: [D]
     X:    -1.1947      Y:    -2.1806      Z:    -0.1017     Total:     2.4885

*** Psi4 exiting successfully. Buy a developer a beer!
