                               Psi4 1.3.2 release

  ==> Input File <==

--------------------------------------------------------------------------
#psi4
#
memory 32 gb

molecule  {
0 1
  O        1.6031800    -0.7324980    -0.0000110
  O        0.6173340     1.3294240    -0.0000320
  N       -0.6250510    -0.6151900    -0.0000260
  C       -1.9301110     0.0126390     0.0000390
  C        0.5210560     0.1088720     0.0000320
  H       -0.5391194    -1.6216660    -0.1999310
  H       -2.5003300    -0.2657770    -0.8906260
  H       -1.7714790     1.0904060    -0.0008230
  H       -2.4997010    -0.2644210     0.8915380
  H        2.3761990    -0.1366920    -0.0000490
units angstrom
no_reorient  #important for SAPT in psi4, default
symmetry c1  #important for SAPT in psi4, default
}

set PROPERTIES_ORIGIN ["COM"]
properties('MP2/aug-cc-pvtz', properties = ['dipole'])
--------------------------------------------------------------------------

    Molecular point group: c1
  Charge       = 0
  Multiplicity = 1
  Basis Set: AUG-CC-PVTZ
    Blend: AUG-CC-PVTZ
  Basis Set: (AUG-CC-PVTZ AUX)
    Blend: AUG-CC-PVTZ-JKFIT

    Orbital Energies [Eh]
    ---------------------

    Doubly Occupied:

       1A    -20.611568     2A    -20.530684     3A    -15.597213
       4A    -11.409287     5A    -11.266915     6A     -1.459482
       7A     -1.349104     8A     -1.240033     9A     -0.967494
      10A     -0.816212    11A     -0.754679    12A     -0.696884
      13A     -0.656777    14A     -0.618138    15A     -0.605304
      16A     -0.594719    17A     -0.553364    18A     -0.491288
      19A     -0.459342    20A     -0.407282

  @DF-RHF Final Energy:  -282.96379485053927

   => Energetics <=

    Nuclear Repulsion Energy =            181.7486565766932074
    One-Electron Energy =                -747.2533656794696526
    Two-Electron Energy =                 282.5409142522372008
    Total Energy =                       -282.9637948505392728
  Basis Set: (AUG-CC-PVTZ AUX)
    Blend: AUG-CC-PVTZ-RI
    Molecular point group: c1

    Geometry (in Angstrom), charge = 0, multiplicity = 1:

       Center              X                  Y                   Z               Mass
    ------------   -----------------  -----------------  -----------------  -----------------
         O            1.538106536588    -0.748275738790     0.002676585809    15.994914619570
         O            0.552260536588     1.313646261210     0.002655585809    15.994914619570
         N           -0.690124463412    -0.630967738790     0.002661585809    14.003074004430
         C           -1.995184463412    -0.003138738790     0.002726585809    12.000000000000
         C            0.455982536588     0.093094261210     0.002719585809    12.000000000000
         H           -0.604192863412    -1.637443738790    -0.197243414191     1.007825032230
         H           -2.565403463412    -0.281554738790    -0.887938414191     1.007825032230
         H           -1.836552463412     1.074628261210     0.001864585809     1.007825032230
         H           -2.564774463412    -0.280198738790     0.894225585809     1.007825032230
         H            2.311125536588    -0.152469738790     0.002638585809     1.007825032230

  Basis Set: AUG-CC-PVTZ
    Blend: AUG-CC-PVTZ
  Basis Set: (AUG-CC-PVTZ AUX)
    Blend: AUG-CC-PVTZ-JKFIT
	 Reference Energy          =    -282.9637948505392728 [Eh]
	 Singles Energy            =      -0.0000000000000000 [Eh]
	 Same-Spin Energy          =      -0.2731130980094454 [Eh]
	 Opposite-Spin Energy      =      -0.8414277101540029 [Eh]
	 Correlation Energy        =      -1.1145408081634482 [Eh]
	 Total Energy              =    -284.0783356587027129 [Eh]

	 ================> DF-SCS-MP2 Energies <==================
	-----------------------------------------------------------
	 SCS Same-Spin Scale       =       0.3333333333333333 [-]
	 SCS Opposite-Spin Scale   =       1.2000000000000000 [-]
	 SCS Same-Spin Energy      =      -0.0910376993364818 [Eh]
	 SCS Opposite-Spin Energy  =      -1.0097132521848033 [Eh]
	 SCS Correlation Energy    =      -1.1007509515212852 [Eh]
	 SCS Total Energy          =    -284.0645458020605361 [Eh]
	-----------------------------------------------------------

  Dipole Moment: [D]
     X:    -1.1883      Y:    -2.1633      Z:    -0.2934     Total:     2.4856

*** Psi4 exiting successfully. Buy a developer a beer!
