                               Psi4 1.3.2 release

  ==> Input File <==

--------------------------------------------------------------------------
#psi4
#
memory 32 gb

molecule  {
0 1
  O        1.6031800    -0.7324980    -0.0000110
  O        0.6173340     1.3294240    -0.0000320
  N       -0.6250516    -0.6151893     0.0999740
  C       -1.9301110     0.0126390     0.0000390
  C        0.5210560     0.1088720     0.0000320
  H       -0.5391190    -1.6216620     0.0000690
  H       -2.5003300    -0.2657770    -0.8906260
  H       -1.7714790     1.0904060    -0.0008230
  H       -2.4997010    -0.2644210     0.8915380
  H        2.3761990    -0.1366920    -0.0000490
units angstrom
no_reorient  #important for SAPT in psi4, default
symmetry c1  #important for SAPT in psi4, default
}

set PROPERTIES_ORIGIN ["COM"]
properties('MP2/aug-cc-pvtz', properties = ['dipole'])
--------------------------------------------------------------------------

    Molecular point group: c1
  Charge       = 0
  Multiplicity = 1
  Basis Set: AUG-CC-PVTZ
    Blend: AUG-CC-PVTZ
  Basis Set: (AUG-CC-PVTZ AUX)
    Blend: AUG-CC-PVTZ-JKFIT

    Orbital Energies [Eh]
    ---------------------

    Doubly Occupied:

       1A    -20.612022     2A    -20.531291     3A    -15.596467
       4A    -11.409747     5A    -11.267027     6A     -1.459775
       7A     -1.349470     8A     -1.240498     9A     -0.966814
      10A     -0.818552    11A     -0.755772    12A     -0.697249
      13A     -0.655798    14A     -0.621216    15A     -0.605934
      16A     -0.591029    17A     -0.554023    18A     -0.491572
      19A     -0.459766    20A     -0.408315

  @DF-RHF Final Energy:  -282.96384466367368

   => Energetics <=

    Nuclear Repulsion Energy =            181.7147016589355530
    One-Electron Energy =                -747.1724185981530582
    Two-Electron Energy =                 282.4938722755438789
    Total Energy =                       -282.9638446636736830
  Basis Set: (AUG-CC-PVTZ AUX)
    Blend: AUG-CC-PVTZ-RI
    Molecular point group: c1

    Geometry (in Angstrom), charge = 0, multiplicity = 1:

       Center              X                  Y                   Z               Mass
    ------------   -----------------  -----------------  -----------------  -----------------
         O            1.538106643192    -0.748275923157    -0.018672595880    15.994914619570
         O            0.552260643192     1.313646076843    -0.018693595880    15.994914619570
         N           -0.690124956808    -0.630967223157     0.081312404120    14.003074004430
         C           -1.995184356808    -0.003138923157    -0.018622595880    12.000000000000
         C            0.455982643192     0.093094076843    -0.018629595880    12.000000000000
         H           -0.604192356808    -1.637439923157    -0.018592595880     1.007825032230
         H           -2.565403356808    -0.281554923157    -0.909287595880     1.007825032230
         H           -1.836552356808     1.074628076843    -0.019484595880     1.007825032230
         H           -2.564774356808    -0.280198923157     0.872876404120     1.007825032230
         H            2.311125643192    -0.152469923157    -0.018710595880     1.007825032230

  Basis Set: AUG-CC-PVTZ
    Blend: AUG-CC-PVTZ
  Basis Set: (AUG-CC-PVTZ AUX)
    Blend: AUG-CC-PVTZ-JKFIT
	 Reference Energy          =    -282.9638446636736830 [Eh]
	 Singles Energy            =      -0.0000000000000000 [Eh]
	 Same-Spin Energy          =      -0.2730484233128602 [Eh]
	 Opposite-Spin Energy      =      -0.8413467222783872 [Eh]
	 Correlation Energy        =      -1.1143951455912475 [Eh]
	 Total Energy              =    -284.0782398092649146 [Eh]

	 ================> DF-SCS-MP2 Energies <==================
	-----------------------------------------------------------
	 SCS Same-Spin Scale       =       0.3333333333333333 [-]
	 SCS Opposite-Spin Scale   =       1.2000000000000000 [-]
	 SCS Same-Spin Energy      =      -0.0910161411042867 [Eh]
	 SCS Opposite-Spin Energy  =      -1.0096160667340646 [Eh]
	 SCS Correlation Energy    =      -1.1006322078383513 [Eh]
	 SCS Total Energy          =    -284.0644768715120563 [Eh]
	-----------------------------------------------------------

  Dipole Moment: [D]
     X:    -1.1725      Y:    -2.1605      Z:    -0.2035     Total:     2.4665

*** Psi4 exiting successfully. Buy a developer a beer!
