                               Psi4 1.3.2 release

  ==> Input File <==

--------------------------------------------------------------------------
#psi4
#
memory 32 gb

molecule  {
0 1
  O        1.6031800    -0.7324980    -0.0000110
  O        0.6173340     1.3294240    -0.0000320
  N       -0.6250510    -0.6151900    -0.0000260
  C       -1.9301110     0.0126390     0.0000390
  C        0.5210560     0.1088720     0.0000320
  H       -0.5391196    -1.6216680    -0.2999310
  H       -2.5003300    -0.2657770    -0.8906260
  H       -1.7714790     1.0904060    -0.0008230
  H       -2.4997010    -0.2644210     0.8915380
  H        2.3761990    -0.1366920    -0.0000490
units angstrom
no_reorient  #important for SAPT in psi4, default
symmetry c1  #important for SAPT in psi4, default
}

set PROPERTIES_ORIGIN ["COM"]
properties('MP2/aug-cc-pvtz', properties = ['dipole'])
--------------------------------------------------------------------------

    Molecular point group: c1
  Charge       = 0
  Multiplicity = 1
  Basis Set: AUG-CC-PVTZ
    Blend: AUG-CC-PVTZ
  Basis Set: (AUG-CC-PVTZ AUX)
    Blend: AUG-CC-PVTZ-JKFIT

    Orbital Energies [Eh]
    ---------------------

    Doubly Occupied:

       1A    -20.611619     2A    -20.531353     3A    -15.598805
       4A    -11.409376     5A    -11.266554     6A     -1.459529
       7A     -1.349412     8A     -1.237825     9A     -0.966992
      10A     -0.812400    11A     -0.751547    12A     -0.696980
      13A     -0.657517    14A     -0.615810    15A     -0.605417
      16A     -0.594550    17A     -0.551632    18A     -0.491308
      19A     -0.459654    20A     -0.407557

  @DF-RHF Final Energy:  -282.96113322008472

   => Energetics <=

    Nuclear Repulsion Energy =            181.6361094395894327
    One-Electron Energy =                -747.0428126173335386
    Two-Electron Energy =                 282.4455699576594156
    Total Energy =                       -282.9611332200847187
  Basis Set: (AUG-CC-PVTZ AUX)
    Blend: AUG-CC-PVTZ-RI
    Molecular point group: c1

    Geometry (in Angstrom), charge = 0, multiplicity = 1:

       Center              X                  Y                   Z               Mass
    ------------   -----------------  -----------------  -----------------  -----------------
         O            1.538106539275    -0.748275711926     0.004019778914    15.994914619570
         O            0.552260539275     1.313646288074     0.003998778914    15.994914619570
         N           -0.690124460725    -0.630967711926     0.004004778914    14.003074004430
         C           -1.995184460725    -0.003138711926     0.004069778914    12.000000000000
         C            0.455982539275     0.093094288074     0.004062778914    12.000000000000
         H           -0.604193060725    -1.637445711926    -0.295900221086     1.007825032230
         H           -2.565403460725    -0.281554711926    -0.886595221086     1.007825032230
         H           -1.836552460725     1.074628288074     0.003207778914     1.007825032230
         H           -2.564774460725    -0.280198711926     0.895568778914     1.007825032230
         H            2.311125539275    -0.152469711926     0.003981778914     1.007825032230

  Basis Set: AUG-CC-PVTZ
    Blend: AUG-CC-PVTZ
  Basis Set: (AUG-CC-PVTZ AUX)
    Blend: AUG-CC-PVTZ-JKFIT
	 Reference Energy          =    -282.9611332200847187 [Eh]
	 Singles Energy            =      -0.0000000000000000 [Eh]
	 Same-Spin Energy          =      -0.2732744300597038 [Eh]
	 Opposite-Spin Energy      =      -0.8418989775017703 [Eh]
	 Correlation Energy        =      -1.1151734075614741 [Eh]
	 Total Energy              =    -284.0763066276462041 [Eh]

	 ================> DF-SCS-MP2 Energies <==================
	-----------------------------------------------------------
	 SCS Same-Spin Scale       =       0.3333333333333333 [-]
	 SCS Opposite-Spin Scale   =       1.2000000000000000 [-]
	 SCS Same-Spin Energy      =      -0.0910914766865679 [Eh]
	 SCS Opposite-Spin Energy  =      -1.0102787730021243 [Eh]
	 SCS Correlation Energy    =      -1.1013702496886921 [Eh]
	 SCS Total Energy          =    -284.0625034697733895 [Eh]
	-----------------------------------------------------------

  Dipole Moment: [D]
     X:    -1.1724      Y:    -2.1346      Z:    -0.4348     Total:     2.4739

*** Psi4 exiting successfully. Buy a developer a beer!
