                               Psi4 1.3.2 release

  ==> Input File <==

--------------------------------------------------------------------------
#psi4
#
memory 32 gb

molecule  {
0 1
  O        1.6031800    -0.7324980    -0.0000110
  O        0.6173340     1.3294240    -0.0000320
  N       -0.6250523    -0.6151886     0.1999740
  C       -1.9301110     0.0126390     0.0000390
  C        0.5210560     0.1088720     0.0000320
  H       -0.5391190    -1.6216620     0.0000690
  H       -2.5003300    -0.2657770    -0.8906260
  H       -1.7714790     1.0904060    -0.0008230
  H       -2.4997010    -0.2644210     0.8915380
  H        2.3761990    -0.1366920    -0.0000490
units angstrom
no_reorient  #important for SAPT in psi4, default
symmetry c1  #important for SAPT in psi4, default
}

set PROPERTIES_ORIGIN ["COM"]
properties('MP2/aug-cc-pvtz', properties = ['dipole'])
--------------------------------------------------------------------------

    Molecular point group: c1
  Charge       = 0
  Multiplicity = 1
  Basis Set: AUG-CC-PVTZ
    Blend: AUG-CC-PVTZ
  Basis Set: (AUG-CC-PVTZ AUX)
    Blend: AUG-CC-PVTZ-JKFIT

    Orbital Energies [Eh]
    ---------------------

    Doubly Occupied:

       1A    -20.613462     2A    -20.534630     3A    -15.598383
       4A    -11.411257     5A    -11.266486     6A     -1.460726
       7A     -1.351263     8A     -1.236117     9A     -0.963566
      10A     -0.815602    11A     -0.751640    12A     -0.698498
      13A     -0.655100    14A     -0.623245    15A     -0.607173
      16A     -0.581554    17A     -0.552052    18A     -0.492452
      19A     -0.461720    20A     -0.412041

  @DF-RHF Final Energy:  -282.95891064684065

   => Energetics <=

    Nuclear Repulsion Energy =            181.3343827304911429
    One-Electron Energy =                -746.4126536011809776
    Two-Electron Energy =                 282.1193602238491849
    Total Energy =                       -282.9589106468406499
  Basis Set: (AUG-CC-PVTZ AUX)
    Blend: AUG-CC-PVTZ-RI
    Molecular point group: c1

    Geometry (in Angstrom), charge = 0, multiplicity = 1:

       Center              X                  Y                   Z               Mass
    ------------   -----------------  -----------------  -----------------  -----------------
         O            1.538106773832    -0.748276053797    -0.037335391358    15.994914619570
         O            0.552260773832     1.313645946203    -0.037356391358    15.994914619570
         N           -0.690125526168    -0.630966653797     0.162649608642    14.003074004430
         C           -1.995184226168    -0.003139053797    -0.037285391358    12.000000000000
         C            0.455982773832     0.093093946203    -0.037292391358    12.000000000000
         H           -0.604192226168    -1.637440053797    -0.037255391358     1.007825032230
         H           -2.565403226168    -0.281555053797    -0.927950391358     1.007825032230
         H           -1.836552226168     1.074627946203    -0.038147391358     1.007825032230
         H           -2.564774226168    -0.280199053797     0.854213608642     1.007825032230
         H            2.311125773832    -0.152470053797    -0.037373391358     1.007825032230

  Basis Set: AUG-CC-PVTZ
    Blend: AUG-CC-PVTZ
  Basis Set: (AUG-CC-PVTZ AUX)
    Blend: AUG-CC-PVTZ-JKFIT
	 Reference Energy          =    -282.9589106468406499 [Eh]
	 Singles Energy            =      -0.0000000000000000 [Eh]
	 Same-Spin Energy          =      -0.2732574933246265 [Eh]
	 Opposite-Spin Energy      =      -0.8422537913546388 [Eh]
	 Correlation Energy        =      -1.1155112846792652 [Eh]
	 Total Energy              =    -284.0744219315199075 [Eh]

	 ================> DF-SCS-MP2 Energies <==================
	-----------------------------------------------------------
	 SCS Same-Spin Scale       =       0.3333333333333333 [-]
	 SCS Opposite-Spin Scale   =       1.2000000000000000 [-]
	 SCS Same-Spin Energy      =      -0.0910858311082088 [Eh]
	 SCS Opposite-Spin Energy  =      -1.0107045496255667 [Eh]
	 SCS Correlation Energy    =      -1.1017903807337754 [Eh]
	 SCS Total Energy          =    -284.0607010275744528 [Eh]
	-----------------------------------------------------------

  Dipole Moment: [D]
     X:    -1.0876      Y:    -2.0835      Z:    -0.4055     Total:     2.3850

*** Psi4 exiting successfully. Buy a developer a beer!
