                               Psi4 1.3.2 release

  ==> Input File <==

--------------------------------------------------------------------------
#psi4
#
memory 32 gb

molecule  {
0 1
  O        1.6031800    -0.7324980    -0.0000110
  O        0.6173340     1.3294240    -0.0000320
  N       -0.6250526    -0.6151882     0.2499740
  C       -1.9301110     0.0126390     0.0000390
  C        0.5210560     0.1088720     0.0000320
  H       -0.5391190    -1.6216620     0.0000690
  H       -2.5003300    -0.2657770    -0.8906260
  H       -1.7714790     1.0904060    -0.0008230
  H       -2.4997010    -0.2644210     0.8915380
  H        2.3761990    -0.1366920    -0.0000490
units angstrom
no_reorient  #important for SAPT in psi4, default
symmetry c1  #important for SAPT in psi4, default
}

set PROPERTIES_ORIGIN ["COM"]
properties('MP2/aug-cc-pvtz', properties = ['dipole'])
--------------------------------------------------------------------------

    Molecular point group: c1
  Charge       = 0
  Multiplicity = 1
  Basis Set: AUG-CC-PVTZ
    Blend: AUG-CC-PVTZ
  Basis Set: (AUG-CC-PVTZ AUX)
    Blend: AUG-CC-PVTZ-JKFIT

    Orbital Energies [Eh]
    ---------------------

    Doubly Occupied:

       1A    -20.614451     2A    -20.536951     3A    -15.599958
       4A    -11.412306     5A    -11.266157     6A     -1.461374
       7A     -1.352506     8A     -1.232838     9A     -0.961273
      10A     -0.813952    11A     -0.748384    12A     -0.699317
      13A     -0.654615    14A     -0.624217    15A     -0.607753
      16A     -0.575384    17A     -0.550582    18A     -0.493078
      19A     -0.463035    20A     -0.414762

  @DF-RHF Final Energy:  -282.95489675993599

   => Energetics <=

    Nuclear Repulsion Energy =            181.0545053960904625
    One-Electron Energy =                -745.8530190561997415
    Two-Electron Energy =                 281.8436169001732878
    Total Energy =                       -282.9548967599359912
  Basis Set: (AUG-CC-PVTZ AUX)
    Blend: AUG-CC-PVTZ-RI
    Molecular point group: c1

    Geometry (in Angstrom), charge = 0, multiplicity = 1:

       Center              X                  Y                   Z               Mass
    ------------   -----------------  -----------------  -----------------  -----------------
         O            1.538106829820    -0.748276128448    -0.046666789097    15.994914619570
         O            0.552260829820     1.313645871552    -0.046687789097    15.994914619570
         N           -0.690125770180    -0.630966328448     0.203318210903    14.003074004430
         C           -1.995184170180    -0.003139128448    -0.046616789097    12.000000000000
         C            0.455982829820     0.093093871552    -0.046623789097    12.000000000000
         H           -0.604192170180    -1.637440128448    -0.046586789097     1.007825032230
         H           -2.565403170180    -0.281555128448    -0.937281789097     1.007825032230
         H           -1.836552170180     1.074627871552    -0.047478789097     1.007825032230
         H           -2.564774170180    -0.280199128448     0.844882210903     1.007825032230
         H            2.311125829820    -0.152470128448    -0.046704789097     1.007825032230

  Basis Set: AUG-CC-PVTZ
    Blend: AUG-CC-PVTZ
  Basis Set: (AUG-CC-PVTZ AUX)
    Blend: AUG-CC-PVTZ-JKFIT
	 Reference Energy          =    -282.9548967599359912 [Eh]
	 Singles Energy            =      -0.0000000000000000 [Eh]
	 Same-Spin Energy          =      -0.2734229757495834 [Eh]
	 Opposite-Spin Energy      =      -0.8429660844211724 [Eh]
	 Correlation Energy        =      -1.1163890601707558 [Eh]
	 Total Energy              =    -284.0712858201067661 [Eh]

	 ================> DF-SCS-MP2 Energies <==================
	-----------------------------------------------------------
	 SCS Same-Spin Scale       =       0.3333333333333333 [-]
	 SCS Opposite-Spin Scale   =       1.2000000000000000 [-]
	 SCS Same-Spin Energy      =      -0.0911409919165278 [Eh]
	 SCS Opposite-Spin Energy  =      -1.0115593013054067 [Eh]
	 SCS Correlation Energy    =      -1.1027002932219345 [Eh]
	 SCS Total Energy          =    -284.0575970531579060 [Eh]
	-----------------------------------------------------------

  Dipole Moment: [D]
     X:    -1.0278      Y:    -2.0292      Z:    -0.5047     Total:     2.3300

*** Psi4 exiting successfully. Buy a developer a beer!
