                               Psi4 1.3.2 release

  ==> Input File <==

--------------------------------------------------------------------------
#psi4
#
memory 32 gb

molecule  {
0 1
  O        1.6031800    -0.7324980    -0.0000110
  O        0.6173340     1.3294240    -0.0000320
  N       -0.6250510    -0.6151900    -0.0000260
  C       -1.9301110     0.0126390     0.0000390
  C        0.5210560     0.1088720     0.0000320
  H       -0.5391191    -1.6216630    -0.0499310
  H       -2.5003300    -0.2657770    -0.8906260
  H       -1.7714790     1.0904060    -0.0008230
  H       -2.4997010    -0.2644210     0.8915380
  H        2.3761990    -0.1366920    -0.0000490
units angstrom
no_reorient  #important for SAPT in psi4, default
symmetry c1  #important for SAPT in psi4, default
}

set PROPERTIES_ORIGIN ["COM"]
properties('MP2/aug-cc-pvtz', properties = ['dipole'])
--------------------------------------------------------------------------

    Molecular point group: c1
  Charge       = 0
  Multiplicity = 1
  Basis Set: AUG-CC-PVTZ
    Blend: AUG-CC-PVTZ
  Basis Set: (AUG-CC-PVTZ AUX)
    Blend: AUG-CC-PVTZ-JKFIT

    Orbital Energies [Eh]
    ---------------------

    Doubly Occupied:

       1A    -20.611514     2A    -20.530149     3A    -15.595967
       4A    -11.409217     5A    -11.267214     6A     -1.459439
       7A     -1.348853     8A     -1.241834     9A     -0.967918
      10A     -0.819522    11A     -0.756923    12A     -0.696798
      13A     -0.656096    14A     -0.620070    15A     -0.605202
      16A     -0.594845    17A     -0.554606    18A     -0.491268
      19A     -0.459079    20A     -0.407067

  @DF-RHF Final Energy:  -282.96529245943447

   => Energetics <=

    Nuclear Repulsion Energy =            181.8372355783186265
    One-Electron Energy =                -747.4178906503956341
    Two-Electron Energy =                 282.6153626126425138
    Total Energy =                       -282.9652924594344654
  Basis Set: (AUG-CC-PVTZ AUX)
    Blend: AUG-CC-PVTZ-RI
    Molecular point group: c1

    Geometry (in Angstrom), charge = 0, multiplicity = 1:

       Center              X                  Y                   Z               Mass
    ------------   -----------------  -----------------  -----------------  -----------------
         O            1.538106532559    -0.748275779086     0.000661796151    15.994914619570
         O            0.552260532559     1.313646220914     0.000640796151    15.994914619570
         N           -0.690124467441    -0.630967779086     0.000646796151    14.003074004430
         C           -1.995184467441    -0.003138779086     0.000711796151    12.000000000000
         C            0.455982532559     0.093094220914     0.000704796151    12.000000000000
         H           -0.604192567441    -1.637440779086    -0.049258203849     1.007825032230
         H           -2.565403467441    -0.281554779086    -0.889953203849     1.007825032230
         H           -1.836552467441     1.074628220914    -0.000150203849     1.007825032230
         H           -2.564774467441    -0.280198779086     0.892210796151     1.007825032230
         H            2.311125532559    -0.152469779086     0.000623796151     1.007825032230

  Basis Set: AUG-CC-PVTZ
    Blend: AUG-CC-PVTZ
  Basis Set: (AUG-CC-PVTZ AUX)
    Blend: AUG-CC-PVTZ-JKFIT
	 Reference Energy          =    -282.9652924594344654 [Eh]
	 Singles Energy            =      -0.0000000000000000 [Eh]
	 Same-Spin Energy          =      -0.2729899177736284 [Eh]
	 Opposite-Spin Energy      =      -0.8410825271520150 [Eh]
	 Correlation Energy        =      -1.1140724449256434 [Eh]
	 Total Energy              =    -284.0793649043600908 [Eh]

	 ================> DF-SCS-MP2 Energies <==================
	-----------------------------------------------------------
	 SCS Same-Spin Scale       =       0.3333333333333333 [-]
	 SCS Opposite-Spin Scale   =       1.2000000000000000 [-]
	 SCS Same-Spin Energy      =      -0.0909966392578761 [Eh]
	 SCS Opposite-Spin Energy  =      -1.0092990325824180 [Eh]
	 SCS Correlation Energy    =      -1.1002956718402941 [Eh]
	 SCS Total Energy          =    -284.0655881312747510 [Eh]
	-----------------------------------------------------------

  Dipole Moment: [D]
     X:    -1.2013      Y:    -2.1858      Z:    -0.0740     Total:     2.4952

*** Psi4 exiting successfully. Buy a developer a beer!
