                               Psi4 1.4a3.dev225

  ==> Input File <==

--------------------------------------------------------------------------
#psi4
#
memory 32 gb

molecule  {
0 1
  N       -0.9921260    -0.3000080     0.0000520
  N        0.0017640    -1.1800760     0.0000510
  N       -0.6174171     1.0381951    -0.0000185
  N        0.7028190     0.9633360    -0.0000720
  C        1.0536040    -0.3405910    -0.0000270
  H       -1.9683030    -0.5816970     0.0001040
  H        2.0757780    -0.6878530    -0.0000530
units angstrom
no_reorient  #important for SAPT in psi4, default
symmetry c1  #important for SAPT in psi4, default
}

set PROPERTIES_ORIGIN ["COM"]
properties('MP2/aug-cc-pvtz', properties = ['dipole'])
--------------------------------------------------------------------------

    Molecular point group: c1
  Charge       = 0
  Multiplicity = 1
  Basis Set: AUG-CC-PVTZ
    Blend: AUG-CC-PVTZ
  Basis Set: (AUG-CC-PVTZ AUX)
    Blend: AUG-CC-PVTZ-JKFIT

    Orbital Energies [Eh]
    ---------------------

    Doubly Occupied:

       1A    -15.711461     2A    -15.689870     3A    -15.649233
       4A    -15.626331     5A    -11.312603     6A     -1.486538
       7A     -1.271914     8A     -1.169499     9A     -0.927414
      10A     -0.869645    11A     -0.777774    12A     -0.674648
      13A     -0.650806    14A     -0.579313    15A     -0.513869
      16A     -0.483965    17A     -0.457277    18A     -0.407567

  @DF-RHF Final Energy:  -256.83607692815622

   => Energetics <=

    Nuclear Repulsion Energy =            165.2579140322129660
    One-Electron Energy =                -675.6685275238457962
    Two-Electron Energy =                 253.5745365634765847
    Total Energy =                       -256.8360769281562170
  Basis Set: (AUG-CC-PVTZ AUX)
    Blend: AUG-CC-PVTZ-RI
    Molecular point group: c1

    Geometry (in Angstrom), charge = 0, multiplicity = 1:

       Center              X                  Y                   Z               Mass
    ------------   -----------------  -----------------  -----------------  -----------------
         N           -0.993258986878    -0.327643910651     0.000053393194    14.003074004430
         N            0.000631013122    -1.207711910651     0.000052393194    14.003074004430
         N           -0.618550086878     1.010559189349    -0.000017106806    14.003074004430
         N            0.701686013122     0.935700089349    -0.000070606806    14.003074004430
         C            1.052471013122    -0.368226910651    -0.000025606806    12.000000000000
         H           -1.969435986878    -0.609332910651     0.000105393194     1.007825032230
         H            2.074645013122    -0.715488910651    -0.000051606806     1.007825032230

  Basis Set: AUG-CC-PVTZ
    Blend: AUG-CC-PVTZ
  Basis Set: (AUG-CC-PVTZ AUX)
    Blend: AUG-CC-PVTZ-JKFIT
	 Reference Energy          =    -256.8360769281562170 [Eh]
	 Singles Energy            =      -0.0000000000000000 [Eh]
	 Same-Spin Energy          =      -0.2789879624029994 [Eh]
	 Opposite-Spin Energy      =      -0.7964123080238208 [Eh]
	 Correlation Energy        =      -1.0754002704268202 [Eh]
	 Total Energy              =    -257.9114771985830430 [Eh]

	 ================> DF-SCS-MP2 Energies <==================
	-----------------------------------------------------------
	 SCS Same-Spin Scale       =       0.3333333333333333 [-]
	 SCS Opposite-Spin Scale   =       1.2000000000000000 [-]
	 SCS Same-Spin Energy      =      -0.0929959874676665 [Eh]
	 SCS Opposite-Spin Energy  =      -0.9556947696285849 [Eh]
	 SCS Correlation Energy    =      -1.0486907570962514 [Eh]
	 SCS Total Energy          =    -257.8847676852524842 [Eh]
	-----------------------------------------------------------

  Dipole Moment: [D]
     X:    -1.1780      Y:    -1.9985      Z:     0.0001     Total:     2.3199

*** Psi4 exiting successfully. Buy a developer a beer!
