                               Psi4 1.3.2 release

  ==> Input File <==

--------------------------------------------------------------------------
#psi4
#
memory 32 gb

molecule  {
0 1
  N       -0.9012564    -0.3220634     0.0000490
  N        0.0017640    -1.1800760     0.0000510
  N       -0.6308990     0.9900470    -0.0000160
  N        0.7028190     0.9633360    -0.0000720
  C        1.0536040    -0.3405910    -0.0000270
  H       -1.9683030    -0.5816970     0.0001040
  H        2.0757780    -0.6878530    -0.0000530
units angstrom
no_reorient  #important for SAPT in psi4, default
symmetry c1  #important for SAPT in psi4, default
}

set PROPERTIES_ORIGIN ["COM"]
properties('MP2/aug-cc-pvtz', properties = ['dipole'])
--------------------------------------------------------------------------

    Molecular point group: c1
  Charge       = 0
  Multiplicity = 1
  Basis Set: AUG-CC-PVTZ
    Blend: AUG-CC-PVTZ
  Basis Set: (AUG-CC-PVTZ AUX)
    Blend: AUG-CC-PVTZ-JKFIT

    Orbital Energies [Eh]
    ---------------------

    Doubly Occupied:

       1A    -15.726158     2A    -15.675405     3A    -15.644203
       4A    -15.621140     5A    -11.307279     6A     -1.528059
       7A     -1.291830     8A     -1.171652     9A     -0.909449
      10A     -0.887472    11A     -0.778404    12A     -0.700987
      13A     -0.641364    14A     -0.567182    15A     -0.521839
      16A     -0.485806    17A     -0.461265    18A     -0.404112

  @DF-RHF Final Energy:  -256.82782420990395

   => Energetics <=

    Nuclear Repulsion Energy =            168.0374175716100922
    One-Electron Energy =                -681.0832727604595220
    Two-Electron Energy =                 256.2180309789454213
    Total Energy =                       -256.8278242099039517
  Basis Set: (AUG-CC-PVTZ AUX)
    Blend: AUG-CC-PVTZ-RI
    Molecular point group: c1

    Geometry (in Angstrom), charge = 0, multiplicity = 1:

       Center              X                  Y                   Z               Mass
    ------------   -----------------  -----------------  -----------------  -----------------
         N           -0.917864147323    -0.335661132169     0.000050493176    14.003074004430
         N           -0.014843747323    -1.193673732169     0.000052493176    14.003074004430
         N           -0.647506747323     0.976449267831    -0.000014506824    14.003074004430
         N            0.686211252677     0.949738267831    -0.000070506824    14.003074004430
         C            1.036996252677    -0.354188732169    -0.000025506824    12.000000000000
         H           -1.984910747323    -0.595294732169     0.000105493176     1.007825032230
         H            2.059170252677    -0.701450732169    -0.000051506824     1.007825032230

  Basis Set: AUG-CC-PVTZ
    Blend: AUG-CC-PVTZ
  Basis Set: (AUG-CC-PVTZ AUX)
    Blend: AUG-CC-PVTZ-JKFIT
	 Reference Energy          =    -256.8278242099039517 [Eh]
	 Singles Energy            =      -0.0000000000000000 [Eh]
	 Same-Spin Energy          =      -0.2787844856646847 [Eh]
	 Opposite-Spin Energy      =      -0.7935687218799844 [Eh]
	 Correlation Energy        =      -1.0723532075446691 [Eh]
	 Total Energy              =    -257.9001774174486172 [Eh]

	 ================> DF-SCS-MP2 Energies <==================
	-----------------------------------------------------------
	 SCS Same-Spin Scale       =       0.3333333333333333 [-]
	 SCS Opposite-Spin Scale   =       1.2000000000000000 [-]
	 SCS Same-Spin Energy      =      -0.0929281618882282 [Eh]
	 SCS Opposite-Spin Energy  =      -0.9522824662559812 [Eh]
	 SCS Correlation Energy    =      -1.0452106281442095 [Eh]
	 SCS Total Energy          =    -257.8730348380481701 [Eh]
	-----------------------------------------------------------

  Dipole Moment: [D]
     X:    -1.3139      Y:    -2.1289      Z:     0.0001     Total:     2.5017

*** Psi4 exiting successfully. Buy a developer a beer!
