                               Psi4 1.3.2 release

  ==> Input File <==

--------------------------------------------------------------------------
#psi4
#
memory 32 gb

molecule  {
0 1
  N       -0.9921260    -0.3000080     0.0000520
  N        0.0317024    -1.2162733     0.0000515
  N       -0.6308990     0.9900470    -0.0000160
  N        0.7028190     0.9633360    -0.0000720
  C        1.0536040    -0.3405910    -0.0000270
  H       -1.9683030    -0.5816970     0.0001040
  H        2.0757780    -0.6878530    -0.0000530
units angstrom
no_reorient  #important for SAPT in psi4, default
symmetry c1  #important for SAPT in psi4, default
}

set PROPERTIES_ORIGIN ["COM"]
properties('MP2/aug-cc-pvtz', properties = ['dipole'])
--------------------------------------------------------------------------

    Molecular point group: c1
  Charge       = 0
  Multiplicity = 1
  Basis Set: AUG-CC-PVTZ
    Blend: AUG-CC-PVTZ
  Basis Set: (AUG-CC-PVTZ AUX)
    Blend: AUG-CC-PVTZ-JKFIT

    Orbital Energies [Eh]
    ---------------------

    Doubly Occupied:

       1A    -15.714492     2A    -15.692621     3A    -15.646482
       4A    -15.622979     5A    -11.316270     6A     -1.488182
       7A     -1.255852     8A     -1.184718     9A     -0.927645
      10A     -0.869420    11A     -0.778385    12A     -0.675500
      13A     -0.640057    14A     -0.581172    15A     -0.515117
      16A     -0.486654    17A     -0.446406    18A     -0.419839

  @DF-RHF Final Energy:  -256.83716902785687

   => Energetics <=

    Nuclear Repulsion Energy =            165.1134752258702179
    One-Electron Energy =                -675.3777062398636417
    Two-Electron Energy =                 253.4270619861365503
    Total Energy =                       -256.8371690278568735
  Basis Set: (AUG-CC-PVTZ AUX)
    Blend: AUG-CC-PVTZ-RI
    Molecular point group: c1

    Geometry (in Angstrom), charge = 0, multiplicity = 1:

       Center              X                  Y                   Z               Mass
    ------------   -----------------  -----------------  -----------------  -----------------
         N           -0.996549695805    -0.310777860107     0.000052793302    14.003074004430
         N            0.027278704195    -1.227043160107     0.000052293302    14.003074004430
         N           -0.635322695805     0.979277139893    -0.000015206698    14.003074004430
         N            0.698395304195     0.952566139893    -0.000071206698    14.003074004430
         C            1.049180304195    -0.351360860107    -0.000026206698    12.000000000000
         H           -1.972726695805    -0.592466860107     0.000104793302     1.007825032230
         H            2.071354304195    -0.698622860107    -0.000052206698     1.007825032230

  Basis Set: AUG-CC-PVTZ
    Blend: AUG-CC-PVTZ
  Basis Set: (AUG-CC-PVTZ AUX)
    Blend: AUG-CC-PVTZ-JKFIT
	 Reference Energy          =    -256.8371690278568735 [Eh]
	 Singles Energy            =      -0.0000000000000000 [Eh]
	 Same-Spin Energy          =      -0.2782498292275016 [Eh]
	 Opposite-Spin Energy      =      -0.7956850819738084 [Eh]
	 Correlation Energy        =      -1.0739349112013099 [Eh]
	 Total Energy              =    -257.9111039390581936 [Eh]

	 ================> DF-SCS-MP2 Energies <==================
	-----------------------------------------------------------
	 SCS Same-Spin Scale       =       0.3333333333333333 [-]
	 SCS Opposite-Spin Scale   =       1.2000000000000000 [-]
	 SCS Same-Spin Energy      =      -0.0927499430758339 [Eh]
	 SCS Opposite-Spin Energy  =      -0.9548220983685700 [Eh]
	 SCS Correlation Energy    =      -1.0475720414444039 [Eh]
	 SCS Total Energy          =    -257.8847410693012989 [Eh]
	-----------------------------------------------------------

  Dipole Moment: [D]
     X:    -1.2286      Y:    -1.9662      Z:     0.0001     Total:     2.3184

*** Psi4 exiting successfully. Buy a developer a beer!
