                               Psi4 1.3.2 release

  ==> Input File <==

--------------------------------------------------------------------------
#psi4
#
memory 32 gb

molecule  {
0 1
  N       -0.9921260    -0.3000080     0.0000520
  N        0.1514992    -1.3126632     0.0000508
  N       -0.6308990     0.9900470    -0.0000160
  N        0.7028190     0.9633360    -0.0000720
  C        1.0536040    -0.3405910    -0.0000270
  H       -1.9683030    -0.5816970     0.0001040
  H        2.0757780    -0.6878530    -0.0000530
units angstrom
no_reorient  #important for SAPT in psi4, default
symmetry c1  #important for SAPT in psi4, default
}

set PROPERTIES_ORIGIN ["COM"]
properties('MP2/aug-cc-pvtz', properties = ['dipole'])
--------------------------------------------------------------------------

    Molecular point group: c1
  Charge       = 0
  Multiplicity = 1
  Basis Set: AUG-CC-PVTZ
    Blend: AUG-CC-PVTZ
  Basis Set: (AUG-CC-PVTZ AUX)
    Blend: AUG-CC-PVTZ-JKFIT

    Orbital Energies [Eh]
    ---------------------

    Doubly Occupied:

       1A    -15.713511     2A    -15.702667     3A    -15.657328
       4A    -15.621046     5A    -11.323435     6A     -1.467576
       7A     -1.231000     8A     -1.193530     9A     -0.932071
      10A     -0.846488    11A     -0.774960    12A     -0.659981
      13A     -0.613545    14A     -0.589290    15A     -0.521448
      16A     -0.488826    17A     -0.441615    18A     -0.431286

  @DF-RHF Final Energy:  -256.80604564412340

   => Energetics <=

    Nuclear Repulsion Energy =            162.5320931547857413
    One-Electron Energy =                -670.2570723613981727
    Two-Electron Energy =                 250.9189335624890020
    Total Energy =                       -256.8060456441234010
  Basis Set: (AUG-CC-PVTZ AUX)
    Blend: AUG-CC-PVTZ-RI
    Molecular point group: c1

    Geometry (in Angstrom), charge = 0, multiplicity = 1:

       Center              X                  Y                   Z               Mass
    ------------   -----------------  -----------------  -----------------  -----------------
         N           -1.020504753032    -0.291503342168     0.000052933276    14.003074004430
         N            0.123120446968    -1.304158542168     0.000051733276    14.003074004430
         N           -0.659277753032     0.998551657832    -0.000015066724    14.003074004430
         N            0.674440246968     0.971840657832    -0.000071066724    14.003074004430
         C            1.025225246968    -0.332086342168    -0.000026066724    12.000000000000
         H           -1.996681753032    -0.573192342168     0.000104933276     1.007825032230
         H            2.047399246968    -0.679348342168    -0.000052066724     1.007825032230

  Basis Set: AUG-CC-PVTZ
    Blend: AUG-CC-PVTZ
  Basis Set: (AUG-CC-PVTZ AUX)
    Blend: AUG-CC-PVTZ-JKFIT
	 Reference Energy          =    -256.8060456441234010 [Eh]
	 Singles Energy            =      -0.0000000000000000 [Eh]
	 Same-Spin Energy          =      -0.2785333809987895 [Eh]
	 Opposite-Spin Energy      =      -0.8004308807817382 [Eh]
	 Correlation Energy        =      -1.0789642617805277 [Eh]
	 Total Energy              =    -257.8850099059039280 [Eh]

	 ================> DF-SCS-MP2 Energies <==================
	-----------------------------------------------------------
	 SCS Same-Spin Scale       =       0.3333333333333333 [-]
	 SCS Opposite-Spin Scale   =       1.2000000000000000 [-]
	 SCS Same-Spin Energy      =      -0.0928444603329298 [Eh]
	 SCS Opposite-Spin Energy  =      -0.9605170569380858 [Eh]
	 SCS Correlation Energy    =      -1.0533615172710156 [Eh]
	 SCS Total Energy          =    -257.8594071613944152 [Eh]
	-----------------------------------------------------------

  Dipole Moment: [D]
     X:    -1.2235      Y:    -1.8402      Z:     0.0001     Total:     2.2098

*** Psi4 exiting successfully. Buy a developer a beer!
