                               Psi4 1.3.2 release

  ==> Input File <==

--------------------------------------------------------------------------
#psi4
#
memory 32 gb

molecule  {
0 1
  N       -0.9921260    -0.3000080     0.0000520
  N       -0.0127268    -1.1615910     0.0000508
  N       -0.6308990     0.9900470    -0.0000160
  N        0.7028190     0.9633360    -0.0000720
  C        1.0536040    -0.3405910    -0.0000270
  H       -1.9683030    -0.5816970     0.0001040
  H        2.0757780    -0.6878530    -0.0000530
units angstrom
no_reorient  #important for SAPT in psi4, default
symmetry c1  #important for SAPT in psi4, default
}

set PROPERTIES_ORIGIN ["COM"]
properties('MP2/aug-cc-pvtz', properties = ['dipole'])
--------------------------------------------------------------------------

    Molecular point group: c1
  Charge       = 0
  Multiplicity = 1
  Basis Set: AUG-CC-PVTZ
    Blend: AUG-CC-PVTZ
  Basis Set: (AUG-CC-PVTZ AUX)
    Blend: AUG-CC-PVTZ-JKFIT

    Orbital Energies [Eh]
    ---------------------

    Doubly Occupied:

       1A    -15.718072     2A    -15.680628     3A    -15.640394
       4A    -15.623043     5A    -11.311800     6A     -1.504750
       7A     -1.269838     8A     -1.181570     9A     -0.927445
      10A     -0.880935    11A     -0.781020    12A     -0.686208
      13A     -0.655574    14A     -0.574399    15A     -0.507951
      16A     -0.485073    17A     -0.453459    18A     -0.411457

  @DF-RHF Final Energy:  -256.84395702639176

   => Energetics <=

    Nuclear Repulsion Energy =            166.6667925750061272
    One-Electron Energy =                -678.4342678464566916
    Two-Electron Energy =                 254.9235182450587729
    Total Energy =                       -256.8439570263917631
  Basis Set: (AUG-CC-PVTZ AUX)
    Blend: AUG-CC-PVTZ-RI
    Molecular point group: c1

    Geometry (in Angstrom), charge = 0, multiplicity = 1:

       Center              X                  Y                   Z               Mass
    ------------   -----------------  -----------------  -----------------  -----------------
         N           -0.987665451580    -0.321712356069     0.000052933276    14.003074004430
         N           -0.008266251580    -1.183295356069     0.000051733276    14.003074004430
         N           -0.626438451580     0.968342643931    -0.000015066724    14.003074004430
         N            0.707279548420     0.941631643931    -0.000071066724    14.003074004430
         C            1.058064548420    -0.362295356069    -0.000026066724    12.000000000000
         H           -1.963842451580    -0.603401356069     0.000104933276     1.007825032230
         H            2.080238548420    -0.709557356069    -0.000052066724     1.007825032230

  Basis Set: AUG-CC-PVTZ
    Blend: AUG-CC-PVTZ
  Basis Set: (AUG-CC-PVTZ AUX)
    Blend: AUG-CC-PVTZ-JKFIT
	 Reference Energy          =    -256.8439570263917631 [Eh]
	 Singles Energy            =      -0.0000000000000000 [Eh]
	 Same-Spin Energy          =      -0.2776980064254615 [Eh]
	 Opposite-Spin Energy      =      -0.7926932350833695 [Eh]
	 Correlation Energy        =      -1.0703912415088310 [Eh]
	 Total Energy              =    -257.9143482679006070 [Eh]

	 ================> DF-SCS-MP2 Energies <==================
	-----------------------------------------------------------
	 SCS Same-Spin Scale       =       0.3333333333333333 [-]
	 SCS Opposite-Spin Scale   =       1.2000000000000000 [-]
	 SCS Same-Spin Energy      =      -0.0925660021418205 [Eh]
	 SCS Opposite-Spin Energy  =      -0.9512318821000434 [Eh]
	 SCS Correlation Energy    =      -1.0437978842418638 [Eh]
	 SCS Total Energy          =    -257.8877549106336460 [Eh]
	-----------------------------------------------------------

  Dipole Moment: [D]
     X:    -1.2420      Y:    -2.0596      Z:     0.0001     Total:     2.4051

*** Psi4 exiting successfully. Buy a developer a beer!
