                               Psi4 1.4a3.dev225

  ==> Input File <==

--------------------------------------------------------------------------
#psi4
#
memory 32 gb

molecule  {
0 1
  N       -0.9921260    -0.3000080     0.0000520
  N        0.0017640    -1.1800760     0.0000510
  N       -0.6308990     0.9900470    -0.0000160
  N        0.7028190     0.9633360    -0.0000720
  C        1.0665933    -0.3888743    -0.0000253
  H       -1.9683030    -0.5816970     0.0001040
  H        2.0757780    -0.6878530    -0.0000530
units angstrom
no_reorient  #important for SAPT in psi4, default
symmetry c1  #important for SAPT in psi4, default
}

set PROPERTIES_ORIGIN ["COM"]
properties('MP2/aug-cc-pvtz', properties = ['dipole'])
--------------------------------------------------------------------------

    Molecular point group: c1
  Charge       = 0
  Multiplicity = 1
  Basis Set: AUG-CC-PVTZ
    Blend: AUG-CC-PVTZ
  Basis Set: (AUG-CC-PVTZ AUX)
    Blend: AUG-CC-PVTZ-JKFIT

    Orbital Energies [Eh]
    ---------------------

    Doubly Occupied:

       1A    -15.712021     2A    -15.686799     3A    -15.642487
       4A    -15.625913     5A    -11.314486     6A     -1.494395
       7A     -1.261347     8A     -1.180208     9A     -0.918390
      10A     -0.881920    11A     -0.778246    12A     -0.679816
      13A     -0.663800    14A     -0.574052    15A     -0.511863
      16A     -0.479430    17A     -0.446601    18A     -0.415885

  @DF-RHF Final Energy:  -256.84020589964268

   => Energetics <=

    Nuclear Repulsion Energy =            165.5897173431730778
    One-Electron Energy =                -676.3245258316892432
    Two-Electron Energy =                 253.8946025888734823
    Total Energy =                       -256.8402058996426831
  Basis Set: (AUG-CC-PVTZ AUX)
    Blend: AUG-CC-PVTZ-RI
    Molecular point group: c1

    Geometry (in Angstrom), charge = 0, multiplicity = 1:

       Center              X                  Y                   Z               Mass
    ------------   -----------------  -----------------  -----------------  -----------------
         N           -0.992788939629    -0.309742186017     0.000052601971    14.003074004430
         N            0.001101060371    -1.189810186017     0.000051601971    14.003074004430
         N           -0.631561939629     0.980312813983    -0.000015398029    14.003074004430
         N            0.702156060371     0.953601813983    -0.000071398029    14.003074004430
         C            1.065930360371    -0.398608486017    -0.000024698029    12.000000000000
         H           -1.968965939629    -0.591431186017     0.000104601971     1.007825032230
         H            2.075115060371    -0.697587186017    -0.000052398029     1.007825032230

  Basis Set: AUG-CC-PVTZ
    Blend: AUG-CC-PVTZ
  Basis Set: (AUG-CC-PVTZ AUX)
    Blend: AUG-CC-PVTZ-JKFIT
	 Reference Energy          =    -256.8402058996426831 [Eh]
	 Singles Energy            =      -0.0000000000000000 [Eh]
	 Same-Spin Energy          =      -0.2774850443390229 [Eh]
	 Opposite-Spin Energy      =      -0.7936756573314514 [Eh]
	 Correlation Energy        =      -1.0711607016704743 [Eh]
	 Total Energy              =    -257.9113666013131478 [Eh]

	 ================> DF-SCS-MP2 Energies <==================
	-----------------------------------------------------------
	 SCS Same-Spin Scale       =       0.3333333333333333 [-]
	 SCS Opposite-Spin Scale   =       1.2000000000000000 [-]
	 SCS Same-Spin Energy      =      -0.0924950147796743 [Eh]
	 SCS Opposite-Spin Energy  =      -0.9524107887977417 [Eh]
	 SCS Correlation Energy    =      -1.0449058035774159 [Eh]
	 SCS Total Energy          =    -257.8851117032201046 [Eh]
	-----------------------------------------------------------

  Dipole Moment: [D]
     X:    -1.1956      Y:    -2.0643      Z:     0.0001     Total:     2.3855

*** Psi4 exiting successfully. Buy a developer a beer!
