                               Psi4 1.3.2 release

  ==> Input File <==

--------------------------------------------------------------------------
#psi4
#
memory 32 gb

molecule  {
0 1
  N       -0.9921260    -0.3000080     0.0000520
  N        0.0318725    -1.1448536     0.0000482
  N       -0.6308990     0.9900470    -0.0000160
  N        0.7028190     0.9633360    -0.0000720
  C        1.0536040    -0.3405910    -0.0000270
  H       -1.9683030    -0.5816970     0.0001040
  H        2.0757780    -0.6878530    -0.0000530
units angstrom
no_reorient  #important for SAPT in psi4, default
symmetry c1  #important for SAPT in psi4, default
}

set PROPERTIES_ORIGIN ["COM"]
properties('MP2/aug-cc-pvtz', properties = ['dipole'])
--------------------------------------------------------------------------

    Molecular point group: c1
  Charge       = 0
  Multiplicity = 1
  Basis Set: AUG-CC-PVTZ
    Blend: AUG-CC-PVTZ
  Basis Set: (AUG-CC-PVTZ AUX)
    Blend: AUG-CC-PVTZ-JKFIT

    Orbital Energies [Eh]
    ---------------------

    Doubly Occupied:

       1A    -15.713346     2A    -15.685145     3A    -15.634840
       4A    -15.620190     5A    -11.306957     6A     -1.502227
       7A     -1.262506     8A     -1.191597     9A     -0.929197
      10A     -0.877787    11A     -0.783327    12A     -0.684769
      13A     -0.658702    14A     -0.572618    15A     -0.507817
      16A     -0.482677    17A     -0.447979    18A     -0.422435

  @DF-RHF Final Energy:  -256.84519326826563

   => Energetics <=

    Nuclear Repulsion Energy =            167.0767383649404962
    One-Electron Energy =                -679.2756343623567545
    Two-Electron Energy =                 255.3537027291506263
    Total Energy =                       -256.8451932682655752
  Basis Set: (AUG-CC-PVTZ AUX)
    Blend: AUG-CC-PVTZ-RI
    Molecular point group: c1

    Geometry (in Angstrom), charge = 0, multiplicity = 1:

       Center              X                  Y                   Z               Mass
    ------------   -----------------  -----------------  -----------------  -----------------
         N           -0.996583709696    -0.325059234907     0.000053453183    14.003074004430
         N            0.027414790304    -1.169904834907     0.000049653183    14.003074004430
         N           -0.635356709696     0.964995765093    -0.000014546817    14.003074004430
         N            0.698361290304     0.938284765093    -0.000070546817    14.003074004430
         C            1.049146290304    -0.365642234907    -0.000025546817    12.000000000000
         H           -1.972760709696    -0.606748234907     0.000105453183     1.007825032230
         H            2.071320290304    -0.712904234907    -0.000051546817     1.007825032230

  Basis Set: AUG-CC-PVTZ
    Blend: AUG-CC-PVTZ
  Basis Set: (AUG-CC-PVTZ AUX)
    Blend: AUG-CC-PVTZ-JKFIT
	 Reference Energy          =    -256.8451932682656320 [Eh]
	 Singles Energy            =      -0.0000000000000000 [Eh]
	 Same-Spin Energy          =      -0.2766934820797784 [Eh]
	 Opposite-Spin Energy      =      -0.7911306587139306 [Eh]
	 Correlation Energy        =      -1.0678241407937090 [Eh]
	 Total Energy              =    -257.9130174090593641 [Eh]

	 ================> DF-SCS-MP2 Energies <==================
	-----------------------------------------------------------
	 SCS Same-Spin Scale       =       0.3333333333333333 [-]
	 SCS Opposite-Spin Scale   =       1.2000000000000000 [-]
	 SCS Same-Spin Energy      =      -0.0922311606932595 [Eh]
	 SCS Opposite-Spin Energy  =      -0.9493567904567167 [Eh]
	 SCS Correlation Energy    =      -1.0415879511499762 [Eh]
	 SCS Total Energy          =    -257.8867812194155817 [Eh]
	-----------------------------------------------------------

  Dipole Moment: [D]
     X:    -1.2600      Y:    -2.0799      Z:     0.0001     Total:     2.4318

*** Psi4 exiting successfully. Buy a developer a beer!
