                               Psi4 1.3.2 release

  ==> Input File <==

--------------------------------------------------------------------------
#psi4
#
memory 32 gb

molecule  {
0 1
  N       -0.9921260    -0.3000080     0.0000520
  N        0.0017640    -1.1800760     0.0000510
  N       -0.6308990     0.9900470    -0.0000160
  N        0.7028190     0.9633360    -0.0000720
  C        0.9754451    -0.4029704    -0.0000212
  H       -1.9683030    -0.5816970     0.0001040
  H        2.0757780    -0.6878530    -0.0000530
units angstrom
no_reorient  #important for SAPT in psi4, default
symmetry c1  #important for SAPT in psi4, default
}

set PROPERTIES_ORIGIN ["COM"]
properties('MP2/aug-cc-pvtz', properties = ['dipole'])
--------------------------------------------------------------------------

    Molecular point group: c1
  Charge       = 0
  Multiplicity = 1
  Basis Set: AUG-CC-PVTZ
    Blend: AUG-CC-PVTZ
  Basis Set: (AUG-CC-PVTZ AUX)
    Blend: AUG-CC-PVTZ-JKFIT

    Orbital Energies [Eh]
    ---------------------

    Doubly Occupied:

       1A    -15.707045     2A    -15.691736     3A    -15.634519
       4A    -15.624827     5A    -11.309155     6A     -1.508737
       7A     -1.276311     8A     -1.189412     9A     -0.927339
      10A     -0.869597    11A     -0.785076    12A     -0.689946
      13A     -0.643019    14A     -0.560698    15A     -0.520149
      16A     -0.488190    17A     -0.453316    18A     -0.425868

  @DF-RHF Final Energy:  -256.83420567351556

   => Energetics <=

    Nuclear Repulsion Energy =            167.3514973636726779
    One-Electron Energy =                -679.7615228686703404
    Two-Electron Energy =                 255.5758198314820788
    Total Energy =                       -256.8342056735155552
  Basis Set: (AUG-CC-PVTZ AUX)
    Blend: AUG-CC-PVTZ-RI
    Molecular point group: c1

    Geometry (in Angstrom), charge = 0, multiplicity = 1:

       Center              X                  Y                   Z               Mass
    ------------   -----------------  -----------------  -----------------  -----------------
         N           -0.977169769552    -0.307326676075     0.000051899395    14.003074004430
         N            0.016720230448    -1.187394676075     0.000050899395    14.003074004430
         N           -0.615942769552     0.982728323925    -0.000016100605    14.003074004430
         N            0.717775230448     0.956017323925    -0.000072100605    14.003074004430
         C            0.990401330448    -0.410289076075    -0.000021300605    12.000000000000
         H           -1.953346769552    -0.589015676075     0.000103899395     1.007825032230
         H            2.090734230448    -0.695171676075    -0.000053100605     1.007825032230

  Basis Set: AUG-CC-PVTZ
    Blend: AUG-CC-PVTZ
  Basis Set: (AUG-CC-PVTZ AUX)
    Blend: AUG-CC-PVTZ-JKFIT
	 Reference Energy          =    -256.8342056735155552 [Eh]
	 Singles Energy            =      -0.0000000000000000 [Eh]
	 Same-Spin Energy          =      -0.2759178202541872 [Eh]
	 Opposite-Spin Energy      =      -0.7904825602708692 [Eh]
	 Correlation Energy        =      -1.0664003805250564 [Eh]
	 Total Energy              =    -257.9006060540406224 [Eh]

	 ================> DF-SCS-MP2 Energies <==================
	-----------------------------------------------------------
	 SCS Same-Spin Scale       =       0.3333333333333333 [-]
	 SCS Opposite-Spin Scale   =       1.2000000000000000 [-]
	 SCS Same-Spin Energy      =      -0.0919726067513957 [Eh]
	 SCS Opposite-Spin Energy  =      -0.9485790723250429 [Eh]
	 SCS Correlation Energy    =      -1.0405516790764386 [Eh]
	 SCS Total Energy          =    -257.8747573525919847 [Eh]
	-----------------------------------------------------------

  Dipole Moment: [D]
     X:    -1.3076      Y:    -2.0717      Z:     0.0001     Total:     2.4499

*** Psi4 exiting successfully. Buy a developer a beer!
