                               Psi4 1.4a3.dev225

  ==> Input File <==

--------------------------------------------------------------------------
#psi4
#
memory 32 gb

molecule  {
0 1
  N       -0.9921260    -0.3000080     0.0000520
  N        0.0017640    -1.1800760     0.0000510
  N       -0.6308990     0.9900470    -0.0000160
  N        0.6828230     0.9637365    -0.0000712
  C        1.0536040    -0.3405910    -0.0000270
  H       -1.9683030    -0.5816970     0.0001040
  H        2.0757780    -0.6878530    -0.0000530
units angstrom
no_reorient  #important for SAPT in psi4, default
symmetry c1  #important for SAPT in psi4, default
}

set PROPERTIES_ORIGIN ["COM"]
properties('MP2/aug-cc-pvtz', properties = ['dipole'])
--------------------------------------------------------------------------

    Molecular point group: c1
  Charge       = 0
  Multiplicity = 1
  Basis Set: AUG-CC-PVTZ
    Blend: AUG-CC-PVTZ
  Basis Set: (AUG-CC-PVTZ AUX)
    Blend: AUG-CC-PVTZ-JKFIT

    Orbital Energies [Eh]
    ---------------------

    Doubly Occupied:

       1A    -15.713415     2A    -15.683331     3A    -15.643273
       4A    -15.621682     5A    -11.313367     6A     -1.501768
       7A     -1.270110     8A     -1.180534     9A     -0.924150
      10A     -0.879206    11A     -0.782368    12A     -0.683590
      13A     -0.650349    14A     -0.579837    15A     -0.512001
      16A     -0.481247    17A     -0.453543    18A     -0.413204

  @DF-RHF Final Energy:  -256.84437289224064

   => Energetics <=

    Nuclear Repulsion Energy =            166.4780787403330748
    One-Electron Energy =                -678.0709517117156793
    Two-Electron Energy =                 254.7485000791419338
    Total Energy =                       -256.8443728922406422
  Basis Set: (AUG-CC-PVTZ AUX)
    Blend: AUG-CC-PVTZ-RI
    Molecular point group: c1

    Geometry (in Angstrom), charge = 0, multiplicity = 1:

       Center              X                  Y                   Z               Mass
    ------------   -----------------  -----------------  -----------------  -----------------
         N           -0.986564609312    -0.318096105614     0.000052733312    14.003074004430
         N            0.007325390688    -1.198164105614     0.000051733312    14.003074004430
         N           -0.625337609312     0.971958894386    -0.000015266688    14.003074004430
         N            0.688384390688     0.945648394386    -0.000070466688    14.003074004430
         C            1.059165390688    -0.358679105614    -0.000026266688    12.000000000000
         H           -1.962741609312    -0.599785105614     0.000104733312     1.007825032230
         H            2.081339390688    -0.705941105614    -0.000052266688     1.007825032230

  Basis Set: AUG-CC-PVTZ
    Blend: AUG-CC-PVTZ
  Basis Set: (AUG-CC-PVTZ AUX)
    Blend: AUG-CC-PVTZ-JKFIT
	 Reference Energy          =    -256.8443728922406422 [Eh]
	 Singles Energy            =      -0.0000000000000000 [Eh]
	 Same-Spin Energy          =      -0.2773710235607767 [Eh]
	 Opposite-Spin Energy      =      -0.7924475157525454 [Eh]
	 Correlation Energy        =      -1.0698185393133222 [Eh]
	 Total Energy              =    -257.9141914315539452 [Eh]

	 ================> DF-SCS-MP2 Energies <==================
	-----------------------------------------------------------
	 SCS Same-Spin Scale       =       0.3333333333333333 [-]
	 SCS Opposite-Spin Scale   =       1.2000000000000000 [-]
	 SCS Same-Spin Energy      =      -0.0924570078535922 [Eh]
	 SCS Opposite-Spin Energy  =      -0.9509370189030544 [Eh]
	 SCS Correlation Energy    =      -1.0433940267566466 [Eh]
	 SCS Total Energy          =    -257.8877669189972721 [Eh]
	-----------------------------------------------------------

  Dipole Moment: [D]
     X:    -1.2053      Y:    -2.0020      Z:     0.0001     Total:     2.3368

*** Psi4 exiting successfully. Buy a developer a beer!
