                               Psi4 1.3.2 release

  ==> Input File <==

--------------------------------------------------------------------------
#psi4
#
memory 32 gb

molecule  {
0 1
  N       -0.9921260    -0.3000080     0.0000520
  N        0.0017640    -1.1800760     0.0000510
  N       -0.6308990     0.9900470    -0.0000160
  N        0.7028190     0.9633360    -0.0000720
  C        1.0536040    -0.3405910    -0.0000270
  H       -1.9683030    -0.5816970     0.0001040
  H        1.8864078    -0.6235185    -0.0000482
units angstrom
no_reorient  #important for SAPT in psi4, default
symmetry c1  #important for SAPT in psi4, default
}

set PROPERTIES_ORIGIN ["COM"]
properties('MP2/aug-cc-pvtz', properties = ['dipole'])
--------------------------------------------------------------------------

    Molecular point group: c1
  Charge       = 0
  Multiplicity = 1
  Basis Set: AUG-CC-PVTZ
    Blend: AUG-CC-PVTZ
  Basis Set: (AUG-CC-PVTZ AUX)
    Blend: AUG-CC-PVTZ-JKFIT

    Orbital Energies [Eh]
    ---------------------

    Doubly Occupied:

       1A    -15.716837     2A    -15.684247     3A    -15.642570
       4A    -15.622815     5A    -11.292124     6A     -1.498153
       7A     -1.264741     8A     -1.187588     9A     -0.932393
      10A     -0.905775    11A     -0.788420    12A     -0.684782
      13A     -0.682087    14A     -0.582652    15A     -0.510531
      16A     -0.485374    17A     -0.450817    18A     -0.414720

  @DF-RHF Final Energy:  -256.80551524385959

   => Energetics <=

    Nuclear Repulsion Energy =            167.2591739346418365
    One-Electron Energy =                -679.4361250695296803
    Two-Electron Energy =                 255.3714358910282556
    Total Energy =                       -256.8055152438596451
  Basis Set: (AUG-CC-PVTZ AUX)
    Blend: AUG-CC-PVTZ-RI
    Molecular point group: c1

    Geometry (in Angstrom), charge = 0, multiplicity = 1:

       Center              X                  Y                   Z               Mass
    ------------   -----------------  -----------------  -----------------  -----------------
         N           -0.987837721617    -0.318941906351     0.000052824203    14.003074004430
         N            0.006052278383    -1.199009906351     0.000051824203    14.003074004430
         N           -0.626610721617     0.971113093649    -0.000015175797    14.003074004430
         N            0.707107278383     0.944402093649    -0.000071175797    14.003074004430
         C            1.057892278383    -0.359524906351    -0.000026175797    12.000000000000
         H           -1.964014721617    -0.600630906351     0.000104824203     1.007825032230
         H            1.890696078383    -0.642452406351    -0.000047375797     1.007825032230

  Basis Set: AUG-CC-PVTZ
    Blend: AUG-CC-PVTZ
  Basis Set: (AUG-CC-PVTZ AUX)
    Blend: AUG-CC-PVTZ-JKFIT
	 Reference Energy          =    -256.8055152438595883 [Eh]
	 Singles Energy            =      -0.0000000000000000 [Eh]
	 Same-Spin Energy          =      -0.2777242840651403 [Eh]
	 Opposite-Spin Energy      =      -0.7936841111459052 [Eh]
	 Correlation Energy        =      -1.0714083952110456 [Eh]
	 Total Energy              =    -257.8769236390706396 [Eh]

	 ================> DF-SCS-MP2 Energies <==================
	-----------------------------------------------------------
	 SCS Same-Spin Scale       =       0.3333333333333333 [-]
	 SCS Opposite-Spin Scale   =       1.2000000000000000 [-]
	 SCS Same-Spin Energy      =      -0.0925747613550467 [Eh]
	 SCS Opposite-Spin Energy  =      -0.9524209333750862 [Eh]
	 SCS Correlation Energy    =      -1.0449956947301329 [Eh]
	 SCS Total Energy          =    -257.8505109385897072 [Eh]
	-----------------------------------------------------------

  Dipole Moment: [D]
     X:    -1.3081      Y:    -2.0047      Z:     0.0001     Total:     2.3937

*** Psi4 exiting successfully. Buy a developer a beer!
