                               Psi4 1.3.2 release

  ==> Input File <==

--------------------------------------------------------------------------
#psi4
#
memory 32 gb

molecule  {
0 1
  N       -0.9921260    -0.3000080     0.0000520
  N        0.0017640    -1.1800760     0.0000510
  N       -0.6308990     0.9900470    -0.0000160
  N        0.7028190     0.9633360    -0.0000720
  C        1.0536040    -0.3405910    -0.0000270
  H       -2.0643828    -0.6094221     0.0001091
  H        2.0757780    -0.6878530    -0.0000530
units angstrom
no_reorient  #important for SAPT in psi4, default
symmetry c1  #important for SAPT in psi4, default
}

set PROPERTIES_ORIGIN ["COM"]
properties('MP2/aug-cc-pvtz', properties = ['dipole'])
--------------------------------------------------------------------------

    Molecular point group: c1
  Charge       = 0
  Multiplicity = 1
  Basis Set: AUG-CC-PVTZ
    Blend: AUG-CC-PVTZ
  Basis Set: (AUG-CC-PVTZ AUX)
    Blend: AUG-CC-PVTZ-JKFIT

    Orbital Energies [Eh]
    ---------------------

    Doubly Occupied:

       1A    -15.723437     2A    -15.682989     3A    -15.641083
       4A    -15.621441     5A    -11.311926     6A     -1.495154
       7A     -1.261363     8A     -1.175107     9A     -0.908467
      10A     -0.874869    11A     -0.768579    12A     -0.680159
      13A     -0.642259    14A     -0.573070    15A     -0.509164
      16A     -0.483927    17A     -0.449041    18A     -0.412427

  @DF-RHF Final Energy:  -256.83173639428816

   => Energetics <=

    Nuclear Repulsion Energy =            165.5934968964707537
    One-Electron Energy =                -676.4215442561487635
    Two-Electron Energy =                 253.9963109653898812
    Total Energy =                       -256.8317363942881002
  Basis Set: (AUG-CC-PVTZ AUX)
    Blend: AUG-CC-PVTZ-RI
    Molecular point group: c1

    Geometry (in Angstrom), charge = 0, multiplicity = 1:

       Center              X                  Y                   Z               Mass
    ------------   -----------------  -----------------  -----------------  -----------------
         N           -0.989180334184    -0.317617007157     0.000052819886    14.003074004430
         N            0.004709665816    -1.197685007157     0.000051819886    14.003074004430
         N           -0.627953334184     0.972437992843    -0.000015180114    14.003074004430
         N            0.705764665816     0.945726992843    -0.000071180114    14.003074004430
         C            1.056549665816    -0.358200007157    -0.000026180114    12.000000000000
         H           -2.061437134184    -0.627031107157     0.000109919886     1.007825032230
         H            2.078723665816    -0.705462007157    -0.000052180114     1.007825032230

  Basis Set: AUG-CC-PVTZ
    Blend: AUG-CC-PVTZ
  Basis Set: (AUG-CC-PVTZ AUX)
    Blend: AUG-CC-PVTZ-JKFIT
	 Reference Energy          =    -256.8317363942881570 [Eh]
	 Singles Energy            =      -0.0000000000000000 [Eh]
	 Same-Spin Energy          =      -0.2788240192983669 [Eh]
	 Opposite-Spin Energy      =      -0.7956441789735533 [Eh]
	 Correlation Energy        =      -1.0744681982719202 [Eh]
	 Total Energy              =    -257.9062045925600728 [Eh]

	 ================> DF-SCS-MP2 Energies <==================
	-----------------------------------------------------------
	 SCS Same-Spin Scale       =       0.3333333333333333 [-]
	 SCS Opposite-Spin Scale   =       1.2000000000000000 [-]
	 SCS Same-Spin Energy      =      -0.0929413397661223 [Eh]
	 SCS Opposite-Spin Energy  =      -0.9547730147682639 [Eh]
	 SCS Correlation Energy    =      -1.0477143545343863 [Eh]
	 SCS Total Energy          =    -257.8794507488225349 [Eh]
	-----------------------------------------------------------

  Dipole Moment: [D]
     X:    -1.3961      Y:    -2.0726      Z:     0.0001     Total:     2.4989

*** Psi4 exiting successfully. Buy a developer a beer!
