                               Psi4 1.3.2 release

  ==> Input File <==

--------------------------------------------------------------------------
#psi4
#
memory 32 gb

molecule  {
0 1
  N       -0.9921260    -0.3000080     0.0000520
  N        0.0883115    -1.0713651     0.0000431
  N       -0.6308990     0.9900470    -0.0000160
  N        0.7028190     0.9633360    -0.0000720
  C        1.0536040    -0.3405910    -0.0000270
  H       -1.9683030    -0.5816970     0.0001040
  H        2.0757780    -0.6878530    -0.0000530
units angstrom
no_reorient  #important for SAPT in psi4, default
symmetry c1  #important for SAPT in psi4, default
}

set PROPERTIES_ORIGIN ["COM"]
properties('MP2/aug-cc-pvtz', properties = ['dipole'])
--------------------------------------------------------------------------

    Molecular point group: c1
  Charge       = 0
  Multiplicity = 1
  Basis Set: AUG-CC-PVTZ
    Blend: AUG-CC-PVTZ
  Basis Set: (AUG-CC-PVTZ AUX)
    Blend: AUG-CC-PVTZ-JKFIT

    Orbital Energies [Eh]
    ---------------------

    Doubly Occupied:

       1A    -15.706546     2A    -15.685114     3A    -15.618287
       4A    -15.614310     5A    -11.293268     6A     -1.511354
       7A     -1.259690     8A     -1.209522     9A     -0.932916
      10A     -0.879759    11A     -0.788687    12A     -0.691197
      13A     -0.675783    14A     -0.565043    15A     -0.500693
      16A     -0.473418    17A     -0.444419    18A     -0.437972

  @DF-RHF Final Energy:  -256.83282834512607

   => Energetics <=

    Nuclear Repulsion Energy =            169.1286398557719792
    One-Electron Energy =                -683.3469783114659322
    Two-Electron Energy =                 257.3855101105678500
    Total Energy =                       -256.8328283451260745
  Basis Set: (AUG-CC-PVTZ AUX)
    Blend: AUG-CC-PVTZ-RI
    Molecular point group: c1

    Geometry (in Angstrom), charge = 0, multiplicity = 1:

       Center              X                  Y                   Z               Mass
    ------------   -----------------  -----------------  -----------------  -----------------
         N           -1.007869482561    -0.339754295402     0.000054473000    14.003074004430
         N            0.072568017439    -1.111111395402     0.000045573000    14.003074004430
         N           -0.646642482561     0.950300704598    -0.000013527000    14.003074004430
         N            0.687075517439     0.923589704598    -0.000069527000    14.003074004430
         C            1.037860517439    -0.380337295402    -0.000024527000    12.000000000000
         H           -1.984046482561    -0.621443295402     0.000106473000     1.007825032230
         H            2.060034517439    -0.727599295402    -0.000050527000     1.007825032230

  Basis Set: AUG-CC-PVTZ
    Blend: AUG-CC-PVTZ
  Basis Set: (AUG-CC-PVTZ AUX)
    Blend: AUG-CC-PVTZ-JKFIT
	 Reference Energy          =    -256.8328283451260745 [Eh]
	 Singles Energy            =      -0.0000000000000000 [Eh]
	 Same-Spin Energy          =      -0.2746489939160818 [Eh]
	 Opposite-Spin Energy      =      -0.7868751346908276 [Eh]
	 Correlation Energy        =      -1.0615241286069095 [Eh]
	 Total Energy              =    -257.8943524737329653 [Eh]

	 ================> DF-SCS-MP2 Energies <==================
	-----------------------------------------------------------
	 SCS Same-Spin Scale       =       0.3333333333333333 [-]
	 SCS Opposite-Spin Scale   =       1.2000000000000000 [-]
	 SCS Same-Spin Energy      =      -0.0915496646386939 [Eh]
	 SCS Opposite-Spin Energy  =      -0.9442501616289931 [Eh]
	 SCS Correlation Energy    =      -1.0357998262676871 [Eh]
	 SCS Total Energy          =    -257.8686281713937660 [Eh]
	-----------------------------------------------------------

  Dipole Moment: [D]
     X:    -1.2968      Y:    -2.2030      Z:     0.0001     Total:     2.5564

*** Psi4 exiting successfully. Buy a developer a beer!
