                               Psi4 1.3.2 release

  ==> Input File <==

--------------------------------------------------------------------------
#psi4
#
memory 32 gb

molecule  {
0 1
  N       -0.9921260    -0.3000080     0.0000520
  N        0.0017640    -1.1800760     0.0000510
  N       -0.5417892     0.9617066    -0.0000185
  N        0.7028190     0.9633360    -0.0000720
  C        1.0536040    -0.3405910    -0.0000270
  H       -1.9683030    -0.5816970     0.0001040
  H        2.0757780    -0.6878530    -0.0000530
units angstrom
no_reorient  #important for SAPT in psi4, default
symmetry c1  #important for SAPT in psi4, default
}

set PROPERTIES_ORIGIN ["COM"]
properties('MP2/aug-cc-pvtz', properties = ['dipole'])
--------------------------------------------------------------------------

    Molecular point group: c1
  Charge       = 0
  Multiplicity = 1
  Basis Set: AUG-CC-PVTZ
    Blend: AUG-CC-PVTZ
  Basis Set: (AUG-CC-PVTZ AUX)
    Blend: AUG-CC-PVTZ-JKFIT

    Orbital Energies [Eh]
    ---------------------

    Doubly Occupied:

       1A    -15.704935     2A    -15.672571     3A    -15.640760
       4A    -15.620126     5A    -11.309009     6A     -1.517897
       7A     -1.294486     8A     -1.171639     9A     -0.924961
      10A     -0.886627    11A     -0.789545    12A     -0.690947
      13A     -0.649792    14A     -0.587998    15A     -0.510835
      16A     -0.469841    17A     -0.469437    18A     -0.407051

  @DF-RHF Final Energy:  -256.84453109893866

   => Energetics <=

    Nuclear Repulsion Energy =            168.2335585312841317
    One-Electron Energy =                -681.5192616638063328
    Two-Electron Energy =                 256.4411720335835980
    Total Energy =                       -256.8445310989386599
  Basis Set: (AUG-CC-PVTZ AUX)
    Blend: AUG-CC-PVTZ-RI
    Molecular point group: c1

    Geometry (in Angstrom), charge = 0, multiplicity = 1:

       Center              X                  Y                   Z               Mass
    ------------   -----------------  -----------------  -----------------  -----------------
         N           -1.008381850531    -0.312348957909     0.000053393194    14.003074004430
         N           -0.014491850531    -1.192416957909     0.000052393194    14.003074004430
         N           -0.558045050531     0.949365642091    -0.000017106806    14.003074004430
         N            0.686563149469     0.950995042091    -0.000070606806    14.003074004430
         C            1.037348149469    -0.352931957909    -0.000025606806    12.000000000000
         H           -1.984558850531    -0.594037957909     0.000105393194     1.007825032230
         H            2.059522149469    -0.700193957909    -0.000051606806     1.007825032230

  Basis Set: AUG-CC-PVTZ
    Blend: AUG-CC-PVTZ
  Basis Set: (AUG-CC-PVTZ AUX)
    Blend: AUG-CC-PVTZ-JKFIT
	 Reference Energy          =    -256.8445310989386599 [Eh]
	 Singles Energy            =      -0.0000000000000000 [Eh]
	 Same-Spin Energy          =      -0.2751280457356611 [Eh]
	 Opposite-Spin Energy      =      -0.7873302704573140 [Eh]
	 Correlation Energy        =      -1.0624583161929750 [Eh]
	 Total Energy              =    -257.9069894151316475 [Eh]

	 ================> DF-SCS-MP2 Energies <==================
	-----------------------------------------------------------
	 SCS Same-Spin Scale       =       0.3333333333333333 [-]
	 SCS Opposite-Spin Scale   =       1.2000000000000000 [-]
	 SCS Same-Spin Energy      =      -0.0917093485785537 [Eh]
	 SCS Opposite-Spin Energy  =      -0.9447963245487767 [Eh]
	 SCS Correlation Energy    =      -1.0365056731273303 [Eh]
	 SCS Total Energy          =    -257.8810367720660111 [Eh]
	-----------------------------------------------------------

  Dipole Moment: [D]
     X:    -1.2629      Y:    -1.8471      Z:     0.0001     Total:     2.2375

*** Psi4 exiting successfully. Buy a developer a beer!
