                               Psi4 1.3.2 release

  ==> Input File <==

--------------------------------------------------------------------------
#psi4
#
memory 32 gb

molecule  {
0 1
  N       -0.9921260    -0.3000080     0.0000520
  N        0.0169719    -1.1625962     0.0000497
  N       -0.6308990     0.9900470    -0.0000160
  N        0.7028190     0.9633360    -0.0000720
  C        1.0536040    -0.3405910    -0.0000270
  H       -1.9683030    -0.5816970     0.0001040
  H        2.0757780    -0.6878530    -0.0000530
units angstrom
no_reorient  #important for SAPT in psi4, default
symmetry c1  #important for SAPT in psi4, default
}

set PROPERTIES_ORIGIN ["COM"]
properties('MP2/aug-cc-pvtz', properties = ['dipole'])
--------------------------------------------------------------------------

    Molecular point group: c1
  Charge       = 0
  Multiplicity = 1
  Basis Set: AUG-CC-PVTZ
    Blend: AUG-CC-PVTZ
  Basis Set: (AUG-CC-PVTZ AUX)
    Blend: AUG-CC-PVTZ-JKFIT

    Orbital Energies [Eh]
    ---------------------

    Doubly Occupied:

       1A    -15.715144     2A    -15.684992     3A    -15.638700
       4A    -15.621623     5A    -11.310169     6A     -1.500346
       7A     -1.263777     8A     -1.187061     9A     -0.928265
      10A     -0.877396    11A     -0.781744    12A     -0.683504
      13A     -0.654563    14A     -0.574655    15A     -0.509312
      16A     -0.484245    17A     -0.449512    18A     -0.418287

  @DF-RHF Final Energy:  -256.84450060024346

   => Energetics <=

    Nuclear Repulsion Energy =            166.5986680868986980
    One-Electron Energy =                -678.3197456986520137
    Two-Electron Energy =                 254.8765770115098803
    Total Energy =                       -256.8445006002434639
  Basis Set: (AUG-CC-PVTZ AUX)
    Blend: AUG-CC-PVTZ-RI
    Molecular point group: c1

    Geometry (in Angstrom), charge = 0, multiplicity = 1:

       Center              X                  Y                   Z               Mass
    ------------   -----------------  -----------------  -----------------  -----------------
         N           -0.993604124884    -0.321511352173     0.000053153237    14.003074004430
         N            0.015493775116    -1.184099552173     0.000050853237    14.003074004430
         N           -0.632377124884     0.968543647827    -0.000014846763    14.003074004430
         N            0.701340875116     0.941832647827    -0.000070846763    14.003074004430
         C            1.052125875116    -0.362094352173    -0.000025846763    12.000000000000
         H           -1.969781124884    -0.603200352173     0.000105153237     1.007825032230
         H            2.074299875116    -0.709356352173    -0.000051846763     1.007825032230

  Basis Set: AUG-CC-PVTZ
    Blend: AUG-CC-PVTZ
  Basis Set: (AUG-CC-PVTZ AUX)
    Blend: AUG-CC-PVTZ-JKFIT
	 Reference Energy          =    -256.8445006002434639 [Eh]
	 Singles Energy            =      -0.0000000000000000 [Eh]
	 Same-Spin Energy          =      -0.2772797447618272 [Eh]
	 Opposite-Spin Energy      =      -0.7923794739063564 [Eh]
	 Correlation Energy        =      -1.0696592186681837 [Eh]
	 Total Energy              =    -257.9141598189116280 [Eh]

	 ================> DF-SCS-MP2 Energies <==================
	-----------------------------------------------------------
	 SCS Same-Spin Scale       =       0.3333333333333333 [-]
	 SCS Opposite-Spin Scale   =       1.2000000000000000 [-]
	 SCS Same-Spin Energy      =      -0.0924265815872757 [Eh]
	 SCS Opposite-Spin Energy  =      -0.9508553686876277 [Eh]
	 SCS Correlation Energy    =      -1.0432819502749033 [Eh]
	 SCS Total Energy          =    -257.8877825505183523 [Eh]
	-----------------------------------------------------------

  Dipole Moment: [D]
     X:    -1.2491      Y:    -2.0519      Z:     0.0001     Total:     2.4022

*** Psi4 exiting successfully. Buy a developer a beer!
