                               Psi4 1.3.2 release

  ==> Input File <==

--------------------------------------------------------------------------
#psi4
#
memory 32 gb

molecule  {
0 1
  N       -0.9921260    -0.3000080     0.0000520
  N        0.0017640    -1.1800760     0.0000510
  N       -0.6263848     0.8504892    -0.0000098
  N        0.7028190     0.9633360    -0.0000720
  C        1.0536040    -0.3405910    -0.0000270
  H       -1.9683030    -0.5816970     0.0001040
  H        2.0757780    -0.6878530    -0.0000530
units angstrom
no_reorient  #important for SAPT in psi4, default
symmetry c1  #important for SAPT in psi4, default
}

set PROPERTIES_ORIGIN ["COM"]
properties('MP2/aug-cc-pvtz', properties = ['dipole'])
--------------------------------------------------------------------------

    Molecular point group: c1
  Charge       = 0
  Multiplicity = 1
  Basis Set: AUG-CC-PVTZ
    Blend: AUG-CC-PVTZ
  Basis Set: (AUG-CC-PVTZ AUX)
    Blend: AUG-CC-PVTZ-JKFIT

    Orbital Energies [Eh]
    ---------------------

    Doubly Occupied:

       1A    -15.724886     2A    -15.665173     3A    -15.621724
       4A    -15.614141     5A    -11.313332     6A     -1.549719
       7A     -1.256929     8A     -1.216806     9A     -0.935725
      10A     -0.893022    11A     -0.788688    12A     -0.712356
      13A     -0.648705    14A     -0.578238    15A     -0.491062
      16A     -0.483793    17A     -0.446412    18A     -0.424871

  @DF-RHF Final Energy:  -256.83886923835593

   => Energetics <=

    Nuclear Repulsion Energy =            169.5450717505885905
    One-Electron Energy =                -684.0367140715878804
    Two-Electron Energy =                 257.6527730826433640
    Total Energy =                       -256.8388692383559260
  Basis Set: (AUG-CC-PVTZ AUX)
    Blend: AUG-CC-PVTZ-RI
    Molecular point group: c1

    Geometry (in Angstrom), charge = 0, multiplicity = 1:

       Center              X                  Y                   Z               Mass
    ------------   -----------------  -----------------  -----------------  -----------------
         N           -0.991465768973    -0.290109472533     0.000051653506    14.003074004430
         N            0.002424231027    -1.170177472533     0.000050653506    14.003074004430
         N           -0.625724568973     0.860387727467    -0.000010146494    14.003074004430
         N            0.703479231027     0.973234527467    -0.000072346494    14.003074004430
         C            1.054264231027    -0.330692472533    -0.000027346494    12.000000000000
         H           -1.967642768973    -0.571798472533     0.000103653506     1.007825032230
         H            2.076438231027    -0.677954472533    -0.000053346494     1.007825032230

  Basis Set: AUG-CC-PVTZ
    Blend: AUG-CC-PVTZ
  Basis Set: (AUG-CC-PVTZ AUX)
    Blend: AUG-CC-PVTZ-JKFIT
	 Reference Energy          =    -256.8388692383559260 [Eh]
	 Singles Energy            =      -0.0000000000000000 [Eh]
	 Same-Spin Energy          =      -0.2740405087458880 [Eh]
	 Opposite-Spin Energy      =      -0.7844224149793665 [Eh]
	 Correlation Energy        =      -1.0584629237252545 [Eh]
	 Total Energy              =    -257.8973321620811703 [Eh]

	 ================> DF-SCS-MP2 Energies <==================
	-----------------------------------------------------------
	 SCS Same-Spin Scale       =       0.3333333333333333 [-]
	 SCS Opposite-Spin Scale   =       1.2000000000000000 [-]
	 SCS Same-Spin Energy      =      -0.0913468362486293 [Eh]
	 SCS Opposite-Spin Energy  =      -0.9413068979752397 [Eh]
	 SCS Correlation Energy    =      -1.0326537342238691 [Eh]
	 SCS Total Energy          =    -257.8715229725797826 [Eh]
	-----------------------------------------------------------

  Dipole Moment: [D]
     X:    -1.4529      Y:    -1.9167      Z:     0.0001     Total:     2.4051

*** Psi4 exiting successfully. Buy a developer a beer!
