                               Psi4 1.4a3.dev225

  ==> Input File <==

--------------------------------------------------------------------------
#psi4
#
memory 32 gb

molecule  {
0 1
  N       -0.9921260    -0.3000080     0.0000520
  N        0.0017640    -1.1800760     0.0000510
  N       -0.6308990     0.9900470    -0.0000160
  N        0.7028190     0.9633360    -0.0000720
  C        1.0406147    -0.2923077    -0.0000287
  H       -1.9683030    -0.5816970     0.0001040
  H        2.0757780    -0.6878530    -0.0000530
units angstrom
no_reorient  #important for SAPT in psi4, default
symmetry c1  #important for SAPT in psi4, default
}

set PROPERTIES_ORIGIN ["COM"]
properties('MP2/aug-cc-pvtz', properties = ['dipole'])
--------------------------------------------------------------------------

    Molecular point group: c1
  Charge       = 0
  Multiplicity = 1
  Basis Set: AUG-CC-PVTZ
    Blend: AUG-CC-PVTZ
  Basis Set: (AUG-CC-PVTZ AUX)
    Blend: AUG-CC-PVTZ-JKFIT

    Orbital Energies [Eh]
    ---------------------

    Doubly Occupied:

       1A    -15.722260     2A    -15.682349     3A    -15.642439
       4A    -15.619454     5A    -11.311934     6A     -1.503283
       7A     -1.271326     8A     -1.184334     9A     -0.937200
      10A     -0.872018    11A     -0.780937    12A     -0.685239
      13A     -0.638966    14A     -0.578462    15A     -0.508627
      16A     -0.490001    17A     -0.458636    18A     -0.410861

  @DF-RHF Final Energy:  -256.83884879226673

   => Energetics <=

    Nuclear Repulsion Energy =            166.7109369494822317
    One-Electron Energy =                -678.5029196258648199
    Two-Electron Energy =                 254.9531338841158572
    Total Energy =                       -256.8388487922667309
  Basis Set: (AUG-CC-PVTZ AUX)
    Blend: AUG-CC-PVTZ-RI
    Molecular point group: c1

    Geometry (in Angstrom), charge = 0, multiplicity = 1:

       Center              X                  Y                   Z               Mass
    ------------   -----------------  -----------------  -----------------  -----------------
         N           -0.988337242593    -0.326289853981     0.000053184596    14.003074004430
         N            0.005552757407    -1.206357853981     0.000052184596    14.003074004430
         N           -0.627110242593     0.963765146019    -0.000014815404    14.003074004430
         N            0.706607757407     0.937054146019    -0.000070815404    14.003074004430
         C            1.044403457407    -0.318589553981    -0.000027515404    12.000000000000
         H           -1.964514242593    -0.607978853981     0.000105184596     1.007825032230
         H            2.079566757407    -0.714134853981    -0.000051815404     1.007825032230

  Basis Set: AUG-CC-PVTZ
    Blend: AUG-CC-PVTZ
  Basis Set: (AUG-CC-PVTZ AUX)
    Blend: AUG-CC-PVTZ-JKFIT
	 Reference Energy          =    -256.8388487922667309 [Eh]
	 Singles Energy            =      -0.0000000000000000 [Eh]
	 Same-Spin Energy          =      -0.2783569758233315 [Eh]
	 Opposite-Spin Energy      =      -0.7940743826972889 [Eh]
	 Correlation Energy        =      -1.0724313585206204 [Eh]
	 Total Energy              =    -257.9112801507873769 [Eh]

	 ================> DF-SCS-MP2 Energies <==================
	-----------------------------------------------------------
	 SCS Same-Spin Scale       =       0.3333333333333333 [-]
	 SCS Opposite-Spin Scale   =       1.2000000000000000 [-]
	 SCS Same-Spin Energy      =      -0.0927856586077772 [Eh]
	 SCS Opposite-Spin Energy  =      -0.9528892592367466 [Eh]
	 SCS Correlation Energy    =      -1.0456749178445237 [Eh]
	 SCS Total Energy          =    -257.8845237101112389 [Eh]
	-----------------------------------------------------------

  Dipole Moment: [D]
     X:    -1.2766      Y:    -1.9741      Z:     0.0001     Total:     2.3509

*** Psi4 exiting successfully. Buy a developer a beer!
