                               Psi4 1.4a3.dev225

  ==> Input File <==

--------------------------------------------------------------------------
#psi4
#
memory 32 gb

molecule  {
0 1
  N       -0.9921260    -0.3000080     0.0000520
  N       -0.0132095    -1.1668173     0.0000510
  N       -0.6308990     0.9900470    -0.0000160
  N        0.7028190     0.9633360    -0.0000720
  C        1.0536040    -0.3405910    -0.0000270
  H       -1.9683030    -0.5816970     0.0001040
  H        2.0757780    -0.6878530    -0.0000530
units angstrom
no_reorient  #important for SAPT in psi4, default
symmetry c1  #important for SAPT in psi4, default
}

set PROPERTIES_ORIGIN ["COM"]
properties('MP2/aug-cc-pvtz', properties = ['dipole'])
--------------------------------------------------------------------------

    Molecular point group: c1
  Charge       = 0
  Multiplicity = 1
  Basis Set: AUG-CC-PVTZ
    Blend: AUG-CC-PVTZ
  Basis Set: (AUG-CC-PVTZ AUX)
    Blend: AUG-CC-PVTZ-JKFIT

    Orbital Energies [Eh]
    ---------------------

    Doubly Occupied:

       1A    -15.718219     2A    -15.681149     3A    -15.641252
       4A    -15.623267     5A    -11.312467     6A     -1.503619
       7A     -1.269478     8A     -1.181035     9A     -0.927276
      10A     -0.880332    11A     -0.780622    12A     -0.685498
      13A     -0.654284    14A     -0.575015    15A     -0.508527
      16A     -0.485357    17A     -0.453392    18A     -0.411229

  @DF-RHF Final Energy:  -256.84348186067592

   => Energetics <=

    Nuclear Repulsion Energy =            166.5221818363461637
    One-Electron Energy =                -678.1472927577503924
    Two-Electron Energy =                 254.7816290607283349
    Total Energy =                       -256.8434818606759222
  Basis Set: (AUG-CC-PVTZ AUX)
    Blend: AUG-CC-PVTZ-RI
    Molecular point group: c1

    Geometry (in Angstrom), charge = 0, multiplicity = 1:

       Center              X                  Y                   Z               Mass
    ------------   -----------------  -----------------  -----------------  -----------------
         N           -0.987568928918    -0.320667283783     0.000052893284    14.003074004430
         N           -0.008652428918    -1.187476583783     0.000051893284    14.003074004430
         N           -0.626341928918     0.969387716217    -0.000015106716    14.003074004430
         N            0.707376071082     0.942676716217    -0.000071106716    14.003074004430
         C            1.058161071082    -0.361250283783    -0.000026106716    12.000000000000
         H           -1.963745928918    -0.602356283783     0.000104893284     1.007825032230
         H            2.080335071082    -0.708512283783    -0.000052106716     1.007825032230

  Basis Set: AUG-CC-PVTZ
    Blend: AUG-CC-PVTZ
  Basis Set: (AUG-CC-PVTZ AUX)
    Blend: AUG-CC-PVTZ-JKFIT
	 Reference Energy          =    -256.8434818606759222 [Eh]
	 Singles Energy            =      -0.0000000000000000 [Eh]
	 Same-Spin Energy          =      -0.2778157374813932 [Eh]
	 Opposite-Spin Energy      =      -0.7930305919007568 [Eh]
	 Correlation Energy        =      -1.0708463293821500 [Eh]
	 Total Energy              =    -257.9143281900580860 [Eh]

	 ================> DF-SCS-MP2 Energies <==================
	-----------------------------------------------------------
	 SCS Same-Spin Scale       =       0.3333333333333333 [-]
	 SCS Opposite-Spin Scale   =       1.2000000000000000 [-]
	 SCS Same-Spin Energy      =      -0.0926052458271311 [Eh]
	 SCS Opposite-Spin Energy  =      -0.9516367102809080 [Eh]
	 SCS Correlation Energy    =      -1.0442419561080392 [Eh]
	 SCS Total Energy          =    -257.8877238167839892 [Eh]
	-----------------------------------------------------------

  Dipole Moment: [D]
     X:    -1.2393      Y:    -2.0501      Z:     0.0001     Total:     2.3956

*** Psi4 exiting successfully. Buy a developer a beer!
