                               Psi4 1.3.2 release

  ==> Input File <==

--------------------------------------------------------------------------
#psi4
#
memory 32 gb

molecule  {
0 1
  N       -0.9921260    -0.3000080     0.0000520
  N        0.0017640    -1.1800760     0.0000510
  N       -0.6208007     1.1293122    -0.0000228
  N        0.7028190     0.9633360    -0.0000720
  C        1.0536040    -0.3405910    -0.0000270
  H       -1.9683030    -0.5816970     0.0001040
  H        2.0757780    -0.6878530    -0.0000530
units angstrom
no_reorient  #important for SAPT in psi4, default
symmetry c1  #important for SAPT in psi4, default
}

set PROPERTIES_ORIGIN ["COM"]
properties('MP2/aug-cc-pvtz', properties = ['dipole'])
--------------------------------------------------------------------------

    Molecular point group: c1
  Charge       = 0
  Multiplicity = 1
  Basis Set: AUG-CC-PVTZ
    Blend: AUG-CC-PVTZ
  Basis Set: (AUG-CC-PVTZ AUX)
    Blend: AUG-CC-PVTZ-JKFIT

    Orbital Energies [Eh]
    ---------------------

    Doubly Occupied:

       1A    -15.705390     2A    -15.701404     3A    -15.660637
       4A    -15.633162     5A    -11.312760     6A     -1.465020
       7A     -1.273231     8A     -1.152719     9A     -0.930672
      10A     -0.854254    11A     -0.769210    12A     -0.661399
      13A     -0.651937    14A     -0.582217    15A     -0.517806
      16A     -0.480489    17A     -0.462012    18A     -0.398496

  @DF-RHF Final Energy:  -256.81280408638685

   => Energetics <=

    Nuclear Repulsion Energy =            163.2107109508827705
    One-Electron Energy =                -671.6214012525940689
    Two-Electron Energy =                 251.5978862153244222
    Total Energy =                       -256.8128040863868478
  Basis Set: (AUG-CC-PVTZ AUX)
    Blend: AUG-CC-PVTZ-RI
    Molecular point group: c1

    Geometry (in Angstrom), charge = 0, multiplicity = 1:

       Center              X                  Y                   Z               Mass
    ------------   -----------------  -----------------  -----------------  -----------------
         N           -0.992582388407    -0.345864057975     0.000054253039    14.003074004430
         N            0.001307611593    -1.225932057975     0.000053253039    14.003074004430
         N           -0.621257088407     1.083456142025    -0.000020546961    14.003074004430
         N            0.702362611593     0.917479942025    -0.000069746961    14.003074004430
         C            1.053147611593    -0.386447057975    -0.000024746961    12.000000000000
         H           -1.968759388407    -0.627553057975     0.000106253039     1.007825032230
         H            2.075321611593    -0.733709057975    -0.000050746961     1.007825032230

  Basis Set: AUG-CC-PVTZ
    Blend: AUG-CC-PVTZ
  Basis Set: (AUG-CC-PVTZ AUX)
    Blend: AUG-CC-PVTZ-JKFIT
	 Reference Energy          =    -256.8128040863868478 [Eh]
	 Singles Energy            =      -0.0000000000000000 [Eh]
	 Same-Spin Energy          =      -0.2820179551493817 [Eh]
	 Opposite-Spin Energy      =      -0.8038003087103551 [Eh]
	 Correlation Energy        =      -1.0858182638597369 [Eh]
	 Total Energy              =    -257.8986223502465691 [Eh]

	 ================> DF-SCS-MP2 Energies <==================
	-----------------------------------------------------------
	 SCS Same-Spin Scale       =       0.3333333333333333 [-]
	 SCS Opposite-Spin Scale   =       1.2000000000000000 [-]
	 SCS Same-Spin Energy      =      -0.0940059850497939 [Eh]
	 SCS Opposite-Spin Energy  =      -0.9645603704524262 [Eh]
	 SCS Correlation Energy    =      -1.0585663555022200 [Eh]
	 SCS Total Energy          =    -257.8713704418890416 [Eh]
	-----------------------------------------------------------

  Dipole Moment: [D]
     X:    -1.0902      Y:    -1.9657      Z:     0.0001     Total:     2.2478

*** Psi4 exiting successfully. Buy a developer a beer!
