                               Psi4 1.3.2 release

  ==> Input File <==

--------------------------------------------------------------------------
#psi4
#
memory 32 gb

molecule  {
0 1
  N       -1.0145855    -0.2935072     0.0000527
  N        0.0017640    -1.1800760     0.0000510
  N       -0.6308990     0.9900470    -0.0000160
  N        0.7028190     0.9633360    -0.0000720
  C        1.0536040    -0.3405910    -0.0000270
  H       -1.9683030    -0.5816970     0.0001040
  H        2.0757780    -0.6878530    -0.0000530
units angstrom
no_reorient  #important for SAPT in psi4, default
symmetry c1  #important for SAPT in psi4, default
}

set PROPERTIES_ORIGIN ["COM"]
properties('MP2/aug-cc-pvtz', properties = ['dipole'])
--------------------------------------------------------------------------

    Molecular point group: c1
  Charge       = 0
  Multiplicity = 1
  Basis Set: AUG-CC-PVTZ
    Blend: AUG-CC-PVTZ
  Basis Set: (AUG-CC-PVTZ AUX)
    Blend: AUG-CC-PVTZ-JKFIT

    Orbital Energies [Eh]
    ---------------------

    Doubly Occupied:

       1A    -15.714725     2A    -15.687172     3A    -15.642172
       4A    -15.623619     5A    -11.314911     6A     -1.492748
       7A     -1.259604     8A     -1.184951     9A     -0.933129
      10A     -0.873828    11A     -0.780977    12A     -0.678493
      13A     -0.652104    14A     -0.578679    15A     -0.507520
      16A     -0.485377    17A     -0.449038    18A     -0.416636

  @DF-RHF Final Energy:  -256.84151727617433

   => Energetics <=

    Nuclear Repulsion Energy =            165.6901389553301840
    One-Electron Energy =                -676.5119476697230994
    Two-Electron Energy =                 253.9802914382185577
    Total Energy =                       -256.8415172761743293
  Basis Set: (AUG-CC-PVTZ AUX)
    Blend: AUG-CC-PVTZ-RI
    Molecular point group: c1

    Geometry (in Angstrom), charge = 0, multiplicity = 1:

       Center              X                  Y                   Z               Mass
    ------------   -----------------  -----------------  -----------------  -----------------
         N           -1.008531497794    -0.312815146508     0.000053453309    14.003074004430
         N            0.007818002206    -1.199383946508     0.000051753309    14.003074004430
         N           -0.624844997794     0.970739053492    -0.000015246691    14.003074004430
         N            0.708873002206     0.944028053492    -0.000071246691    14.003074004430
         C            1.059658002206    -0.359898946508    -0.000026246691    12.000000000000
         H           -1.962248997794    -0.601004946508     0.000104753309     1.007825032230
         H            2.081832002206    -0.707160946508    -0.000052246691     1.007825032230

  Basis Set: AUG-CC-PVTZ
    Blend: AUG-CC-PVTZ
  Basis Set: (AUG-CC-PVTZ AUX)
    Blend: AUG-CC-PVTZ-JKFIT
	 Reference Energy          =    -256.8415172761743293 [Eh]
	 Singles Energy            =      -0.0000000000000000 [Eh]
	 Same-Spin Energy          =      -0.2776829100534672 [Eh]
	 Opposite-Spin Energy      =      -0.7938994476286843 [Eh]
	 Correlation Energy        =      -1.0715823576821515 [Eh]
	 Total Energy              =    -257.9130996338564614 [Eh]

	 ================> DF-SCS-MP2 Energies <==================
	-----------------------------------------------------------
	 SCS Same-Spin Scale       =       0.3333333333333333 [-]
	 SCS Opposite-Spin Scale   =       1.2000000000000000 [-]
	 SCS Same-Spin Energy      =      -0.0925609700178224 [Eh]
	 SCS Opposite-Spin Energy  =      -0.9526793371544211 [Eh]
	 SCS Correlation Energy    =      -1.0452403071722436 [Eh]
	 SCS Total Energy          =    -257.8867575833465935 [Eh]
	-----------------------------------------------------------

  Dipole Moment: [D]
     X:    -1.2071      Y:    -2.0003      Z:     0.0001     Total:     2.3363

*** Psi4 exiting successfully. Buy a developer a beer!
