                               Psi4 1.3.2 release

  ==> Input File <==

--------------------------------------------------------------------------
#psi4
#
memory 32 gb

molecule  {
0 1
  N       -0.9921260    -0.3000080     0.0000520
  N        0.0017640    -1.1800760     0.0000510
  N       -0.6308990     0.9900470    -0.0000160
  N        0.7028190     0.9633360    -0.0000720
  C        1.0536040    -0.3405910    -0.0000270
  H       -1.9683030    -0.5816970     0.0001040
  H        1.9810929    -0.6556857    -0.0000506
units angstrom
no_reorient  #important for SAPT in psi4, default
symmetry c1  #important for SAPT in psi4, default
}

set PROPERTIES_ORIGIN ["COM"]
properties('MP2/aug-cc-pvtz', properties = ['dipole'])
--------------------------------------------------------------------------

    Molecular point group: c1
  Charge       = 0
  Multiplicity = 1
  Basis Set: AUG-CC-PVTZ
    Blend: AUG-CC-PVTZ
  Basis Set: (AUG-CC-PVTZ AUX)
    Blend: AUG-CC-PVTZ-JKFIT

    Orbital Energies [Eh]
    ---------------------

    Doubly Occupied:

       1A    -15.716814     2A    -15.684440     3A    -15.642338
       4A    -15.622784     5A    -11.302670     6A     -1.498294
       7A     -1.264864     8A     -1.184569     9A     -0.928455
      10A     -0.889857    11A     -0.784026    12A     -0.682130
      13A     -0.668416    14A     -0.580306    15A     -0.510509
      16A     -0.485399    17A     -0.450873    18A     -0.414367

  @DF-RHF Final Energy:  -256.83622218669331

   => Energetics <=

    Nuclear Repulsion Energy =            166.6551991299557756
    One-Electron Energy =                -678.3606212737985288
    Two-Electron Energy =                 254.8691999571494193
    Total Energy =                       -256.8362221866933055
  Basis Set: (AUG-CC-PVTZ AUX)
    Blend: AUG-CC-PVTZ-RI
    Molecular point group: c1

    Geometry (in Angstrom), charge = 0, multiplicity = 1:

       Center              X                  Y                   Z               Mass
    ------------   -----------------  -----------------  -----------------  -----------------
         N           -0.989200406364    -0.318478963895     0.000052858743    14.003074004430
         N            0.004689593636    -1.198546963895     0.000051858743    14.003074004430
         N           -0.627973406364     0.971576036105    -0.000015141257    14.003074004430
         N            0.705744593636     0.944865036105    -0.000071141257    14.003074004430
         C            1.056529593636    -0.359061963895    -0.000026141257    12.000000000000
         H           -1.965377406364    -0.600167963895     0.000104858743     1.007825032230
         H            1.984018493636    -0.674156663895    -0.000049741257     1.007825032230

  Basis Set: AUG-CC-PVTZ
    Blend: AUG-CC-PVTZ
  Basis Set: (AUG-CC-PVTZ AUX)
    Blend: AUG-CC-PVTZ-JKFIT
	 Reference Energy          =    -256.8362221866933055 [Eh]
	 Singles Energy            =      -0.0000000000000000 [Eh]
	 Same-Spin Energy          =      -0.2777486390345484 [Eh]
	 Opposite-Spin Energy      =      -0.7934826843596385 [Eh]
	 Correlation Energy        =      -1.0712313233941870 [Eh]
	 Total Energy              =    -257.9074535100875210 [Eh]

	 ================> DF-SCS-MP2 Energies <==================
	-----------------------------------------------------------
	 SCS Same-Spin Scale       =       0.3333333333333333 [-]
	 SCS Opposite-Spin Scale   =       1.2000000000000000 [-]
	 SCS Same-Spin Energy      =      -0.0925828796781828 [Eh]
	 SCS Opposite-Spin Energy  =      -0.9521792212315662 [Eh]
	 SCS Correlation Energy    =      -1.0447621009097490 [Eh]
	 SCS Total Energy          =    -257.8809842876030416 [Eh]
	-----------------------------------------------------------

  Dipole Moment: [D]
     X:    -1.2690      Y:    -2.0160      Z:     0.0001     Total:     2.3821

*** Psi4 exiting successfully. Buy a developer a beer!
