                               Psi4 1.4a3.dev225

  ==> Input File <==

--------------------------------------------------------------------------
#psi4
#
memory 32 gb

molecule  {
0 1
  N       -0.9921260    -0.3000080     0.0000520
  N        0.0017640    -1.1800760     0.0000510
  N       -0.6443809     0.9418989    -0.0000135
  N        0.7028190     0.9633360    -0.0000720
  C        1.0536040    -0.3405910    -0.0000270
  H       -1.9683030    -0.5816970     0.0001040
  H        2.0757780    -0.6878530    -0.0000530
units angstrom
no_reorient  #important for SAPT in psi4, default
symmetry c1  #important for SAPT in psi4, default
}

set PROPERTIES_ORIGIN ["COM"]
properties('MP2/aug-cc-pvtz', properties = ['dipole'])
--------------------------------------------------------------------------

    Molecular point group: c1
  Charge       = 0
  Multiplicity = 1
  Basis Set: AUG-CC-PVTZ
    Blend: AUG-CC-PVTZ
  Basis Set: (AUG-CC-PVTZ AUX)
    Blend: AUG-CC-PVTZ-JKFIT

    Orbital Energies [Eh]
    ---------------------

    Doubly Occupied:

       1A    -15.722116     2A    -15.679512     3A    -15.635120
       4A    -15.619834     5A    -11.313993     6A     -1.513272
       7A     -1.257874     8A     -1.196855     9A     -0.929064
      10A     -0.882896    11A     -0.781953    12A     -0.691301
      13A     -0.650198    14A     -0.574653    15A     -0.506585
      16A     -0.486122    17A     -0.445613    18A     -0.420512

  @DF-RHF Final Energy:  -256.84535972138872

   => Energetics <=

    Nuclear Repulsion Energy =            167.0464658565188358
    One-Electron Energy =                -679.1687032886786710
    Two-Electron Energy =                 255.2768777107711458
    Total Energy =                       -256.8453597213887178
  Basis Set: (AUG-CC-PVTZ AUX)
    Blend: AUG-CC-PVTZ-RI
    Molecular point group: c1

    Geometry (in Angstrom), charge = 0, multiplicity = 1:

       Center              X                  Y                   Z               Mass
    ------------   -----------------  -----------------  -----------------  -----------------
         N           -0.987867195344    -0.308388129347     0.000052393373    14.003074004430
         N            0.006022804656    -1.188456129347     0.000051393373    14.003074004430
         N           -0.640122095344     0.933518770653    -0.000013106627    14.003074004430
         N            0.707077804656     0.954955870653    -0.000071606627    14.003074004430
         C            1.057862804656    -0.348971129347    -0.000026606627    12.000000000000
         H           -1.964044195344    -0.590077129347     0.000104393373     1.007825032230
         H            2.080036804656    -0.696233129347    -0.000052606627     1.007825032230

  Basis Set: AUG-CC-PVTZ
    Blend: AUG-CC-PVTZ
  Basis Set: (AUG-CC-PVTZ AUX)
    Blend: AUG-CC-PVTZ-JKFIT
	 Reference Energy          =    -256.8453597213887178 [Eh]
	 Singles Energy            =      -0.0000000000000000 [Eh]
	 Same-Spin Energy          =      -0.2767423164256376 [Eh]
	 Opposite-Spin Energy      =      -0.7909704311164367 [Eh]
	 Correlation Energy        =      -1.0677127475420742 [Eh]
	 Total Energy              =    -257.9130724689308067 [Eh]

	 ================> DF-SCS-MP2 Energies <==================
	-----------------------------------------------------------
	 SCS Same-Spin Scale       =       0.3333333333333333 [-]
	 SCS Opposite-Spin Scale   =       1.2000000000000000 [-]
	 SCS Same-Spin Energy      =      -0.0922474388085459 [Eh]
	 SCS Opposite-Spin Energy  =      -0.9491645173397241 [Eh]
	 SCS Correlation Energy    =      -1.0414119561482700 [Eh]
	 SCS Total Energy          =    -257.8867716775370127 [Eh]
	-----------------------------------------------------------

  Dipole Moment: [D]
     X:    -1.2998      Y:    -2.0284      Z:     0.0001     Total:     2.4092

*** Psi4 exiting successfully. Buy a developer a beer!
