                               Psi4 1.4a3.dev225

  ==> Input File <==

--------------------------------------------------------------------------
#psi4
#
memory 32 gb

molecule  {
0 1
  N       -0.9921260    -0.3000080     0.0000520
  N        0.0017640    -1.1800760     0.0000510
  N       -0.6308990     0.9900470    -0.0000160
  N        0.7028190     0.9633360    -0.0000720
  C        1.0484083    -0.3212777    -0.0000277
  H       -1.9683030    -0.5816970     0.0001040
  H        2.0757780    -0.6878530    -0.0000530
units angstrom
no_reorient  #important for SAPT in psi4, default
symmetry c1  #important for SAPT in psi4, default
}

set PROPERTIES_ORIGIN ["COM"]
properties('MP2/aug-cc-pvtz', properties = ['dipole'])
--------------------------------------------------------------------------

    Molecular point group: c1
  Charge       = 0
  Multiplicity = 1
  Basis Set: AUG-CC-PVTZ
    Blend: AUG-CC-PVTZ
  Basis Set: (AUG-CC-PVTZ AUX)
    Blend: AUG-CC-PVTZ-JKFIT

    Orbital Energies [Eh]
    ---------------------

    Doubly Occupied:

       1A    -15.719047     2A    -15.683853     3A    -15.642433
       4A    -15.621690     5A    -11.312765     6A     -1.500413
       7A     -1.267321     8A     -1.183424     9A     -0.931209
      10A     -0.875036    11A     -0.780559    12A     -0.683457
      13A     -0.645594    14A     -0.577531    15A     -0.509926
      16A     -0.487600    17A     -0.453773    18A     -0.413063

  @DF-RHF Final Energy:  -256.84190801662987

   => Energetics <=

    Nuclear Repulsion Energy =            166.3603403095619626
    One-Electron Energy =                -677.8271081906053723
    Two-Electron Energy =                 254.6248598644135654
    Total Energy =                       -256.8419080166298727
  Basis Set: (AUG-CC-PVTZ AUX)
    Blend: AUG-CC-PVTZ-RI
    Molecular point group: c1

    Geometry (in Angstrom), charge = 0, multiplicity = 1:

       Center              X                  Y                   Z               Mass
    ------------   -----------------  -----------------  -----------------  -----------------
         N           -0.989672755131    -0.321325550165     0.000053013236    14.003074004430
         N            0.004217244869    -1.201393550165     0.000052013236    14.003074004430
         N           -0.628445755131     0.968729449835    -0.000014986764    14.003074004430
         N            0.705272244869     0.942018449835    -0.000070986764    14.003074004430
         C            1.050861544869    -0.342595250165    -0.000026686764    12.000000000000
         H           -1.965849755131    -0.603014550165     0.000105013236     1.007825032230
         H            2.078231244869    -0.709170550165    -0.000051986764     1.007825032230

  Basis Set: AUG-CC-PVTZ
    Blend: AUG-CC-PVTZ
  Basis Set: (AUG-CC-PVTZ AUX)
    Blend: AUG-CC-PVTZ-JKFIT
	 Reference Energy          =    -256.8419080166298727 [Eh]
	 Singles Energy            =      -0.0000000000000000 [Eh]
	 Same-Spin Energy          =      -0.2780713763219093 [Eh]
	 Opposite-Spin Energy      =      -0.7938058007825813 [Eh]
	 Correlation Energy        =      -1.0718771771044906 [Eh]
	 Total Energy              =    -257.9137851937343839 [Eh]

	 ================> DF-SCS-MP2 Energies <==================
	-----------------------------------------------------------
	 SCS Same-Spin Scale       =       0.3333333333333333 [-]
	 SCS Opposite-Spin Scale   =       1.2000000000000000 [-]
	 SCS Same-Spin Energy      =      -0.0926904587739698 [Eh]
	 SCS Opposite-Spin Energy  =      -0.9525669609390975 [Eh]
	 SCS Correlation Energy    =      -1.0452574197130673 [Eh]
	 SCS Total Energy          =    -257.8871654363429116 [Eh]
	-----------------------------------------------------------

  Dipole Moment: [D]
     X:    -1.2532      Y:    -2.0059      Z:     0.0001     Total:     2.3652

*** Psi4 exiting successfully. Buy a developer a beer!
