                               Psi4 1.3.2 release

  ==> Input File <==

--------------------------------------------------------------------------
#psi4
#
memory 32 gb

molecule  {
0 1
  N       -0.9921260    -0.3000080     0.0000520
  N        0.0607334    -1.1086019     0.0000457
  N       -0.6308990     0.9900470    -0.0000160
  N        0.7028190     0.9633360    -0.0000720
  C        1.0536040    -0.3405910    -0.0000270
  H       -1.9683030    -0.5816970     0.0001040
  H        2.0757780    -0.6878530    -0.0000530
units angstrom
no_reorient  #important for SAPT in psi4, default
symmetry c1  #important for SAPT in psi4, default
}

set PROPERTIES_ORIGIN ["COM"]
properties('MP2/aug-cc-pvtz', properties = ['dipole'])
--------------------------------------------------------------------------

    Molecular point group: c1
  Charge       = 0
  Multiplicity = 1
  Basis Set: AUG-CC-PVTZ
    Blend: AUG-CC-PVTZ
  Basis Set: (AUG-CC-PVTZ AUX)
    Blend: AUG-CC-PVTZ-JKFIT

    Orbital Energies [Eh]
    ---------------------

    Doubly Occupied:

       1A    -15.709853     2A    -15.685262     3A    -15.626767
       4A    -15.617279     5A    -11.300257     6A     -1.506449
       7A     -1.260488     8A     -1.200796     9A     -0.931074
      10A     -0.878684    11A     -0.786225    12A     -0.687682
      13A     -0.667155    14A     -0.568675    15A     -0.504378
      16A     -0.478760    17A     -0.445132    18A     -0.430978

  @DF-RHF Final Energy:  -256.84238130853737

   => Energetics <=

    Nuclear Repulsion Energy =            168.0741191108753867
    One-Electron Energy =                -681.2612174067752449
    Two-Electron Energy =                 256.3447169873625171
    Total Energy =                       -256.8423813085373695
  Basis Set: (AUG-CC-PVTZ AUX)
    Blend: AUG-CC-PVTZ-RI
    Molecular point group: c1

    Geometry (in Angstrom), charge = 0, multiplicity = 1:

       Center              X                  Y                   Z               Mass
    ------------   -----------------  -----------------  -----------------  -----------------
         N           -1.002354853091    -0.332308272845     0.000053953093    14.003074004430
         N            0.050504546909    -1.140902172845     0.000047653093    14.003074004430
         N           -0.641127853091     0.957746727155    -0.000014046907    14.003074004430
         N            0.692590146909     0.931035727155    -0.000070046907    14.003074004430
         C            1.043375146909    -0.372891272845    -0.000025046907    12.000000000000
         H           -1.978531853091    -0.613997272845     0.000105953093     1.007825032230
         H            2.065549146909    -0.720153272845    -0.000051046907     1.007825032230

  Basis Set: AUG-CC-PVTZ
    Blend: AUG-CC-PVTZ
  Basis Set: (AUG-CC-PVTZ AUX)
    Blend: AUG-CC-PVTZ-JKFIT
	 Reference Energy          =    -256.8423813085373695 [Eh]
	 Singles Energy            =      -0.0000000000000000 [Eh]
	 Same-Spin Energy          =      -0.2756041108917978 [Eh]
	 Opposite-Spin Energy      =      -0.7888484180971644 [Eh]
	 Correlation Energy        =      -1.0644525289889621 [Eh]
	 Total Energy              =    -257.9068338375263352 [Eh]

	 ================> DF-SCS-MP2 Energies <==================
	-----------------------------------------------------------
	 SCS Same-Spin Scale       =       0.3333333333333333 [-]
	 SCS Opposite-Spin Scale   =       1.2000000000000000 [-]
	 SCS Same-Spin Energy      =      -0.0918680369639326 [Eh]
	 SCS Opposite-Spin Energy  =      -0.9466181017165973 [Eh]
	 SCS Correlation Energy    =      -1.0384861386805300 [Eh]
	 SCS Total Energy          =    -257.8808674472178950 [Eh]
	-----------------------------------------------------------

  Dipole Moment: [D]
     X:    -1.2794      Y:    -2.1389      Z:     0.0001     Total:     2.4923

*** Psi4 exiting successfully. Buy a developer a beer!
