                               Psi4 1.4a3.dev225

  ==> Input File <==

--------------------------------------------------------------------------
#psi4
#
memory 32 gb

molecule  {
0 1
  N       -0.9921260    -0.3000080     0.0000520
  N        0.0017640    -1.1800760     0.0000510
  N       -0.6308990     0.9900470    -0.0000160
  N        0.7028190     0.9633360    -0.0000720
  C        1.0379722    -0.3530669    -0.0000258
  H       -1.9683030    -0.5816970     0.0001040
  H        2.0757780    -0.6878530    -0.0000530
units angstrom
no_reorient  #important for SAPT in psi4, default
symmetry c1  #important for SAPT in psi4, default
}

set PROPERTIES_ORIGIN ["COM"]
properties('MP2/aug-cc-pvtz', properties = ['dipole'])
--------------------------------------------------------------------------

    Molecular point group: c1
  Charge       = 0
  Multiplicity = 1
  Basis Set: AUG-CC-PVTZ
    Blend: AUG-CC-PVTZ
  Basis Set: (AUG-CC-PVTZ AUX)
    Blend: AUG-CC-PVTZ-JKFIT

    Orbital Energies [Eh]
    ---------------------

    Doubly Occupied:

       1A    -15.714979     2A    -15.686244     3A    -15.641067
       4A    -15.623366     5A    -11.312504     6A     -1.500373
       7A     -1.266520     8A     -1.184358     9A     -0.926932
      10A     -0.876059    11A     -0.780781    12A     -0.683669
      13A     -0.648868    14A     -0.573822    15A     -0.512567
      16A     -0.486760    17A     -0.450301    18A     -0.417378

  @DF-RHF Final Energy:  -256.84327063837060

   => Energetics <=

    Nuclear Repulsion Energy =            166.3646058190280144
    One-Electron Energy =                -677.8426568746282328
    Two-Electron Energy =                 254.6347804172295923
    Total Energy =                       -256.8432706383705977
  Basis Set: (AUG-CC-PVTZ AUX)
    Blend: AUG-CC-PVTZ-RI
    Molecular point group: c1

    Geometry (in Angstrom), charge = 0, multiplicity = 1:

       Center              X                  Y                   Z               Mass
    ------------   -----------------  -----------------  -----------------  -----------------
         N           -0.987884423372    -0.315878147787     0.000052687651    14.003074004430
         N            0.006005576628    -1.195946147787     0.000051687651    14.003074004430
         N           -0.626657423372     0.974176852213    -0.000015312349    14.003074004430
         N            0.707060576628     0.947465852213    -0.000071312349    14.003074004430
         C            1.042213776628    -0.368937047787    -0.000025112349    12.000000000000
         H           -1.964061423372    -0.597567147787     0.000104687651     1.007825032230
         H            2.080019576628    -0.703723147787    -0.000052312349     1.007825032230

  Basis Set: AUG-CC-PVTZ
    Blend: AUG-CC-PVTZ
  Basis Set: (AUG-CC-PVTZ AUX)
    Blend: AUG-CC-PVTZ-JKFIT
	 Reference Energy          =    -256.8432706383705977 [Eh]
	 Singles Energy            =      -0.0000000000000000 [Eh]
	 Same-Spin Energy          =      -0.2774869550447197 [Eh]
	 Opposite-Spin Energy      =      -0.7929779481944003 [Eh]
	 Correlation Energy        =      -1.0704649032391200 [Eh]
	 Total Energy              =    -257.9137355416096966 [Eh]

	 ================> DF-SCS-MP2 Energies <==================
	-----------------------------------------------------------
	 SCS Same-Spin Scale       =       0.3333333333333333 [-]
	 SCS Opposite-Spin Scale   =       1.2000000000000000 [-]
	 SCS Same-Spin Energy      =      -0.0924956516815732 [Eh]
	 SCS Opposite-Spin Energy  =      -0.9515735378332802 [Eh]
	 SCS Correlation Energy    =      -1.0440691895148535 [Eh]
	 SCS Total Energy          =    -257.8873398278854552 [Eh]
	-----------------------------------------------------------

  Dipole Moment: [D]
     X:    -1.2531      Y:    -2.0359      Z:     0.0001     Total:     2.3907

*** Psi4 exiting successfully. Buy a developer a beer!
