                               Psi4 1.3.2 release

  ==> Input File <==

--------------------------------------------------------------------------
#psi4
#
memory 32 gb

molecule  {
0 1
  N       -0.9921260    -0.3000080     0.0000520
  N        0.0017640    -1.1800760     0.0000510
  N       -0.6308990     0.9900470    -0.0000160
  N        0.6801158     0.9570154    -0.0000708
  C        1.0536040    -0.3405910    -0.0000270
  H       -1.9683030    -0.5816970     0.0001040
  H        2.0757780    -0.6878530    -0.0000530
units angstrom
no_reorient  #important for SAPT in psi4, default
symmetry c1  #important for SAPT in psi4, default
}

set PROPERTIES_ORIGIN ["COM"]
properties('MP2/aug-cc-pvtz', properties = ['dipole'])
--------------------------------------------------------------------------

    Molecular point group: c1
  Charge       = 0
  Multiplicity = 1
  Basis Set: AUG-CC-PVTZ
    Blend: AUG-CC-PVTZ
  Basis Set: (AUG-CC-PVTZ AUX)
    Blend: AUG-CC-PVTZ-JKFIT

    Orbital Energies [Eh]
    ---------------------

    Doubly Occupied:

       1A    -15.713304     2A    -15.682951     3A    -15.643091
       4A    -15.620324     5A    -11.312611     6A     -1.502907
       7A     -1.270570     8A     -1.181319     9A     -0.925013
      10A     -0.879155    11A     -0.782946    12A     -0.684156
      13A     -0.650682    14A     -0.580464    15A     -0.512171
      16A     -0.480111    17A     -0.453936    18A     -0.413422

  @DF-RHF Final Energy:  -256.84474458376707

   => Energetics <=

    Nuclear Repulsion Energy =            166.6646675865204656
    One-Electron Energy =                -678.4405587756785962
    Two-Electron Energy =                 254.9311466053910635
    Total Energy =                       -256.8447445837670671
  Basis Set: (AUG-CC-PVTZ AUX)
    Blend: AUG-CC-PVTZ-RI
    Molecular point group: c1

    Geometry (in Angstrom), charge = 0, multiplicity = 1:

       Center              X                  Y                   Z               Mass
    ------------   -----------------  -----------------  -----------------  -----------------
         N           -0.986023266547    -0.316752127018     0.000052653327    14.003074004430
         N            0.007866733453    -1.196820127018     0.000051653327    14.003074004430
         N           -0.624796266547     0.973302872982    -0.000015346673    14.003074004430
         N            0.686218533453     0.940271272982    -0.000070146673    14.003074004430
         C            1.059706733453    -0.357335127018    -0.000026346673    12.000000000000
         H           -1.962200266547    -0.598441127018     0.000104653327     1.007825032230
         H            2.081880733453    -0.704597127018    -0.000052346673     1.007825032230

  Basis Set: AUG-CC-PVTZ
    Blend: AUG-CC-PVTZ
  Basis Set: (AUG-CC-PVTZ AUX)
    Blend: AUG-CC-PVTZ-JKFIT
	 Reference Energy          =    -256.8447445837670671 [Eh]
	 Singles Energy            =      -0.0000000000000000 [Eh]
	 Same-Spin Energy          =      -0.2773054720452152 [Eh]
	 Opposite-Spin Energy      =      -0.7921644497154409 [Eh]
	 Correlation Energy        =      -1.0694699217606560 [Eh]
	 Total Energy              =    -257.9142145055276956 [Eh]

	 ================> DF-SCS-MP2 Energies <==================
	-----------------------------------------------------------
	 SCS Same-Spin Scale       =       0.3333333333333333 [-]
	 SCS Opposite-Spin Scale   =       1.2000000000000000 [-]
	 SCS Same-Spin Energy      =      -0.0924351573484051 [Eh]
	 SCS Opposite-Spin Energy  =      -0.9505973396585290 [Eh]
	 SCS Correlation Energy    =      -1.0430324970069340 [Eh]
	 SCS Total Energy          =    -257.8877770807740148 [Eh]
	-----------------------------------------------------------

  Dipole Moment: [D]
     X:    -1.2022      Y:    -1.9939      Z:     0.0001     Total:     2.3283

*** Psi4 exiting successfully. Buy a developer a beer!
