                               Psi4 1.3.2 release

  ==> Input File <==

--------------------------------------------------------------------------
#psi4
#
memory 32 gb

molecule  {
0 1
  N       -1.0073339    -0.3174878     0.0000534
  N        0.0017640    -1.1800760     0.0000510
  N       -0.6308990     0.9900470    -0.0000160
  N        0.7028190     0.9633360    -0.0000720
  C        1.0536040    -0.3405910    -0.0000270
  H       -1.9683030    -0.5816970     0.0001040
  H        2.0757780    -0.6878530    -0.0000530
units angstrom
no_reorient  #important for SAPT in psi4, default
symmetry c1  #important for SAPT in psi4, default
}

set PROPERTIES_ORIGIN ["COM"]
properties('MP2/aug-cc-pvtz', properties = ['dipole'])
--------------------------------------------------------------------------

    Molecular point group: c1
  Charge       = 0
  Multiplicity = 1
  Basis Set: AUG-CC-PVTZ
    Blend: AUG-CC-PVTZ
  Basis Set: (AUG-CC-PVTZ AUX)
    Blend: AUG-CC-PVTZ-JKFIT

    Orbital Energies [Eh]
    ---------------------

    Doubly Occupied:

       1A    -15.714467     2A    -15.685839     3A    -15.643874
       4A    -15.626123     5A    -11.313518     6A     -1.491953
       7A     -1.266335     8A     -1.179134     9A     -0.932398
      10A     -0.874371    11A     -0.780408    12A     -0.678326
      13A     -0.655603    14A     -0.576506    15A     -0.507025
      16A     -0.487260    17A     -0.453600    18A     -0.411525

  @DF-RHF Final Energy:  -256.84055187806916

   => Energetics <=

    Nuclear Repulsion Energy =            165.6927958996086545
    One-Electron Energy =                -676.5101674212868375
    Two-Electron Energy =                 253.9768196436089909
    Total Energy =                       -256.8405518780691636
  Basis Set: (AUG-CC-PVTZ AUX)
    Blend: AUG-CC-PVTZ-RI
    Molecular point group: c1

    Geometry (in Angstrom), charge = 0, multiplicity = 1:

       Center              X                  Y                   Z               Mass
    ------------   -----------------  -----------------  -----------------  -----------------
         N           -1.002729957337    -0.332000487826     0.000054013334    14.003074004430
         N            0.006367942663    -1.194588687826     0.000051613334    14.003074004430
         N           -0.626295057337     0.975534312174    -0.000015386666    14.003074004430
         N            0.707422942663     0.948823312174    -0.000071386666    14.003074004430
         C            1.058207942663    -0.355103687826    -0.000026386666    12.000000000000
         H           -1.963699057337    -0.596209687826     0.000104613334     1.007825032230
         H            2.080381942663    -0.702365687826    -0.000052386666     1.007825032230

  Basis Set: AUG-CC-PVTZ
    Blend: AUG-CC-PVTZ
  Basis Set: (AUG-CC-PVTZ AUX)
    Blend: AUG-CC-PVTZ-JKFIT
	 Reference Energy          =    -256.8405518780691636 [Eh]
	 Singles Energy            =      -0.0000000000000000 [Eh]
	 Same-Spin Energy          =      -0.2781308726953135 [Eh]
	 Opposite-Spin Energy      =      -0.7945448873164960 [Eh]
	 Correlation Energy        =      -1.0726757600118095 [Eh]
	 Total Energy              =    -257.9132276380809685 [Eh]

	 ================> DF-SCS-MP2 Energies <==================
	-----------------------------------------------------------
	 SCS Same-Spin Scale       =       0.3333333333333333 [-]
	 SCS Opposite-Spin Scale   =       1.2000000000000000 [-]
	 SCS Same-Spin Energy      =      -0.0927102908984378 [Eh]
	 SCS Opposite-Spin Energy  =      -0.9534538647797951 [Eh]
	 SCS Correlation Energy    =      -1.0461641556782328 [Eh]
	 SCS Total Energy          =    -257.8867160337474047 [Eh]
	-----------------------------------------------------------

  Dipole Moment: [D]
     X:    -1.1984      Y:    -2.0115      Z:     0.0001     Total:     2.3415

*** Psi4 exiting successfully. Buy a developer a beer!
