                               Psi4 1.4a3.dev225

  ==> Input File <==

--------------------------------------------------------------------------
#psi4
#
memory 32 gb

molecule  {
0 1
  N       -0.9921260    -0.3000080     0.0000520
  N        0.0017640    -1.1800760     0.0000510
  N       -0.6308990     0.9900470    -0.0000160
  N        0.6528290     0.9643372    -0.0000699
  C        1.0536040    -0.3405910    -0.0000270
  H       -1.9683030    -0.5816970     0.0001040
  H        2.0757780    -0.6878530    -0.0000530
units angstrom
no_reorient  #important for SAPT in psi4, default
symmetry c1  #important for SAPT in psi4, default
}

set PROPERTIES_ORIGIN ["COM"]
properties('MP2/aug-cc-pvtz', properties = ['dipole'])
--------------------------------------------------------------------------

    Molecular point group: c1
  Charge       = 0
  Multiplicity = 1
  Basis Set: AUG-CC-PVTZ
    Blend: AUG-CC-PVTZ
  Basis Set: (AUG-CC-PVTZ AUX)
    Blend: AUG-CC-PVTZ-JKFIT

    Orbital Energies [Eh]
    ---------------------

    Doubly Occupied:

       1A    -15.707934     2A    -15.680922     3A    -15.644518
       4A    -15.619545     5A    -11.313528     6A     -1.507220
       7A     -1.277906     8A     -1.177201     9A     -0.919367
      10A     -0.882323    11A     -0.785663    12A     -0.685704
      13A     -0.650043    14A     -0.584695    15A     -0.514341
      16A     -0.474017    17A     -0.458073    18A     -0.411094

  @DF-RHF Final Energy:  -256.84560009667052

   => Energetics <=

    Nuclear Repulsion Energy =            167.0073915666060884
    One-Electron Energy =                -679.1177917216136848
    Two-Electron Energy =                 255.2648000583371015
    Total Energy =                       -256.8456000966705233
  Basis Set: (AUG-CC-PVTZ AUX)
    Blend: AUG-CC-PVTZ-RI
    Molecular point group: c1

    Geometry (in Angstrom), charge = 0, multiplicity = 1:

       Center              X                  Y                   Z               Mass
    ------------   -----------------  -----------------  -----------------  -----------------
         N           -0.980566886614    -0.318216224039     0.000052473359    14.003074004430
         N            0.013323113386    -1.198284224039     0.000051473359    14.003074004430
         N           -0.619339886614     0.971838775961    -0.000015526641    14.003074004430
         N            0.664388113386     0.946128975961    -0.000069426641    14.003074004430
         C            1.065163113386    -0.358799224039    -0.000026526641    12.000000000000
         H           -1.956743886614    -0.599905224039     0.000104473359     1.007825032230
         H            2.087337113386    -0.706061224039    -0.000052526641     1.007825032230

  Basis Set: AUG-CC-PVTZ
    Blend: AUG-CC-PVTZ
  Basis Set: (AUG-CC-PVTZ AUX)
    Blend: AUG-CC-PVTZ-JKFIT
	 Reference Energy          =    -256.8456000966705233 [Eh]
	 Singles Energy            =      -0.0000000000000000 [Eh]
	 Same-Spin Energy          =      -0.2765678887238207 [Eh]
	 Opposite-Spin Energy      =      -0.7906090779033561 [Eh]
	 Correlation Energy        =      -1.0671769666271769 [Eh]
	 Total Energy              =    -257.9127770632977104 [Eh]

	 ================> DF-SCS-MP2 Energies <==================
	-----------------------------------------------------------
	 SCS Same-Spin Scale       =       0.3333333333333333 [-]
	 SCS Opposite-Spin Scale   =       1.2000000000000000 [-]
	 SCS Same-Spin Energy      =      -0.0921892962412736 [Eh]
	 SCS Opposite-Spin Energy  =      -0.9487308934840273 [Eh]
	 SCS Correlation Energy    =      -1.0409201897253009 [Eh]
	 SCS Total Energy          =    -257.8865202863958075 [Eh]
	-----------------------------------------------------------

  Dipole Moment: [D]
     X:    -1.1540      Y:    -1.9630      Z:     0.0001     Total:     2.2771

*** Psi4 exiting successfully. Buy a developer a beer!
