                               Psi4 1.3.2 release

  ==> Input File <==

--------------------------------------------------------------------------
#psi4
#
memory 32 gb

molecule  {
0 1
  N       -0.9921260    -0.3000080     0.0000520
  N        0.0017640    -1.1800760     0.0000510
  N       -0.6308990     0.9900470    -0.0000160
  N        0.5684432     0.9195259    -0.0000645
  C        1.0536040    -0.3405910    -0.0000270
  H       -1.9683030    -0.5816970     0.0001040
  H        2.0757780    -0.6878530    -0.0000530
units angstrom
no_reorient  #important for SAPT in psi4, default
symmetry c1  #important for SAPT in psi4, default
}

set PROPERTIES_ORIGIN ["COM"]
properties('MP2/aug-cc-pvtz', properties = ['dipole'])
--------------------------------------------------------------------------

    Molecular point group: c1
  Charge       = 0
  Multiplicity = 1
  Basis Set: AUG-CC-PVTZ
    Blend: AUG-CC-PVTZ
  Basis Set: (AUG-CC-PVTZ AUX)
    Blend: AUG-CC-PVTZ-JKFIT

    Orbital Energies [Eh]
    ---------------------

    Doubly Occupied:

       1A    -15.693966     2A    -15.672115     3A    -15.646049
       4A    -15.605389     5A    -11.309806     6A     -1.533363
       7A     -1.297302     8A     -1.174169     9A     -0.919893
      10A     -0.883852    11A     -0.796340    12A     -0.696781
      13A     -0.650845    14A     -0.601105    15A     -0.519408
      16A     -0.471660    17A     -0.447347    18A     -0.407139

  @DF-RHF Final Energy:  -256.83511823190929

   => Energetics <=

    Nuclear Repulsion Energy =            169.5424584429787274
    One-Electron Energy =                -684.1020935632566307
    Two-Electron Energy =                 257.7245168883686119
    Total Energy =                       -256.8351182319092914
  Basis Set: (AUG-CC-PVTZ AUX)
    Blend: AUG-CC-PVTZ-RI
    Molecular point group: c1

    Geometry (in Angstrom), charge = 0, multiplicity = 1:

       Center              X                  Y                   Z               Mass
    ------------   -----------------  -----------------  -----------------  -----------------
         N           -0.963692757521    -0.309255573538     0.000051393553    14.003074004430
         N            0.030197242479    -1.189323573538     0.000050393553    14.003074004430
         N           -0.602465757521     0.980799426462    -0.000016606447    14.003074004430
         N            0.596876442479     0.910278326462    -0.000065106447    14.003074004430
         C            1.082037242479    -0.349838573538    -0.000027606447    12.000000000000
         H           -1.939869757521    -0.590944573538     0.000103393553     1.007825032230
         H            2.104211242479    -0.697100573538    -0.000053606447     1.007825032230

  Basis Set: AUG-CC-PVTZ
    Blend: AUG-CC-PVTZ
  Basis Set: (AUG-CC-PVTZ AUX)
    Blend: AUG-CC-PVTZ-JKFIT
	 Reference Energy          =    -256.8351182319092914 [Eh]
	 Singles Energy            =      -0.0000000000000000 [Eh]
	 Same-Spin Energy          =      -0.2746515512147936 [Eh]
	 Opposite-Spin Energy      =      -0.7854703607480003 [Eh]
	 Correlation Energy        =      -1.0601219119627938 [Eh]
	 Total Energy              =    -257.8952401438720585 [Eh]

	 ================> DF-SCS-MP2 Energies <==================
	-----------------------------------------------------------
	 SCS Same-Spin Scale       =       0.3333333333333333 [-]
	 SCS Opposite-Spin Scale   =       1.2000000000000000 [-]
	 SCS Same-Spin Energy      =      -0.0915505170715979 [Eh]
	 SCS Opposite-Spin Energy  =      -0.9425644328976003 [Eh]
	 SCS Correlation Energy    =      -1.0341149499691982 [Eh]
	 SCS Total Energy          =    -257.8692331818784851 [Eh]
	-----------------------------------------------------------

  Dipole Moment: [D]
     X:    -0.9829      Y:    -1.7870      Z:     0.0001     Total:     2.0395

*** Psi4 exiting successfully. Buy a developer a beer!
