                               Psi4 1.3.2 release

  ==> Input File <==

--------------------------------------------------------------------------
#psi4
#
memory 32 gb

molecule  {
0 1
  N       -0.9921260    -0.3000080     0.0000520
  N        0.0017640    -1.1800760     0.0000510
  N       -0.6848266     0.7974546    -0.0000058
  N        0.7028190     0.9633360    -0.0000720
  C        1.0536040    -0.3405910    -0.0000270
  H       -1.9683030    -0.5816970     0.0001040
  H        2.0757780    -0.6878530    -0.0000530
units angstrom
no_reorient  #important for SAPT in psi4, default
symmetry c1  #important for SAPT in psi4, default
}

set PROPERTIES_ORIGIN ["COM"]
properties('MP2/aug-cc-pvtz', properties = ['dipole'])
--------------------------------------------------------------------------

    Molecular point group: c1
  Charge       = 0
  Multiplicity = 1
  Basis Set: AUG-CC-PVTZ
    Blend: AUG-CC-PVTZ
  Basis Set: (AUG-CC-PVTZ AUX)
    Blend: AUG-CC-PVTZ-JKFIT

    Orbital Energies [Eh]
    ---------------------

    Doubly Occupied:

       1A    -15.733764     2A    -15.661355     3A    -15.611350
       4A    -15.610736     5A    -11.316387     6A     -1.577959
       7A     -1.241603     8A     -1.233224     9A     -0.943943
      10A     -0.892572    11A     -0.784304    12A     -0.728641
      13A     -0.649090    14A     -0.572195    15A     -0.494448
      16A     -0.476518    17A     -0.454130    18A     -0.416666

  @DF-RHF Final Energy:  -256.81515755069125

   => Energetics <=

    Nuclear Repulsion Energy =            170.0954204572332173
    One-Electron Energy =                -685.0233865416112167
    Two-Electron Energy =                 258.1128085336867457
    Total Energy =                       -256.8151575506912536
  Basis Set: (AUG-CC-PVTZ AUX)
    Blend: AUG-CC-PVTZ-RI
    Molecular point group: c1

    Geometry (in Angstrom), charge = 0, multiplicity = 1:

       Center              X                  Y                   Z               Mass
    ------------   -----------------  -----------------  -----------------  -----------------
         N           -0.979779508042    -0.279504457391     0.000050853650    14.003074004430
         N            0.014110491958    -1.159572457391     0.000049853650    14.003074004430
         N           -0.672480108042     0.817958142609    -0.000006946350    14.003074004430
         N            0.715165491958     0.983839542609    -0.000073146350    14.003074004430
         C            1.065950491958    -0.320087457391    -0.000028146350    12.000000000000
         H           -1.955956508042    -0.561193457391     0.000102853650     1.007825032230
         H            2.088124491958    -0.667349457391    -0.000054146350     1.007825032230

  Basis Set: AUG-CC-PVTZ
    Blend: AUG-CC-PVTZ
  Basis Set: (AUG-CC-PVTZ AUX)
    Blend: AUG-CC-PVTZ-JKFIT
	 Reference Energy          =    -256.8151575506912536 [Eh]
	 Singles Energy            =      -0.0000000000000000 [Eh]
	 Same-Spin Energy          =      -0.2727688378884621 [Eh]
	 Opposite-Spin Energy      =      -0.7825073584369819 [Eh]
	 Correlation Energy        =      -1.0552761963254440 [Eh]
	 Total Energy              =    -257.8704337470167047 [Eh]

	 ================> DF-SCS-MP2 Energies <==================
	-----------------------------------------------------------
	 SCS Same-Spin Scale       =       0.3333333333333333 [-]
	 SCS Opposite-Spin Scale   =       1.2000000000000000 [-]
	 SCS Same-Spin Energy      =      -0.0909229459628207 [Eh]
	 SCS Opposite-Spin Energy  =      -0.9390088301243783 [Eh]
	 SCS Correlation Energy    =      -1.0299317760871989 [Eh]
	 SCS Total Energy          =    -257.8450893267784636 [Eh]
	-----------------------------------------------------------

  Dipole Moment: [D]
     X:    -1.5410      Y:    -1.8756      Z:     0.0001     Total:     2.4275

*** Psi4 exiting successfully. Buy a developer a beer!
