                               Psi4 1.3.2 release

  ==> Input File <==

--------------------------------------------------------------------------
#psi4
#
memory 32 gb

molecule  {
0 1
  N       -0.9921260    -0.3000080     0.0000520
  N        0.0017640    -1.1800760     0.0000510
  N       -0.6308990     0.9900470    -0.0000160
  N        0.5028591     0.9673407    -0.0000636
  C        1.0536040    -0.3405910    -0.0000270
  H       -1.9683030    -0.5816970     0.0001040
  H        2.0757780    -0.6878530    -0.0000530
units angstrom
no_reorient  #important for SAPT in psi4, default
symmetry c1  #important for SAPT in psi4, default
}

set PROPERTIES_ORIGIN ["COM"]
properties('MP2/aug-cc-pvtz', properties = ['dipole'])
--------------------------------------------------------------------------

    Molecular point group: c1
  Charge       = 0
  Multiplicity = 1
  Basis Set: AUG-CC-PVTZ
    Blend: AUG-CC-PVTZ
  Basis Set: (AUG-CC-PVTZ AUX)
    Blend: AUG-CC-PVTZ-JKFIT

    Orbital Energies [Eh]
    ---------------------

    Doubly Occupied:

       1A    -15.678953     2A    -15.664636     3A    -15.650437
       4A    -15.606455     5A    -11.314440     6A     -1.552174
       7A     -1.319158     8A     -1.158542     9A     -0.908542
      10A     -0.881799    11A     -0.800477    12A     -0.703519
      13A     -0.647732    14A     -0.611644    15A     -0.525897
      16A     -0.489753    17A     -0.430009    18A     -0.396747

  @DF-RHF Final Energy:  -256.81276781499912

   => Energetics <=

    Nuclear Repulsion Energy =            169.9555925844768467
    One-Electron Energy =                -684.8548931111793081
    Two-Electron Energy =                 258.0865327117033985
    Total Energy =                       -256.8127678149991198
  Basis Set: (AUG-CC-PVTZ AUX)
    Blend: AUG-CC-PVTZ-RI
    Molecular point group: c1

    Geometry (in Angstrom), charge = 0, multiplicity = 1:

       Center              X                  Y                   Z               Mass
    ------------   -----------------  -----------------  -----------------  -----------------
         N           -0.950578293122    -0.318816816161     0.000051213585    14.003074004430
         N            0.043311706878    -1.198884816161     0.000050213585    14.003074004430
         N           -0.589351293122     0.971238183839    -0.000016786415    14.003074004430
         N            0.544406806878     0.948531883839    -0.000064386415    14.003074004430
         C            1.095151706878    -0.359399816161    -0.000027786415    12.000000000000
         H           -1.926755293122    -0.600505816161     0.000103213585     1.007825032230
         H            2.117325706878    -0.706661816161    -0.000053786415     1.007825032230

  Basis Set: AUG-CC-PVTZ
    Blend: AUG-CC-PVTZ
  Basis Set: (AUG-CC-PVTZ AUX)
    Blend: AUG-CC-PVTZ-JKFIT
	 Reference Energy          =    -256.8127678149991198 [Eh]
	 Singles Energy            =      -0.0000000000000000 [Eh]
	 Same-Spin Energy          =      -0.2725434967348659 [Eh]
	 Opposite-Spin Energy      =      -0.7824992727094606 [Eh]
	 Correlation Energy        =      -1.0550427694443265 [Eh]
	 Total Energy              =    -257.8678105844434185 [Eh]

	 ================> DF-SCS-MP2 Energies <==================
	-----------------------------------------------------------
	 SCS Same-Spin Scale       =       0.3333333333333333 [-]
	 SCS Opposite-Spin Scale   =       1.2000000000000000 [-]
	 SCS Same-Spin Energy      =      -0.0908478322449553 [Eh]
	 SCS Opposite-Spin Energy  =      -0.9389991272513527 [Eh]
	 SCS Correlation Energy    =      -1.0298469594963080 [Eh]
	 SCS Total Energy          =    -257.8426147744954164 [Eh]
	-----------------------------------------------------------

  Dipole Moment: [D]
     X:    -0.8313      Y:    -1.6629      Z:     0.0001     Total:     1.8591

*** Psi4 exiting successfully. Buy a developer a beer!
