                               Psi4 1.4a3.dev225

  ==> Input File <==

--------------------------------------------------------------------------
#psi4
#
memory 32 gb

molecule  {
0 1
  N       -0.9921260    -0.3000080     0.0000520
  N        0.0017640    -1.1800760     0.0000510
  N       -0.6308990     0.9900470    -0.0000160
  N        0.7028190     0.9633360    -0.0000720
  C        1.0536040    -0.3405910    -0.0000270
  H       -2.0163429    -0.5955596     0.0001066
  H        2.0757780    -0.6878530    -0.0000530
units angstrom
no_reorient  #important for SAPT in psi4, default
symmetry c1  #important for SAPT in psi4, default
}

set PROPERTIES_ORIGIN ["COM"]
properties('MP2/aug-cc-pvtz', properties = ['dipole'])
--------------------------------------------------------------------------

    Molecular point group: c1
  Charge       = 0
  Multiplicity = 1
  Basis Set: AUG-CC-PVTZ
    Blend: AUG-CC-PVTZ
  Basis Set: (AUG-CC-PVTZ AUX)
    Blend: AUG-CC-PVTZ-JKFIT

    Orbital Energies [Eh]
    ---------------------

    Doubly Occupied:

       1A    -15.720432     2A    -15.683876     3A    -15.641755
       4A    -15.622231     5A    -11.312595     6A     -1.496789
       7A     -1.263122     8A     -1.178635     9A     -0.917278
      10A     -0.875961    11A     -0.774425    12A     -0.681243
      13A     -0.646533    14A     -0.574957    15A     -0.509888
      16A     -0.484774    17A     -0.450043    18A     -0.413347

  @DF-RHF Final Energy:  -256.83868641696068

   => Energetics <=

    Nuclear Repulsion Energy =            165.8543615887437852
    One-Electron Energy =                -676.8903290582973113
    Two-Electron Energy =                 254.1972810525928423
    Total Energy =                       -256.8386864169606270
  Basis Set: (AUG-CC-PVTZ AUX)
    Blend: AUG-CC-PVTZ-RI
    Molecular point group: c1

    Geometry (in Angstrom), charge = 0, multiplicity = 1:

       Center              X                  Y                   Z               Mass
    ------------   -----------------  -----------------  -----------------  -----------------
         N           -0.989871712647    -0.317816512859     0.000052855865    14.003074004430
         N            0.004018287353    -1.197884512859     0.000051855865    14.003074004430
         N           -0.628644712647     0.972238487141    -0.000015144135    14.003074004430
         N            0.705073287353     0.945527487141    -0.000071144135    14.003074004430
         C            1.055858287353    -0.358399512859    -0.000026144135    12.000000000000
         H           -2.014088612647    -0.613368112859     0.000107455865     1.007825032230
         H            2.078032287353    -0.705661512859    -0.000052144135     1.007825032230

  Basis Set: AUG-CC-PVTZ
    Blend: AUG-CC-PVTZ
  Basis Set: (AUG-CC-PVTZ AUX)
    Blend: AUG-CC-PVTZ-JKFIT
	 Reference Energy          =    -256.8386864169606838 [Eh]
	 Singles Energy            =      -0.0000000000000000 [Eh]
	 Same-Spin Energy          =      -0.2783473902803523 [Eh]
	 Opposite-Spin Energy      =      -0.7946174180247949 [Eh]
	 Correlation Energy        =      -1.0729648083051473 [Eh]
	 Total Energy              =    -257.9116512252658140 [Eh]

	 ================> DF-SCS-MP2 Energies <==================
	-----------------------------------------------------------
	 SCS Same-Spin Scale       =       0.3333333333333333 [-]
	 SCS Opposite-Spin Scale   =       1.2000000000000000 [-]
	 SCS Same-Spin Energy      =      -0.0927824634267841 [Eh]
	 SCS Opposite-Spin Energy  =      -0.9535409016297538 [Eh]
	 SCS Correlation Energy    =      -1.0463233650565380 [Eh]
	 SCS Total Energy          =    -257.8850097820172209 [Eh]
	-----------------------------------------------------------

  Dipole Moment: [D]
     X:    -1.3170      Y:    -2.0487      Z:     0.0001     Total:     2.4355

*** Psi4 exiting successfully. Buy a developer a beer!
