                               Psi4 1.3.2 release

  ==> Input File <==

--------------------------------------------------------------------------
#psi4
#
memory 32 gb

molecule  {
0 1
  N       -0.9921260    -0.3000080     0.0000520
  N        0.0017640    -1.1800760     0.0000510
  N       -0.6308990     0.9900470    -0.0000160
  N        0.7028190     0.9633360    -0.0000720
  C        1.0016469    -0.1474577    -0.0000337
  H       -1.9683030    -0.5816970     0.0001040
  H        2.0757780    -0.6878530    -0.0000530
units angstrom
no_reorient  #important for SAPT in psi4, default
symmetry c1  #important for SAPT in psi4, default
}

set PROPERTIES_ORIGIN ["COM"]
properties('MP2/aug-cc-pvtz', properties = ['dipole'])
--------------------------------------------------------------------------

    Molecular point group: c1
  Charge       = 0
  Multiplicity = 1
  Basis Set: AUG-CC-PVTZ
    Blend: AUG-CC-PVTZ
  Basis Set: (AUG-CC-PVTZ AUX)
    Blend: AUG-CC-PVTZ-JKFIT

    Orbital Energies [Eh]
    ---------------------

    Doubly Occupied:

       1A    -15.739396     2A    -15.673410     3A    -15.642682
       4A    -15.604917     5A    -11.306169     6A     -1.521809
       7A     -1.305357     8A     -1.183957     9A     -0.967681
      10A     -0.857750    11A     -0.776442    12A     -0.697539
      13A     -0.627698    14A     -0.577465    15A     -0.500481
      16A     -0.493936    17A     -0.483015    18A     -0.397810

  @DF-RHF Final Energy:  -256.77656200555998

   => Energetics <=

    Nuclear Repulsion Energy =            168.7223612028396644
    One-Electron Energy =                -682.2828185354181869
    Two-Electron Energy =                 256.7838953270185129
    Total Energy =                       -256.7765620055599811
  Basis Set: (AUG-CC-PVTZ AUX)
    Blend: AUG-CC-PVTZ-RI
    Molecular point group: c1

    Geometry (in Angstrom), charge = 0, multiplicity = 1:

       Center              X                  Y                   Z               Mass
    ------------   -----------------  -----------------  -----------------  -----------------
         N           -0.981659714175    -0.351111373064     0.000054041397    14.003074004430
         N            0.012230285825    -1.231179373064     0.000053041397    14.003074004430
         N           -0.620432714175     0.938943626936    -0.000013958603    14.003074004430
         N            0.713285285825     0.912232626936    -0.000069958603    14.003074004430
         C            1.012113185825    -0.198561073064    -0.000031658603    12.000000000000
         H           -1.957836714175    -0.632800373064     0.000106041397     1.007825032230
         H            2.086244285825    -0.738956373064    -0.000050958603     1.007825032230

  Basis Set: AUG-CC-PVTZ
    Blend: AUG-CC-PVTZ
  Basis Set: (AUG-CC-PVTZ AUX)
    Blend: AUG-CC-PVTZ-JKFIT
	 Reference Energy          =    -256.7765620055599811 [Eh]
	 Singles Energy            =      -0.0000000000000000 [Eh]
	 Same-Spin Energy          =      -0.2797935268068004 [Eh]
	 Opposite-Spin Energy      =      -0.7969340981283577 [Eh]
	 Correlation Energy        =      -1.0767276249351581 [Eh]
	 Total Energy              =    -257.8532896304951123 [Eh]

	 ================> DF-SCS-MP2 Energies <==================
	-----------------------------------------------------------
	 SCS Same-Spin Scale       =       0.3333333333333333 [-]
	 SCS Opposite-Spin Scale   =       1.2000000000000000 [-]
	 SCS Same-Spin Energy      =      -0.0932645089356001 [Eh]
	 SCS Opposite-Spin Energy  =      -0.9563209177540292 [Eh]
	 SCS Correlation Energy    =      -1.0495854266896294 [Eh]
	 SCS Total Energy          =    -257.8261474322496269 [Eh]
	-----------------------------------------------------------

  Dipole Moment: [D]
     X:    -1.3928      Y:    -1.7206      Z:     0.0001     Total:     2.2137

*** Psi4 exiting successfully. Buy a developer a beer!
