                               Psi4 1.3.2 release

  ==> Input File <==

--------------------------------------------------------------------------
#psi4
#
memory 32 gb

molecule  {
0 1
  N       -1.0222345    -0.3352304     0.0000547
  N        0.0017640    -1.1800760     0.0000510
  N       -0.6308990     0.9900470    -0.0000160
  N        0.7028190     0.9633360    -0.0000720
  C        1.0536040    -0.3405910    -0.0000270
  H       -1.9683030    -0.5816970     0.0001040
  H        2.0757780    -0.6878530    -0.0000530
units angstrom
no_reorient  #important for SAPT in psi4, default
symmetry c1  #important for SAPT in psi4, default
}

set PROPERTIES_ORIGIN ["COM"]
properties('MP2/aug-cc-pvtz', properties = ['dipole'])
--------------------------------------------------------------------------

    Molecular point group: c1
  Charge       = 0
  Multiplicity = 1
  Basis Set: AUG-CC-PVTZ
    Blend: AUG-CC-PVTZ
  Basis Set: (AUG-CC-PVTZ AUX)
    Blend: AUG-CC-PVTZ-JKFIT

    Orbital Energies [Eh]
    ---------------------

    Doubly Occupied:

       1A    -15.711929     2A    -15.686879     3A    -15.645359
       4A    -15.629195     5A    -11.313813     6A     -1.485755
       7A     -1.267790     8A     -1.175837     9A     -0.937477
      10A     -0.871624    11A     -0.780689    12A     -0.674542
      13A     -0.660552    14A     -0.576145    15A     -0.503620
      16A     -0.488630    17A     -0.456148    18A     -0.408872

  @DF-RHF Final Energy:  -256.83682739285069

   => Energetics <=

    Nuclear Repulsion Energy =            165.2640417000527293
    One-Electron Energy =                -675.6520249626393024
    Two-Electron Energy =                 253.5511558697358794
    Total Energy =                       -256.8368273928506369
  Basis Set: (AUG-CC-PVTZ AUX)
    Blend: AUG-CC-PVTZ-RI
    Molecular point group: c1

    Geometry (in Angstrom), charge = 0, multiplicity = 1:

       Center              X                  Y                   Z               Mass
    ------------   -----------------  -----------------  -----------------  -----------------
         N           -1.014650972525    -0.346195205091     0.000055053381    14.003074004430
         N            0.009347527475    -1.191040805091     0.000051353381    14.003074004430
         N           -0.623315472525     0.979082194909    -0.000015646619    14.003074004430
         N            0.710402527475     0.952371194909    -0.000071646619    14.003074004430
         C            1.061187527475    -0.351555805091    -0.000026646619    12.000000000000
         H           -1.960719472525    -0.592661805091     0.000104353381     1.007825032230
         H            2.083361527475    -0.698817805091    -0.000052646619     1.007825032230

  Basis Set: AUG-CC-PVTZ
    Blend: AUG-CC-PVTZ
  Basis Set: (AUG-CC-PVTZ AUX)
    Blend: AUG-CC-PVTZ-JKFIT
	 Reference Energy          =    -256.8368273928506937 [Eh]
	 Singles Energy            =      -0.0000000000000000 [Eh]
	 Same-Spin Energy          =      -0.2784005316619129 [Eh]
	 Opposite-Spin Energy      =      -0.7954855497508913 [Eh]
	 Correlation Energy        =      -1.0738860814128042 [Eh]
	 Total Energy              =    -257.9107134742635026 [Eh]

	 ================> DF-SCS-MP2 Energies <==================
	-----------------------------------------------------------
	 SCS Same-Spin Scale       =       0.3333333333333333 [-]
	 SCS Opposite-Spin Scale   =       1.2000000000000000 [-]
	 SCS Same-Spin Energy      =      -0.0928001772206376 [Eh]
	 SCS Opposite-Spin Energy  =      -0.9545826597010695 [Eh]
	 SCS Correlation Energy    =      -1.0473828369217071 [Eh]
	 SCS Total Energy          =    -257.8842102297724068 [Eh]
	-----------------------------------------------------------

  Dipole Moment: [D]
     X:    -1.1576      Y:    -1.9951      Z:     0.0001     Total:     2.3067

*** Psi4 exiting successfully. Buy a developer a beer!
