                               Psi4 1.3.2 release

  ==> Input File <==

--------------------------------------------------------------------------
#psi4
#
memory 32 gb

molecule  {
0 1
  N       -0.9921260    -0.3000080     0.0000520
  N        0.0017640    -1.1800760     0.0000510
  N       -0.6308990     0.9900470    -0.0000160
  N        0.7256291     0.9692594    -0.0000732
  C        1.0536040    -0.3405910    -0.0000270
  H       -1.9683030    -0.5816970     0.0001040
  H        2.0757780    -0.6878530    -0.0000530
units angstrom
no_reorient  #important for SAPT in psi4, default
symmetry c1  #important for SAPT in psi4, default
}

set PROPERTIES_ORIGIN ["COM"]
properties('MP2/aug-cc-pvtz', properties = ['dipole'])
--------------------------------------------------------------------------

    Molecular point group: c1
  Charge       = 0
  Multiplicity = 1
  Basis Set: AUG-CC-PVTZ
    Blend: AUG-CC-PVTZ
  Basis Set: (AUG-CC-PVTZ AUX)
    Blend: AUG-CC-PVTZ-JKFIT

    Orbital Energies [Eh]
    ---------------------

    Doubly Occupied:

       1A    -15.720543     2A    -15.686478     3A    -15.641759
       4A    -15.625658     5A    -11.313978     6A     -1.494803
       7A     -1.259819     8A     -1.183932     9A     -0.929882
      10A     -0.874788    11A     -0.777178    12A     -0.680726
      13A     -0.650285    14A     -0.573062    15A     -0.509270
      16A     -0.490506    17A     -0.448580    18A     -0.414872

  @DF-RHF Final Energy:  -256.83948272726457

   => Energetics <=

    Nuclear Repulsion Energy =            165.6174804775991731
    One-Electron Energy =                -676.3616908927407394
    Two-Electron Energy =                 253.9047276878769424
    Total Energy =                       -256.8394827272645671
  Basis Set: (AUG-CC-PVTZ AUX)
    Blend: AUG-CC-PVTZ-RI
    Molecular point group: c1

    Geometry (in Angstrom), charge = 0, multiplicity = 1:

       Center              X                  Y                   Z               Mass
    ------------   -----------------  -----------------  -----------------  -----------------
         N           -0.995124291834    -0.319200487247     0.000053133240    14.003074004430
         N           -0.001234291834    -1.199268487247     0.000052133240    14.003074004430
         N           -0.633897291834     0.970854512753    -0.000014866760    14.003074004430
         N            0.722630808166     0.950066912753    -0.000072066760    14.003074004430
         C            1.050605708166    -0.359783487247    -0.000025866760    12.000000000000
         H           -1.971301291834    -0.600889487247     0.000105133240     1.007825032230
         H            2.072779708166    -0.707045487247    -0.000051866760     1.007825032230

  Basis Set: AUG-CC-PVTZ
    Blend: AUG-CC-PVTZ
  Basis Set: (AUG-CC-PVTZ AUX)
    Blend: AUG-CC-PVTZ-JKFIT
	 Reference Energy          =    -256.8394827272645671 [Eh]
	 Singles Energy            =      -0.0000000000000000 [Eh]
	 Same-Spin Energy          =      -0.2784781491232761 [Eh]
	 Opposite-Spin Energy      =      -0.7952725455785266 [Eh]
	 Correlation Energy        =      -1.0737506947018027 [Eh]
	 Total Energy              =    -257.9132334219663676 [Eh]

	 ================> DF-SCS-MP2 Energies <==================
	-----------------------------------------------------------
	 SCS Same-Spin Scale       =       0.3333333333333333 [-]
	 SCS Opposite-Spin Scale   =       1.2000000000000000 [-]
	 SCS Same-Spin Energy      =      -0.0928260497077587 [Eh]
	 SCS Opposite-Spin Energy  =      -0.9543270546942318 [Eh]
	 SCS Correlation Energy    =      -1.0471531044019906 [Eh]
	 SCS Total Energy          =    -257.8866358316665810 [Eh]
	-----------------------------------------------------------

  Dipole Moment: [D]
     X:    -1.2697      Y:    -2.0522      Z:     0.0001     Total:     2.4133

*** Psi4 exiting successfully. Buy a developer a beer!
