                               Psi4 1.3.2 release

  ==> Input File <==

--------------------------------------------------------------------------
#psi4
#
memory 32 gb

molecule  {
0 1
  N       -0.9921260    -0.3000080     0.0000520
  N        0.0017640    -1.1800760     0.0000510
  N       -0.5769714     1.1826394    -0.0000262
  N        0.7028190     0.9633360    -0.0000720
  C        1.0536040    -0.3405910    -0.0000270
  H       -1.9683030    -0.5816970     0.0001040
  H        2.0757780    -0.6878530    -0.0000530
units angstrom
no_reorient  #important for SAPT in psi4, default
symmetry c1  #important for SAPT in psi4, default
}

set PROPERTIES_ORIGIN ["COM"]
properties('MP2/aug-cc-pvtz', properties = ['dipole'])
--------------------------------------------------------------------------

    Molecular point group: c1
  Charge       = 0
  Multiplicity = 1
  Basis Set: AUG-CC-PVTZ
    Blend: AUG-CC-PVTZ
  Basis Set: (AUG-CC-PVTZ AUX)
    Blend: AUG-CC-PVTZ-JKFIT

    Orbital Energies [Eh]
    ---------------------

    Doubly Occupied:

       1A    -15.704955     2A    -15.693904     3A    -15.666578
       4A    -15.636825     5A    -11.310803     6A     -1.460817
       7A     -1.288456     8A     -1.138406     9A     -0.933758
      10A     -0.844028    11A     -0.768522    12A     -0.656954
      13A     -0.652071    14A     -0.589429    15A     -0.519662
      16A     -0.474873    17A     -0.472876    18A     -0.389148

  @DF-RHF Final Energy:  -256.80246767605740

   => Energetics <=

    Nuclear Repulsion Energy =            162.7788515916498113
    One-Electron Energy =                -670.7585092548821422
    Two-Electron Energy =                 251.1771899871749270
    Total Energy =                       -256.8024676760574039
  Basis Set: (AUG-CC-PVTZ AUX)
    Blend: AUG-CC-PVTZ-RI
    Molecular point group: c1

    Geometry (in Angstrom), charge = 0, multiplicity = 1:

       Center              X                  Y                   Z               Mass
    ------------   -----------------  -----------------  -----------------  -----------------
         N           -1.001346674179    -0.356527582608     0.000054932917    14.003074004430
         N           -0.007456674179    -1.236595582608     0.000053932917    14.003074004430
         N           -0.586192074179     1.126119817392    -0.000023267083    14.003074004430
         N            0.693598325821     0.906816417392    -0.000069067083    14.003074004430
         C            1.044383325821    -0.397110582608    -0.000024067083    12.000000000000
         H           -1.977523674179    -0.638216582608     0.000106932917     1.007825032230
         H            2.066557325821    -0.744372582608    -0.000050067083     1.007825032230

  Basis Set: AUG-CC-PVTZ
    Blend: AUG-CC-PVTZ
  Basis Set: (AUG-CC-PVTZ AUX)
    Blend: AUG-CC-PVTZ-JKFIT
	 Reference Energy          =    -256.8024676760574039 [Eh]
	 Singles Energy            =      -0.0000000000000000 [Eh]
	 Same-Spin Energy          =      -0.2823764462118448 [Eh]
	 Opposite-Spin Energy      =      -0.8048778763569607 [Eh]
	 Correlation Energy        =      -1.0872543225688056 [Eh]
	 Total Energy              =    -257.8897219986262144 [Eh]

	 ================> DF-SCS-MP2 Energies <==================
	-----------------------------------------------------------
	 SCS Same-Spin Scale       =       0.3333333333333333 [-]
	 SCS Opposite-Spin Scale   =       1.2000000000000000 [-]
	 SCS Same-Spin Energy      =      -0.0941254820706149 [Eh]
	 SCS Opposite-Spin Energy  =      -0.9658534516283528 [Eh]
	 SCS Correlation Energy    =      -1.0599789336989678 [Eh]
	 SCS Total Energy          =    -257.8624466097563754 [Eh]
	-----------------------------------------------------------

  Dipole Moment: [D]
     X:    -0.9996      Y:    -1.8331      Z:     0.0001     Total:     2.0880

*** Psi4 exiting successfully. Buy a developer a beer!
