                               Psi4 1.4a3.dev225

  ==> Input File <==

--------------------------------------------------------------------------
#psi4
#
memory 32 gb

molecule  {
0 1
  N       -0.9921260    -0.3000080     0.0000520
  N        0.0017640    -1.1800760     0.0000510
  N       -0.6308990     0.9900470    -0.0000160
  N        0.7028190     0.9633360    -0.0000720
  C        1.0536040    -0.3405910    -0.0000270
  H       -1.9875190    -0.5872420     0.0001050
  H        2.0757780    -0.6878530    -0.0000530
units angstrom
no_reorient  #important for SAPT in psi4, default
symmetry c1  #important for SAPT in psi4, default
}

set PROPERTIES_ORIGIN ["COM"]
properties('MP2/aug-cc-pvtz', properties = ['dipole'])
--------------------------------------------------------------------------

    Molecular point group: c1
  Charge       = 0
  Multiplicity = 1
  Basis Set: AUG-CC-PVTZ
    Blend: AUG-CC-PVTZ
  Basis Set: (AUG-CC-PVTZ AUX)
    Blend: AUG-CC-PVTZ-JKFIT

    Orbital Energies [Eh]
    ---------------------

    Doubly Occupied:

       1A    -15.718408     2A    -15.684416     3A    -15.642162
       4A    -15.622714     5A    -11.313003     6A     -1.497854
       7A     -1.264306     8A     -1.180979     9A     -0.923169
      10A     -0.876608    11A     -0.777855    12A     -0.681904
      13A     -0.648955    14A     -0.576015    15A     -0.510322
      16A     -0.485279    17A     -0.450657    18A     -0.413901

  @DF-RHF Final Energy:  -256.84146964533790

   => Energetics <=

    Nuclear Repulsion Energy =            166.0196951986468719
    One-Electron Energy =                -677.1853125519537571
    Two-Electron Energy =                 254.3241477079689332
    Total Energy =                       -256.8414696453379520
  Basis Set: (AUG-CC-PVTZ AUX)
    Blend: AUG-CC-PVTZ-RI
    Molecular point group: c1

    Geometry (in Angstrom), charge = 0, multiplicity = 1:

       Center              X                  Y                   Z               Mass
    ------------   -----------------  -----------------  -----------------  -----------------
         N           -0.990286539150    -0.317936217719     0.000052878892    14.003074004430
         N            0.003603460850    -1.198004217719     0.000051878892    14.003074004430
         N           -0.629059539150     0.972118782281    -0.000015121108    14.003074004430
         N            0.704658460850     0.945407782281    -0.000071121108    14.003074004430
         C            1.055443460850    -0.358519217719    -0.000026121108    12.000000000000
         H           -1.985679539150    -0.605170217719     0.000105878892     1.007825032230
         H            2.077617460850    -0.705781217719    -0.000052121108     1.007825032230

  Basis Set: AUG-CC-PVTZ
    Blend: AUG-CC-PVTZ
  Basis Set: (AUG-CC-PVTZ AUX)
    Blend: AUG-CC-PVTZ-JKFIT
	 Reference Energy          =    -256.8414696453378951 [Eh]
	 Singles Energy            =      -0.0000000000000000 [Eh]
	 Same-Spin Energy          =      -0.2780699721696378 [Eh]
	 Opposite-Spin Energy      =      -0.7940508120873557 [Eh]
	 Correlation Energy        =      -1.0721207842569935 [Eh]
	 Total Energy              =    -257.9135904295948762 [Eh]

	 ================> DF-SCS-MP2 Energies <==================
	-----------------------------------------------------------
	 SCS Same-Spin Scale       =       0.3333333333333333 [-]
	 SCS Opposite-Spin Scale   =       1.2000000000000000 [-]
	 SCS Same-Spin Energy      =      -0.0926899907232126 [Eh]
	 SCS Opposite-Spin Energy  =      -0.9528609745048269 [Eh]
	 SCS Correlation Energy    =      -1.0455509652280395 [Eh]
	 SCS Total Energy          =    -257.8870206105659122 [Eh]
	-----------------------------------------------------------

  Dipole Moment: [D]
     X:    -1.2692      Y:    -2.0343      Z:     0.0001     Total:     2.3978

*** Psi4 exiting successfully. Buy a developer a beer!
