                               Psi4 1.3.2 release

  ==> Input File <==

--------------------------------------------------------------------------
#psi4
#
memory 32 gb

molecule  {
0 1
  N       -1.1249946    -0.2551824     0.0000559
  N        0.0017640    -1.1800760     0.0000510
  N       -0.6308990     0.9900470    -0.0000160
  N        0.7028190     0.9633360    -0.0000720
  C        1.0536040    -0.3405910    -0.0000270
  H       -1.9683030    -0.5816970     0.0001040
  H        2.0757780    -0.6878530    -0.0000530
units angstrom
no_reorient  #important for SAPT in psi4, default
symmetry c1  #important for SAPT in psi4, default
}

set PROPERTIES_ORIGIN ["COM"]
properties('MP2/aug-cc-pvtz', properties = ['dipole'])
--------------------------------------------------------------------------

    Molecular point group: c1
  Charge       = 0
  Multiplicity = 1
  Basis Set: AUG-CC-PVTZ
    Blend: AUG-CC-PVTZ
  Basis Set: (AUG-CC-PVTZ AUX)
    Blend: AUG-CC-PVTZ-JKFIT

    Orbital Energies [Eh]
    ---------------------

    Doubly Occupied:

       1A    -15.703957     2A    -15.698989     3A    -15.641510
       4A    -15.626860     5A    -11.323064     6A     -1.470327
       7A     -1.243796     8A     -1.189889     9A     -0.964697
      10A     -0.860850    11A     -0.784106    12A     -0.663139
      13A     -0.654521    14A     -0.587314    15A     -0.490908
      16A     -0.483331    17A     -0.445226    18A     -0.423472

  @DF-RHF Final Energy:  -256.80950725536667

   => Energetics <=

    Nuclear Repulsion Energy =            163.6580247965705439
    One-Electron Energy =                -672.4231524928264889
    Two-Electron Energy =                 251.9556204408892768
    Total Energy =                       -256.8095072553666682
  Basis Set: (AUG-CC-PVTZ AUX)
    Blend: AUG-CC-PVTZ-RI
    Molecular point group: c1

    Geometry (in Angstrom), charge = 0, multiplicity = 1:

       Center              X                  Y                   Z               Mass
    ------------   -----------------  -----------------  -----------------  -----------------
         N           -1.096862743387    -0.282153929986     0.000056013424    14.003074004430
         N            0.029895856613    -1.207047529986     0.000051113424    14.003074004430
         N           -0.602767143387     0.963075470014    -0.000015886576    14.003074004430
         N            0.730950856613     0.936364470014    -0.000071886576    14.003074004430
         C            1.081735856613    -0.367562529986    -0.000026886576    12.000000000000
         H           -1.940171143387    -0.608668529986     0.000104113424     1.007825032230
         H            2.103909856613    -0.714824529986    -0.000052886576     1.007825032230

  Basis Set: AUG-CC-PVTZ
    Blend: AUG-CC-PVTZ
  Basis Set: (AUG-CC-PVTZ AUX)
    Blend: AUG-CC-PVTZ-JKFIT
	 Reference Energy          =    -256.8095072553666682 [Eh]
	 Singles Energy            =      -0.0000000000000000 [Eh]
	 Same-Spin Energy          =      -0.2770231437396382 [Eh]
	 Opposite-Spin Energy      =      -0.7961553708994311 [Eh]
	 Correlation Energy        =      -1.0731785146390693 [Eh]
	 Total Energy              =    -257.8826857700057644 [Eh]

	 ================> DF-SCS-MP2 Energies <==================
	-----------------------------------------------------------
	 SCS Same-Spin Scale       =       0.3333333333333333 [-]
	 SCS Opposite-Spin Scale   =       1.2000000000000000 [-]
	 SCS Same-Spin Energy      =      -0.0923410479132127 [Eh]
	 SCS Opposite-Spin Energy  =      -0.9553864450793172 [Eh]
	 SCS Correlation Energy    =      -1.0477274929925300 [Eh]
	 SCS Total Energy          =    -257.8572347483591898 [Eh]
	-----------------------------------------------------------

  Dipole Moment: [D]
     X:    -1.0240      Y:    -1.8836      Z:     0.0001     Total:     2.1440

*** Psi4 exiting successfully. Buy a developer a beer!
