                               Psi4 1.4a3.dev225

  ==> Input File <==

--------------------------------------------------------------------------
#psi4
#
memory 32 gb

molecule  {
0 1
  N       -0.9921260    -0.3000080     0.0000520
  N        0.0391978    -1.2132228     0.0000510
  N       -0.6308990     0.9900470    -0.0000160
  N        0.7028190     0.9633360    -0.0000720
  C        1.0536040    -0.3405910    -0.0000270
  H       -1.9683030    -0.5816970     0.0001040
  H        2.0757780    -0.6878530    -0.0000530
units angstrom
no_reorient  #important for SAPT in psi4, default
symmetry c1  #important for SAPT in psi4, default
}

set PROPERTIES_ORIGIN ["COM"]
properties('MP2/aug-cc-pvtz', properties = ['dipole'])
--------------------------------------------------------------------------

    Molecular point group: c1
  Charge       = 0
  Multiplicity = 1
  Basis Set: AUG-CC-PVTZ
    Blend: AUG-CC-PVTZ
  Basis Set: (AUG-CC-PVTZ AUX)
    Blend: AUG-CC-PVTZ-JKFIT

    Orbital Energies [Eh]
    ---------------------

    Doubly Occupied:

       1A    -15.713694     2A    -15.693239     3A    -15.645603
       4A    -15.622515     5A    -11.315425     6A     -1.487996
       7A     -1.254928     8A     -1.186312     9A     -0.927974
      10A     -0.868850    11A     -0.778795    12A     -0.675382
      13A     -0.640648    14A     -0.580769    15A     -0.515085
      16A     -0.486347    17A     -0.445588    18A     -0.421632

  @DF-RHF Final Energy:  -256.83756993221840

   => Energetics <=

    Nuclear Repulsion Energy =            165.1899622602042257
    One-Electron Energy =                -675.5335010927888106
    Two-Electron Energy =                 253.5059689003662413
    Total Energy =                       -256.8375699322183436
  Basis Set: (AUG-CC-PVTZ AUX)
    Blend: AUG-CC-PVTZ-RI
    Molecular point group: c1

    Geometry (in Angstrom), charge = 0, multiplicity = 1:

       Center              X                  Y                   Z               Mass
    ------------   -----------------  -----------------  -----------------  -----------------
         N           -0.998048506591    -0.311387850542     0.000052893284    14.003074004430
         N            0.033275293409    -1.224602650542     0.000051893284    14.003074004430
         N           -0.636821506591     0.978667149458    -0.000015106716    14.003074004430
         N            0.696896493409     0.951956149458    -0.000071106716    14.003074004430
         C            1.047681493409    -0.351970850542    -0.000026106716    12.000000000000
         H           -1.974225506591    -0.593076850542     0.000104893284     1.007825032230
         H            2.069855493409    -0.699232850542    -0.000052106716     1.007825032230

  Basis Set: AUG-CC-PVTZ
    Blend: AUG-CC-PVTZ
  Basis Set: (AUG-CC-PVTZ AUX)
    Blend: AUG-CC-PVTZ-JKFIT
	 Reference Energy          =    -256.8375699322184005 [Eh]
	 Singles Energy            =      -0.0000000000000000 [Eh]
	 Same-Spin Energy          =      -0.2780440007346024 [Eh]
	 Opposite-Spin Energy      =      -0.7953452572938318 [Eh]
	 Correlation Energy        =      -1.0733892580284343 [Eh]
	 Total Energy              =    -257.9109591902468424 [Eh]

	 ================> DF-SCS-MP2 Energies <==================
	-----------------------------------------------------------
	 SCS Same-Spin Scale       =       0.3333333333333333 [-]
	 SCS Opposite-Spin Scale   =       1.2000000000000000 [-]
	 SCS Same-Spin Energy      =      -0.0926813335782008 [Eh]
	 SCS Opposite-Spin Energy  =      -0.9544143087525980 [Eh]
	 SCS Correlation Energy    =      -1.0470956423307989 [Eh]
	 SCS Total Energy          =    -257.8846655745492171 [Eh]
	-----------------------------------------------------------

  Dipole Moment: [D]
     X:    -1.2312      Y:    -1.9696      Z:     0.0001     Total:     2.3227

*** Psi4 exiting successfully. Buy a developer a beer!
