                               Psi4 1.3.2 release

  ==> Input File <==

--------------------------------------------------------------------------
#psi4
#
memory 32 gb

molecule  {
0 1
  N       -0.9921260    -0.3000080     0.0000520
  N        0.0017640    -1.1800760     0.0000510
  N       -0.6308990     0.9900470    -0.0000160
  N        0.7485391     0.9747839    -0.0000744
  C        1.0536040    -0.3405910    -0.0000270
  H       -1.9683030    -0.5816970     0.0001040
  H        2.0757780    -0.6878530    -0.0000530
units angstrom
no_reorient  #important for SAPT in psi4, default
symmetry c1  #important for SAPT in psi4, default
}

set PROPERTIES_ORIGIN ["COM"]
properties('MP2/aug-cc-pvtz', properties = ['dipole'])
--------------------------------------------------------------------------

    Molecular point group: c1
  Charge       = 0
  Multiplicity = 1
  Basis Set: AUG-CC-PVTZ
    Blend: AUG-CC-PVTZ
  Basis Set: (AUG-CC-PVTZ AUX)
    Blend: AUG-CC-PVTZ-JKFIT

    Orbital Energies [Eh]
    ---------------------

    Doubly Occupied:

       1A    -15.724023     2A    -15.688041     3A    -15.641059
       4A    -15.628178     5A    -11.314710     6A     -1.491451
       7A     -1.254582     8A     -1.185179     9A     -0.932546
      10A     -0.872485    11A     -0.774211    12A     -0.679264
      13A     -0.650019    14A     -0.569590    15A     -0.508611
      16A     -0.494308    17A     -0.446538    18A     -0.415155

  @DF-RHF Final Energy:  -256.83548713239082

   => Energetics <=

    Nuclear Repulsion Energy =            165.1151112025880252
    One-Electron Energy =                -675.3612988004306317
    Two-Electron Energy =                 253.4107004654518107
    Total Energy =                       -256.8354871323907673
  Basis Set: (AUG-CC-PVTZ AUX)
    Blend: AUG-CC-PVTZ-RI
    Molecular point group: c1

    Geometry (in Angstrom), charge = 0, multiplicity = 1:

       Center              X                  Y                   Z               Mass
    ------------   -----------------  -----------------  -----------------  -----------------
         N           -0.999705468970    -0.320305188822     0.000053373197    14.003074004430
         N           -0.005815468970    -1.200373188822     0.000052373197    14.003074004430
         N           -0.638478468970     0.969749811178    -0.000014626803    14.003074004430
         N            0.740959631030     0.954486711178    -0.000073026803    14.003074004430
         C            1.046024531030    -0.360888188822    -0.000025626803    12.000000000000
         H           -1.975882468970    -0.601994188822     0.000105373197     1.007825032230
         H            2.068198531030    -0.708150188822    -0.000051626803     1.007825032230

  Basis Set: AUG-CC-PVTZ
    Blend: AUG-CC-PVTZ
  Basis Set: (AUG-CC-PVTZ AUX)
    Blend: AUG-CC-PVTZ-JKFIT
	 Reference Energy          =    -256.8354871323908242 [Eh]
	 Singles Energy            =      -0.0000000000000000 [Eh]
	 Same-Spin Energy          =      -0.2790671310843960 [Eh]
	 Opposite-Spin Energy      =      -0.7968876744715736 [Eh]
	 Correlation Energy        =      -1.0759548055559696 [Eh]
	 Total Energy              =    -257.9114419379467904 [Eh]

	 ================> DF-SCS-MP2 Energies <==================
	-----------------------------------------------------------
	 SCS Same-Spin Scale       =       0.3333333333333333 [-]
	 SCS Opposite-Spin Scale   =       1.2000000000000000 [-]
	 SCS Same-Spin Energy      =      -0.0930223770281320 [Eh]
	 SCS Opposite-Spin Energy  =      -0.9562652093658883 [Eh]
	 SCS Correlation Energy    =      -1.0492875863940203 [Eh]
	 SCS Total Energy          =    -257.8847747187848540 [Eh]
	-----------------------------------------------------------

  Dipole Moment: [D]
     X:    -1.3003      Y:    -2.0769      Z:     0.0001     Total:     2.4503

*** Psi4 exiting successfully. Buy a developer a beer!
