                               Psi4 1.3.2 release

  ==> Input File <==

--------------------------------------------------------------------------
#psi4
#
memory 32 gb

molecule  {
0 1
  N       -0.9468837    -0.3118288     0.0000505
  N        0.0017640    -1.1800760     0.0000510
  N       -0.6308990     0.9900470    -0.0000160
  N        0.7028190     0.9633360    -0.0000720
  C        1.0536040    -0.3405910    -0.0000270
  H       -1.9683030    -0.5816970     0.0001040
  H        2.0757780    -0.6878530    -0.0000530
units angstrom
no_reorient  #important for SAPT in psi4, default
symmetry c1  #important for SAPT in psi4, default
}

set PROPERTIES_ORIGIN ["COM"]
properties('MP2/aug-cc-pvtz', properties = ['dipole'])
--------------------------------------------------------------------------

    Molecular point group: c1
  Charge       = 0
  Multiplicity = 1
  Basis Set: AUG-CC-PVTZ
    Blend: AUG-CC-PVTZ
  Basis Set: (AUG-CC-PVTZ AUX)
    Blend: AUG-CC-PVTZ-JKFIT

    Orbital Energies [Eh]
    ---------------------

    Doubly Occupied:

       1A    -15.721513     2A    -15.680026     3A    -15.643157
       4A    -15.621991     5A    -11.310131     6A     -1.512045
       7A     -1.277802     8A     -1.177376     9A     -0.916916
      10A     -0.883209    11A     -0.778740    12A     -0.690988
      13A     -0.646358    14A     -0.572300    15A     -0.516492
      16A     -0.485889    17A     -0.455823    18A     -0.409233

  @DF-RHF Final Energy:  -256.83914280059042

   => Energetics <=

    Nuclear Repulsion Energy =            167.0599887643240322
    One-Electron Energy =                -679.1982840933924308
    Two-Electron Energy =                 255.2991525284779186
    Total Energy =                       -256.8391428005904231
  Basis Set: (AUG-CC-PVTZ AUX)
    Blend: AUG-CC-PVTZ-RI
    Molecular point group: c1

    Geometry (in Angstrom), charge = 0, multiplicity = 1:

       Center              X                  Y                   Z               Mass
    ------------   -----------------  -----------------  -----------------  -----------------
         N           -0.954367626131    -0.327473084570     0.000051693230    14.003074004430
         N           -0.005719926131    -1.195720284570     0.000052193230    14.003074004430
         N           -0.638382926131     0.974402715430    -0.000014806770    14.003074004430
         N            0.695335073869     0.947691715430    -0.000070806770    14.003074004430
         C            1.046120073869    -0.356235284570    -0.000025806770    12.000000000000
         H           -1.975786926131    -0.597341284570     0.000105193230     1.007825032230
         H            2.068294073869    -0.703497284570    -0.000051806770     1.007825032230

  Basis Set: AUG-CC-PVTZ
    Blend: AUG-CC-PVTZ
  Basis Set: (AUG-CC-PVTZ AUX)
    Blend: AUG-CC-PVTZ-JKFIT
	 Reference Energy          =    -256.8391428005904231 [Eh]
	 Singles Energy            =      -0.0000000000000000 [Eh]
	 Same-Spin Energy          =      -0.2783320674923652 [Eh]
	 Opposite-Spin Energy      =      -0.7934999818191100 [Eh]
	 Correlation Energy        =      -1.0718320493114750 [Eh]
	 Total Energy              =    -257.9109748499018906 [Eh]

	 ================> DF-SCS-MP2 Energies <==================
	-----------------------------------------------------------
	 SCS Same-Spin Scale       =       0.3333333333333333 [-]
	 SCS Opposite-Spin Scale   =       1.2000000000000000 [-]
	 SCS Same-Spin Energy      =      -0.0927773558307884 [Eh]
	 SCS Opposite-Spin Energy  =      -0.9521999781829319 [Eh]
	 SCS Correlation Energy    =      -1.0449773340137203 [Eh]
	 SCS Total Energy          =    -257.8841201346041316 [Eh]
	-----------------------------------------------------------

  Dipole Moment: [D]
     X:    -1.2858      Y:    -2.0753      Z:     0.0001     Total:     2.4413

*** Psi4 exiting successfully. Buy a developer a beer!
