                               Psi4 1.3.2 release

  ==> Input File <==

--------------------------------------------------------------------------
#psi4
#
memory 32 gb

molecule  {
0 1
  N       -0.9921260    -0.3000080     0.0000520
  N        0.0017640    -1.1800760     0.0000510
  N       -0.6311620     0.9667663    -0.0000149
  N        0.7028190     0.9633360    -0.0000720
  C        1.0536040    -0.3405910    -0.0000270
  H       -1.9683030    -0.5816970     0.0001040
  H        2.0757780    -0.6878530    -0.0000530
units angstrom
no_reorient  #important for SAPT in psi4, default
symmetry c1  #important for SAPT in psi4, default
}

set PROPERTIES_ORIGIN ["COM"]
properties('MP2/aug-cc-pvtz', properties = ['dipole'])
--------------------------------------------------------------------------

    Molecular point group: c1
  Charge       = 0
  Multiplicity = 1
  Basis Set: AUG-CC-PVTZ
    Blend: AUG-CC-PVTZ
  Basis Set: (AUG-CC-PVTZ AUX)
    Blend: AUG-CC-PVTZ-JKFIT

    Orbital Energies [Eh]
    ---------------------

    Doubly Occupied:

       1A    -15.718573     2A    -15.681718     3A    -15.639133
       4A    -15.621445     5A    -11.313317     6A     -1.505789
       7A     -1.263721     8A     -1.188256     9A     -0.927702
      10A     -0.880455    11A     -0.781711    12A     -0.686638
      13A     -0.650258    14A     -0.576433    15A     -0.508251
      16A     -0.485773    17A     -0.449487    18A     -0.416796

  @DF-RHF Final Energy:  -256.84504563385087

   => Energetics <=

    Nuclear Repulsion Energy =            166.6670049271932612
    One-Electron Energy =                -678.4331869308549585
    Two-Electron Energy =                 254.9211363698108244
    Total Energy =                       -256.8450456338508729
  Basis Set: (AUG-CC-PVTZ AUX)
    Blend: AUG-CC-PVTZ-RI
    Molecular point group: c1

    Geometry (in Angstrom), charge = 0, multiplicity = 1:

       Center              X                  Y                   Z               Mass
    ------------   -----------------  -----------------  -----------------  -----------------
         N           -0.990510500557    -0.313360716178     0.000052673323    14.003074004430
         N            0.003379499443    -1.193428716178     0.000051673323    14.003074004430
         N           -0.629546500557     0.953413583822    -0.000014226677    14.003074004430
         N            0.704434499443     0.949983283822    -0.000071326677    14.003074004430
         C            1.055219499443    -0.353943716178    -0.000026326677    12.000000000000
         H           -1.966687500557    -0.595049716178     0.000104673323     1.007825032230
         H            2.077393499443    -0.701205716178    -0.000052326677     1.007825032230

  Basis Set: AUG-CC-PVTZ
    Blend: AUG-CC-PVTZ
  Basis Set: (AUG-CC-PVTZ AUX)
    Blend: AUG-CC-PVTZ-JKFIT
	 Reference Energy          =    -256.8450456338508729 [Eh]
	 Singles Energy            =      -0.0000000000000000 [Eh]
	 Same-Spin Energy          =      -0.2772123788565609 [Eh]
	 Opposite-Spin Energy      =      -0.7920543699739762 [Eh]
	 Correlation Energy        =      -1.0692667488305370 [Eh]
	 Total Energy              =    -257.9143123826814303 [Eh]

	 ================> DF-SCS-MP2 Energies <==================
	-----------------------------------------------------------
	 SCS Same-Spin Scale       =       0.3333333333333333 [-]
	 SCS Opposite-Spin Scale   =       1.2000000000000000 [-]
	 SCS Same-Spin Energy      =      -0.0924041262855203 [Eh]
	 SCS Opposite-Spin Energy  =      -0.9504652439687713 [Eh]
	 SCS Correlation Energy    =      -1.0428693702542917 [Eh]
	 SCS Total Energy          =    -257.8879150041051389 [Eh]
	-----------------------------------------------------------

  Dipole Moment: [D]
     X:    -1.2677      Y:    -2.0198      Z:     0.0001     Total:     2.3847

*** Psi4 exiting successfully. Buy a developer a beer!
