                               Psi4 1.3.2 release

  ==> Input File <==

--------------------------------------------------------------------------
#psi4
#
memory 32 gb

molecule  {
0 1
  N       -0.9921260    -0.3000080     0.0000520
  N        0.0017640    -1.1800760     0.0000510
  N       -0.6308990     0.9900470    -0.0000160
  N        0.7028190     0.9633360    -0.0000720
  C        1.1317629    -0.2782116    -0.0000328
  H       -1.9683030    -0.5816970     0.0001040
  H        2.0757780    -0.6878530    -0.0000530
units angstrom
no_reorient  #important for SAPT in psi4, default
symmetry c1  #important for SAPT in psi4, default
}

set PROPERTIES_ORIGIN ["COM"]
properties('MP2/aug-cc-pvtz', properties = ['dipole'])
--------------------------------------------------------------------------

    Molecular point group: c1
  Charge       = 0
  Multiplicity = 1
  Basis Set: AUG-CC-PVTZ
    Blend: AUG-CC-PVTZ
  Basis Set: (AUG-CC-PVTZ AUX)
    Blend: AUG-CC-PVTZ-JKFIT

    Orbital Energies [Eh]
    ---------------------

    Doubly Occupied:

       1A    -15.726363     2A    -15.676966     3A    -15.647554
       4A    -15.621871     5A    -11.317094     6A     -1.490996
       7A     -1.262949     8A     -1.173034     9A     -0.931951
      10A     -0.879353    11A     -0.779530    12A     -0.676673
      13A     -0.658004    14A     -0.587292    15A     -0.501413
      16A     -0.475800    17A     -0.458100    18A     -0.398433

  @DF-RHF Final Energy:  -256.82586599458023

   => Energetics <=

    Nuclear Repulsion Energy =            165.0514128172375479
    One-Electron Energy =                -675.2278047672624552
    Two-Electron Energy =                 253.3505259554446809
    Total Energy =                       -256.8258659945802265
  Basis Set: (AUG-CC-PVTZ AUX)
    Blend: AUG-CC-PVTZ-RI
    Molecular point group: c1

    Geometry (in Angstrom), charge = 0, multiplicity = 1:

       Center              X                  Y                   Z               Mass
    ------------   -----------------  -----------------  -----------------  -----------------
         N           -1.003956412670    -0.328705363924     0.000053887172    14.003074004430
         N           -0.010066412670    -1.208773363924     0.000052887172    14.003074004430
         N           -0.642729412670     0.961349636076    -0.000014112828    14.003074004430
         N            0.690988587330     0.934638636076    -0.000070112828    14.003074004430
         C            1.119932487330    -0.306908963924    -0.000030912828    12.000000000000
         H           -1.980133412670    -0.610394363924     0.000105887172     1.007825032230
         H            2.063947587330    -0.716550363924    -0.000051112828     1.007825032230

  Basis Set: AUG-CC-PVTZ
    Blend: AUG-CC-PVTZ
  Basis Set: (AUG-CC-PVTZ AUX)
    Blend: AUG-CC-PVTZ-JKFIT
	 Reference Energy          =    -256.8258659945802265 [Eh]
	 Singles Energy            =      -0.0000000000000000 [Eh]
	 Same-Spin Energy          =      -0.2798837315771651 [Eh]
	 Opposite-Spin Energy      =      -0.7977224144042261 [Eh]
	 Correlation Energy        =      -1.0776061459813913 [Eh]
	 Total Energy              =    -257.9034721405616324 [Eh]

	 ================> DF-SCS-MP2 Energies <==================
	-----------------------------------------------------------
	 SCS Same-Spin Scale       =       0.3333333333333333 [-]
	 SCS Opposite-Spin Scale   =       1.2000000000000000 [-]
	 SCS Same-Spin Energy      =      -0.0932945771923884 [Eh]
	 SCS Opposite-Spin Energy  =      -0.9572668972850713 [Eh]
	 SCS Correlation Energy    =      -1.0505614744774596 [Eh]
	 SCS Total Energy          =    -257.8764274690576599 [Eh]
	-----------------------------------------------------------

  Dipole Moment: [D]
     X:    -1.1390      Y:    -1.9465      Z:     0.0001     Total:     2.2553

*** Psi4 exiting successfully. Buy a developer a beer!
