                               Psi4 1.3.2 release

  ==> Input File <==

--------------------------------------------------------------------------
#psi4
#
memory 32 gb

molecule  {
0 1
  N       -0.9921260    -0.3000080     0.0000520
  N        0.0017640    -1.1800760     0.0000510
  N       -0.6308990     0.9900470    -0.0000160
  N        0.7028190     0.9633360    -0.0000720
  C        1.0536040    -0.3405910    -0.0000270
  H       -1.9683030    -0.5816970     0.0001040
  H        2.1704631    -0.7200203    -0.0000554
units angstrom
no_reorient  #important for SAPT in psi4, default
symmetry c1  #important for SAPT in psi4, default
}

set PROPERTIES_ORIGIN ["COM"]
properties('MP2/aug-cc-pvtz', properties = ['dipole'])
--------------------------------------------------------------------------

    Molecular point group: c1
  Charge       = 0
  Multiplicity = 1
  Basis Set: AUG-CC-PVTZ
    Blend: AUG-CC-PVTZ
  Basis Set: (AUG-CC-PVTZ AUX)
    Blend: AUG-CC-PVTZ-JKFIT

    Orbital Energies [Eh]
    ---------------------

    Doubly Occupied:

       1A    -15.717287     2A    -15.685260     3A    -15.642809
       4A    -15.623535     5A    -11.323144     6A     -1.499071
       7A     -1.265609     8A     -1.181520     9A     -0.927112
      10A     -0.868123    11A     -0.776910    12A     -0.682725
      13A     -0.633453    14A     -0.570646    15A     -0.510808
      16A     -0.485990    17A     -0.451400    18A     -0.414407

  @DF-RHF Final Energy:  -256.83492068300558

   => Energetics <=

    Nuclear Repulsion Energy =            165.6769533479698566
    One-Electron Energy =                -676.5041298406374608
    Two-Electron Energy =                 253.9922558096620264
    Total Energy =                       -256.8349206830055778
  Basis Set: (AUG-CC-PVTZ AUX)
    Blend: AUG-CC-PVTZ-RI
    Molecular point group: c1

    Geometry (in Angstrom), charge = 0, multiplicity = 1:

       Center              X                  Y                   Z               Mass
    ------------   -----------------  -----------------  -----------------  -----------------
         N           -0.991925775857    -0.317553076104     0.000052927824    14.003074004430
         N            0.001964224143    -1.197621076104     0.000051927824    14.003074004430
         N           -0.630698775857     0.972501923896    -0.000015072176    14.003074004430
         N            0.703019224143     0.945790923896    -0.000071072176    14.003074004430
         C            1.053804224143    -0.358136076104    -0.000026072176    12.000000000000
         H           -1.968102775857    -0.599242076104     0.000104927824     1.007825032230
         H            2.170663324143    -0.737565376104    -0.000054472176     1.007825032230

  Basis Set: AUG-CC-PVTZ
    Blend: AUG-CC-PVTZ
  Basis Set: (AUG-CC-PVTZ AUX)
    Blend: AUG-CC-PVTZ-JKFIT
	 Reference Energy          =    -256.8349206830055778 [Eh]
	 Singles Energy            =      -0.0000000000000000 [Eh]
	 Same-Spin Energy          =      -0.2781191216370760 [Eh]
	 Opposite-Spin Energy      =      -0.7943611715807819 [Eh]
	 Correlation Energy        =      -1.0724802932178579 [Eh]
	 Total Energy              =    -257.9074009762234141 [Eh]

	 ================> DF-SCS-MP2 Energies <==================
	-----------------------------------------------------------
	 SCS Same-Spin Scale       =       0.3333333333333333 [-]
	 SCS Opposite-Spin Scale   =       1.2000000000000000 [-]
	 SCS Same-Spin Energy      =      -0.0927063738790253 [Eh]
	 SCS Opposite-Spin Energy  =      -0.9532334058969383 [Eh]
	 SCS Correlation Energy    =      -1.0459397797759635 [Eh]
	 SCS Total Energy          =    -257.8808604627815271 [Eh]
	-----------------------------------------------------------

  Dipole Moment: [D]
     X:    -1.2123      Y:    -2.0308      Z:     0.0001     Total:     2.3651

*** Psi4 exiting successfully. Buy a developer a beer!
