                               Psi4 1.4a3.dev225

  ==> Input File <==

--------------------------------------------------------------------------
#psi4
#
memory 32 gb

molecule  {
0 1
  N       -0.9921260    -0.3000080     0.0000520
  N        0.0017640    -1.1800760     0.0000510
  N       -0.6308990     0.9900470    -0.0000160
  N        0.7028190     0.9633360    -0.0000720
  C        1.0692358    -0.3281151    -0.0000282
  H       -1.9683030    -0.5816970     0.0001040
  H        2.0757780    -0.6878530    -0.0000530
units angstrom
no_reorient  #important for SAPT in psi4, default
symmetry c1  #important for SAPT in psi4, default
}

set PROPERTIES_ORIGIN ["COM"]
properties('MP2/aug-cc-pvtz', properties = ['dipole'])
--------------------------------------------------------------------------

    Molecular point group: c1
  Charge       = 0
  Multiplicity = 1
  Basis Set: AUG-CC-PVTZ
    Blend: AUG-CC-PVTZ
  Basis Set: (AUG-CC-PVTZ AUX)
    Blend: AUG-CC-PVTZ-JKFIT

    Orbital Energies [Eh]
    ---------------------

    Doubly Occupied:

       1A    -15.718934     2A    -15.683281     3A    -15.643693
       4A    -15.622739     5A    -11.314038     6A     -1.496937
       7A     -1.264166     8A     -1.180815     9A     -0.927962
      10A     -0.877794    11A     -0.779581    12A     -0.681104
      13A     -0.652152    14A     -0.579319    15A     -0.508672
      16A     -0.484192    17A     -0.452150    18A     -0.411061

  @DF-RHF Final Energy:  -256.84095885217215

   => Energetics <=

    Nuclear Repulsion Energy =            165.9085739963762194
    One-Electron Energy =                -676.9418842206600857
    Two-Electron Energy =                 254.1923513721117160
    Total Energy =                       -256.8409588521721503
  Basis Set: (AUG-CC-PVTZ AUX)
    Blend: AUG-CC-PVTZ-RI
    Molecular point group: c1

    Geometry (in Angstrom), charge = 0, multiplicity = 1:

       Center              X                  Y                   Z               Mass
    ------------   -----------------  -----------------  -----------------  -----------------
         N           -0.993241758850    -0.320153892211     0.000053098916    14.003074004430
         N            0.000648241150    -1.200221892211     0.000052098916    14.003074004430
         N           -0.632014758850     0.969901107789    -0.000014901084    14.003074004430
         N            0.701703241150     0.943190107789    -0.000070901084    14.003074004430
         C            1.068120041150    -0.348260992211    -0.000027101084    12.000000000000
         H           -1.969418758850    -0.601842892211     0.000105098916     1.007825032230
         H            2.074662241150    -0.707998892211    -0.000051901084     1.007825032230

  Basis Set: AUG-CC-PVTZ
    Blend: AUG-CC-PVTZ
  Basis Set: (AUG-CC-PVTZ AUX)
    Blend: AUG-CC-PVTZ-JKFIT
	 Reference Energy          =    -256.8409588521721503 [Eh]
	 Singles Energy            =      -0.0000000000000000 [Eh]
	 Same-Spin Energy          =      -0.2782917411544213 [Eh]
	 Opposite-Spin Energy      =      -0.7944453546559190 [Eh]
	 Correlation Energy        =      -1.0727370958103404 [Eh]
	 Total Energy              =    -257.9136959479824895 [Eh]

	 ================> DF-SCS-MP2 Energies <==================
	-----------------------------------------------------------
	 SCS Same-Spin Scale       =       0.3333333333333333 [-]
	 SCS Opposite-Spin Scale   =       1.2000000000000000 [-]
	 SCS Same-Spin Energy      =      -0.0927639137181404 [Eh]
	 SCS Opposite-Spin Energy  =      -0.9533344255871028 [Eh]
	 SCS Correlation Energy    =      -1.0460983393052432 [Eh]
	 SCS Total Energy          =    -257.8870571914773677 [Eh]
	-----------------------------------------------------------

  Dipole Moment: [D]
     X:    -1.2201      Y:    -2.0121      Z:     0.0001     Total:     2.3531

*** Psi4 exiting successfully. Buy a developer a beer!
