                               Psi4 1.3.2 release

  ==> Input File <==

--------------------------------------------------------------------------
#psi4
#
memory 32 gb

molecule  {
0 1
  N       -0.9921260    -0.3000080     0.0000520
  N        0.0017640    -1.1800760     0.0000510
  N       -0.6308990     0.9900470    -0.0000160
  N        0.7028190     0.9633360    -0.0000720
  C        1.0795825    -0.4371576    -0.0000237
  H       -1.9683030    -0.5816970     0.0001040
  H        2.0757780    -0.6878530    -0.0000530
units angstrom
no_reorient  #important for SAPT in psi4, default
symmetry c1  #important for SAPT in psi4, default
}

set PROPERTIES_ORIGIN ["COM"]
properties('MP2/aug-cc-pvtz', properties = ['dipole'])
--------------------------------------------------------------------------

    Molecular point group: c1
  Charge       = 0
  Multiplicity = 1
  Basis Set: AUG-CC-PVTZ
    Blend: AUG-CC-PVTZ
  Basis Set: (AUG-CC-PVTZ AUX)
    Blend: AUG-CC-PVTZ-JKFIT

    Orbital Energies [Eh]
    ---------------------

    Doubly Occupied:

       1A    -15.707473     2A    -15.688358     3A    -15.642652
       4A    -15.628048     5A    -11.315710     6A     -1.490536
       7A     -1.259375     8A     -1.177332     9A     -0.910815
      10A     -0.886483    11A     -0.775618    12A     -0.677562
      13A     -0.677522    14A     -0.570942    15A     -0.512684
      16A     -0.471650    17A     -0.445732    18A     -0.414947

  @DF-RHF Final Energy:  -256.83261035819061

   => Energetics <=

    Nuclear Repulsion Energy =            165.0709568575651929
    One-Electron Energy =                -675.3002542674774986
    Two-Electron Energy =                 253.3966870517216705
    Total Energy =                       -256.8326103581906636
  Basis Set: (AUG-CC-PVTZ AUX)
    Blend: AUG-CC-PVTZ-RI
    Molecular point group: c1

    Geometry (in Angstrom), charge = 0, multiplicity = 1:

       Center              X                  Y                   Z               Mass
    ------------   -----------------  -----------------  -----------------  -----------------
         N           -0.995014771010    -0.301468352035     0.000052327795    14.003074004430
         N           -0.001124771010    -1.181536352035     0.000051327795    14.003074004430
         N           -0.633787771010     0.988586647965    -0.000015672205    14.003074004430
         N            0.699930228990     0.961875647965    -0.000071672205    14.003074004430
         C            1.076693728990    -0.438617952035    -0.000023372205    12.000000000000
         H           -1.971191771010    -0.583157352035     0.000104327795     1.007825032230
         H            2.072889228990    -0.689313352035    -0.000052672205     1.007825032230

  Basis Set: AUG-CC-PVTZ
    Blend: AUG-CC-PVTZ
  Basis Set: (AUG-CC-PVTZ AUX)
    Blend: AUG-CC-PVTZ-JKFIT
	 Reference Energy          =    -256.8326103581906068 [Eh]
	 Singles Energy            =      -0.0000000000000000 [Eh]
	 Same-Spin Energy          =      -0.2771945961484975 [Eh]
	 Opposite-Spin Energy      =      -0.7940436933483903 [Eh]
	 Correlation Energy        =      -1.0712382894968879 [Eh]
	 Total Energy              =    -257.9038486476874823 [Eh]

	 ================> DF-SCS-MP2 Energies <==================
	-----------------------------------------------------------
	 SCS Same-Spin Scale       =       0.3333333333333333 [-]
	 SCS Opposite-Spin Scale   =       1.2000000000000000 [-]
	 SCS Same-Spin Energy      =      -0.0923981987161658 [Eh]
	 SCS Opposite-Spin Energy  =      -0.9528524320180684 [Eh]
	 SCS Correlation Energy    =      -1.0452506307342342 [Eh]
	 SCS Total Energy          =    -257.8778609889248514 [Eh]
	-----------------------------------------------------------

  Dipole Moment: [D]
     X:    -1.1522      Y:    -2.0966      Z:     0.0001     Total:     2.3923

*** Psi4 exiting successfully. Buy a developer a beer!
