                               Psi4 1.3.2 release

  ==> Input File <==

--------------------------------------------------------------------------
#psi4
#
memory 32 gb

molecule  {
0 1
  N       -0.9921260    -0.3000080     0.0000520
  N        0.0017640    -1.1800760     0.0000510
  N       -0.6308990     0.9900470    -0.0000160
  N        0.6127161     0.9356902    -0.0000671
  C        1.0536040    -0.3405910    -0.0000270
  H       -1.9683030    -0.5816970     0.0001040
  H        2.0757780    -0.6878530    -0.0000530
units angstrom
no_reorient  #important for SAPT in psi4, default
symmetry c1  #important for SAPT in psi4, default
}

set PROPERTIES_ORIGIN ["COM"]
properties('MP2/aug-cc-pvtz', properties = ['dipole'])
--------------------------------------------------------------------------

    Molecular point group: c1
  Charge       = 0
  Multiplicity = 1
  Basis Set: AUG-CC-PVTZ
    Blend: AUG-CC-PVTZ
  Basis Set: (AUG-CC-PVTZ AUX)
    Blend: AUG-CC-PVTZ-JKFIT

    Orbital Energies [Eh]
    ---------------------

    Doubly Occupied:

       1A    -15.701876     2A    -15.676747     3A    -15.644926
       4A    -15.611604     5A    -11.310812     6A     -1.519244
       7A     -1.286829     8A     -1.177127     9A     -0.920193
      10A     -0.883636    11A     -0.791143    12A     -0.690910
      13A     -0.650914    14A     -0.592528    15A     -0.516777
      16A     -0.464102    17A     -0.461337    18A     -0.409912

  @DF-RHF Final Energy:  -256.84369943804700

   => Energetics <=

    Nuclear Repulsion Energy =            168.3456809240114183
    One-Electron Energy =                -681.7575262690374984
    Two-Electron Energy =                 256.5681459069791117
    Total Energy =                       -256.8436994380469969
  Basis Set: (AUG-CC-PVTZ AUX)
    Blend: AUG-CC-PVTZ-RI
    Molecular point group: c1

    Geometry (in Angstrom), charge = 0, multiplicity = 1:

       Center              X                  Y                   Z               Mass
    ------------   -----------------  -----------------  -----------------  -----------------
         N           -0.972545747360    -0.312487852961     0.000051913460    14.003074004430
         N            0.021344252640    -1.192555852961     0.000050913460    14.003074004430
         N           -0.611318747360     0.977567147039    -0.000016086540    14.003074004430
         N            0.632296352640     0.923210347039    -0.000067186540    14.003074004430
         C            1.073184252640    -0.353070852961    -0.000027086540    12.000000000000
         H           -1.948722747360    -0.594176852961     0.000103913460     1.007825032230
         H            2.095358252640    -0.700332852961    -0.000053086540     1.007825032230

  Basis Set: AUG-CC-PVTZ
    Blend: AUG-CC-PVTZ
  Basis Set: (AUG-CC-PVTZ AUX)
    Blend: AUG-CC-PVTZ-JKFIT
	 Reference Energy          =    -256.8436994380469969 [Eh]
	 Singles Energy            =      -0.0000000000000000 [Eh]
	 Same-Spin Energy          =      -0.2756378028545122 [Eh]
	 Opposite-Spin Energy      =      -0.7879282582668178 [Eh]
	 Correlation Energy        =      -1.0635660611213300 [Eh]
	 Total Energy              =    -257.9072654991683180 [Eh]

	 ================> DF-SCS-MP2 Energies <==================
	-----------------------------------------------------------
	 SCS Same-Spin Scale       =       0.3333333333333333 [-]
	 SCS Opposite-Spin Scale   =       1.2000000000000000 [-]
	 SCS Same-Spin Energy      =      -0.0918792676181707 [Eh]
	 SCS Opposite-Spin Energy  =      -0.9455139099201813 [Eh]
	 SCS Correlation Energy    =      -1.0373931775383520 [Eh]
	 SCS Total Energy          =    -257.8810926155853736 [Eh]
	-----------------------------------------------------------

  Dipole Moment: [D]
     X:    -1.0804      Y:    -1.8808      Z:     0.0001     Total:     2.1690

*** Psi4 exiting successfully. Buy a developer a beer!
