                               Psi4 1.4a3.dev225

  ==> Input File <==

--------------------------------------------------------------------------
#psi4
#
memory 32 gb

molecule  {
0 1
  N       -0.9921260    -0.3000080     0.0000520
  N        0.0017640    -1.1800760     0.0000510
  N       -0.6308990     0.9900470    -0.0000160
  N        0.7028190     0.9633360    -0.0000720
  C        1.0926834    -0.3094013    -0.0000299
  H       -1.9683030    -0.5816970     0.0001040
  H        2.0757780    -0.6878530    -0.0000530
units angstrom
no_reorient  #important for SAPT in psi4, default
symmetry c1  #important for SAPT in psi4, default
}

set PROPERTIES_ORIGIN ["COM"]
properties('MP2/aug-cc-pvtz', properties = ['dipole'])
--------------------------------------------------------------------------

    Molecular point group: c1
  Charge       = 0
  Multiplicity = 1
  Basis Set: AUG-CC-PVTZ
    Blend: AUG-CC-PVTZ
  Basis Set: (AUG-CC-PVTZ AUX)
    Blend: AUG-CC-PVTZ-JKFIT

    Orbital Energies [Eh]
    ---------------------

    Doubly Occupied:

       1A    -15.721819     2A    -15.680970     3A    -15.645362
       4A    -15.622341     5A    -11.315167     6A     -1.494590
       7A     -1.263261     8A     -1.177934     9A     -0.929211
      10A     -0.878592    11A     -0.779177    12A     -0.679353
      13A     -0.654544    14A     -0.582780    15A     -0.505836
      16A     -0.481544    17A     -0.454155    18A     -0.406219

  @DF-RHF Final Energy:  -256.83678240810337

   => Energetics <=

    Nuclear Repulsion Energy =            165.5795952949406171
    One-Electron Energy =                -676.2870402605622075
    Two-Electron Energy =                 253.8706625575181874
    Total Energy =                       -256.8367824081033746
  Basis Set: (AUG-CC-PVTZ AUX)
    Blend: AUG-CC-PVTZ-RI
    Molecular point group: c1

    Geometry (in Angstrom), charge = 0, multiplicity = 1:

       Center              X                  Y                   Z               Mass
    ------------   -----------------  -----------------  -----------------  -----------------
         N           -0.997259743322    -0.323360691962     0.000053390228    14.003074004430
         N           -0.003369743322    -1.203428691962     0.000052390228    14.003074004430
         N           -0.636032743322     0.966694308038    -0.000014609772    14.003074004430
         N            0.697685256678     0.939983308038    -0.000070609772    14.003074004430
         C            1.087549656678    -0.332753991962    -0.000028509772    12.000000000000
         H           -1.973436743322    -0.605049691962     0.000105390228     1.007825032230
         H            2.070644256678    -0.711205691962    -0.000051609772     1.007825032230

  Basis Set: AUG-CC-PVTZ
    Blend: AUG-CC-PVTZ
  Basis Set: (AUG-CC-PVTZ AUX)
    Blend: AUG-CC-PVTZ-JKFIT
	 Reference Energy          =    -256.8367824081033746 [Eh]
	 Singles Energy            =      -0.0000000000000000 [Eh]
	 Same-Spin Energy          =      -0.2788932148084145 [Eh]
	 Opposite-Spin Energy      =      -0.7956264484967350 [Eh]
	 Correlation Energy        =      -1.0745196633051495 [Eh]
	 Total Energy              =    -257.9113020714084996 [Eh]

	 ================> DF-SCS-MP2 Energies <==================
	-----------------------------------------------------------
	 SCS Same-Spin Scale       =       0.3333333333333333 [-]
	 SCS Opposite-Spin Scale   =       1.2000000000000000 [-]
	 SCS Same-Spin Energy      =      -0.0929644049361382 [Eh]
	 SCS Opposite-Spin Energy  =      -0.9547517381960819 [Eh]
	 SCS Correlation Energy    =      -1.0477161431322202 [Eh]
	 SCS Total Energy          =    -257.8844985512355947 [Eh]
	-----------------------------------------------------------

  Dipole Moment: [D]
     X:    -1.1922      Y:    -1.9906      Z:     0.0001     Total:     2.3203

*** Psi4 exiting successfully. Buy a developer a beer!
