                               Psi4 1.3.2 release

  ==> Input File <==

--------------------------------------------------------------------------
#psi4
#
memory 32 gb

molecule  {
0 1
  N       -0.9921260    -0.3000080     0.0000520
  N        0.0017640    -1.1800760     0.0000510
  N       -0.6308990     0.9900470    -0.0000160
  N        0.7028190     0.9633360    -0.0000720
  C        1.0536040    -0.3405910    -0.0000270
  H       -1.7761435    -0.5262468     0.0000938
  H        2.0757780    -0.6878530    -0.0000530
units angstrom
no_reorient  #important for SAPT in psi4, default
symmetry c1  #important for SAPT in psi4, default
}

set PROPERTIES_ORIGIN ["COM"]
properties('MP2/aug-cc-pvtz', properties = ['dipole'])
--------------------------------------------------------------------------

    Molecular point group: c1
  Charge       = 0
  Multiplicity = 1
  Basis Set: AUG-CC-PVTZ
    Blend: AUG-CC-PVTZ
  Basis Set: (AUG-CC-PVTZ AUX)
    Blend: AUG-CC-PVTZ-JKFIT

    Orbital Energies [Eh]
    ---------------------

    Doubly Occupied:

       1A    -15.699053     2A    -15.688628     3A    -15.645318
       4A    -15.626473     5A    -11.316144     6A     -1.508804
       7A     -1.278883     8A     -1.204276     9A     -0.977973
      10A     -0.881249    11A     -0.798984    12A     -0.687020
      13A     -0.663419    14A     -0.582541    15A     -0.513531
      16A     -0.488941    17A     -0.455463    18A     -0.418008

  @DF-RHF Final Energy:  -256.79899061575065

   => Energetics <=

    Nuclear Repulsion Energy =            167.4974442529967007
    One-Electron Energy =                -679.7234547850162016
    Two-Electron Energy =                 255.4270199162688471
    Total Energy =                       -256.7989906157506539
  Basis Set: (AUG-CC-PVTZ AUX)
    Blend: AUG-CC-PVTZ-RI
    Molecular point group: c1

    Geometry (in Angstrom), charge = 0, multiplicity = 1:

       Center              X                  Y                   Z               Mass
    ------------   -----------------  -----------------  -----------------  -----------------
         N           -0.993328603526    -0.318814045684     0.000053040079    14.003074004430
         N            0.000561396474    -1.198882045684     0.000052040079    14.003074004430
         N           -0.632101603526     0.971240954316    -0.000014959921    14.003074004430
         N            0.701616396474     0.944529954316    -0.000070959921    14.003074004430
         C            1.052401396474    -0.359397045684    -0.000025959921    12.000000000000
         H           -1.777346103526    -0.545052845684     0.000094840079     1.007825032230
         H            2.074575396474    -0.706659045684    -0.000051959921     1.007825032230

  Basis Set: AUG-CC-PVTZ
    Blend: AUG-CC-PVTZ
  Basis Set: (AUG-CC-PVTZ AUX)
    Blend: AUG-CC-PVTZ-JKFIT
	 Reference Energy          =    -256.7989906157506539 [Eh]
	 Singles Energy            =      -0.0000000000000000 [Eh]
	 Same-Spin Energy          =      -0.2763785881617695 [Eh]
	 Opposite-Spin Energy      =      -0.7913212881222429 [Eh]
	 Correlation Energy        =      -1.0676998762840124 [Eh]
	 Total Energy              =    -257.8666904920346497 [Eh]

	 ================> DF-SCS-MP2 Energies <==================
	-----------------------------------------------------------
	 SCS Same-Spin Scale       =       0.3333333333333333 [-]
	 SCS Opposite-Spin Scale   =       1.2000000000000000 [-]
	 SCS Same-Spin Energy      =      -0.0921261960539232 [Eh]
	 SCS Opposite-Spin Energy  =      -0.9495855457466914 [Eh]
	 SCS Correlation Energy    =      -1.0417117418006145 [Eh]
	 SCS Total Energy          =    -257.8407023575512653 [Eh]
	-----------------------------------------------------------

  Dipole Moment: [D]
     X:    -0.9190      Y:    -1.9285      Z:     0.0001     Total:     2.1362

*** Psi4 exiting successfully. Buy a developer a beer!
