                               Psi4 1.3.2 release

  ==> Input File <==

--------------------------------------------------------------------------
#psi4
#
memory 32 gb

molecule  {
0 1
  N       -0.8552997    -0.3306994     0.0000474
  N        0.0017640    -1.1800760     0.0000510
  N       -0.6308990     0.9900470    -0.0000160
  N        0.7028190     0.9633360    -0.0000720
  C        1.0536040    -0.3405910    -0.0000270
  H       -1.9683030    -0.5816970     0.0001040
  H        2.0757780    -0.6878530    -0.0000530
units angstrom
no_reorient  #important for SAPT in psi4, default
symmetry c1  #important for SAPT in psi4, default
}

set PROPERTIES_ORIGIN ["COM"]
properties('MP2/aug-cc-pvtz', properties = ['dipole'])
--------------------------------------------------------------------------

    Molecular point group: c1
  Charge       = 0
  Multiplicity = 1
  Basis Set: AUG-CC-PVTZ
    Blend: AUG-CC-PVTZ
  Basis Set: (AUG-CC-PVTZ AUX)
    Blend: AUG-CC-PVTZ-JKFIT

    Orbital Energies [Eh]
    ---------------------

    Doubly Occupied:

       1A    -15.730967     2A    -15.671070     3A    -15.645678
       4A    -15.620583     5A    -11.304916     6A     -1.546914
       7A     -1.306618     8A     -1.165852     9A     -0.908361
      10A     -0.886377    11A     -0.779474    12A     -0.712500
      13A     -0.636327    14A     -0.561257    15A     -0.526278
      16A     -0.485216    17A     -0.467250    18A     -0.399208

  @DF-RHF Final Energy:  -256.80826168012362

   => Energetics <=

    Nuclear Repulsion Energy =            169.0650908027269281
    One-Electron Energy =                -683.0370125509959962
    Two-Electron Energy =                 257.1636600681454752
    Total Energy =                       -256.8082616801236213
  Basis Set: (AUG-CC-PVTZ AUX)
    Blend: AUG-CC-PVTZ-RI
    Molecular point group: c1

    Geometry (in Angstrom), charge = 0, multiplicity = 1:

       Center              X                  Y                   Z               Mass
    ------------   -----------------  -----------------  -----------------  -----------------
         N           -0.881097136685    -0.342570242350     0.000049213118    14.003074004430
         N           -0.024033436685    -1.191946842350     0.000052813118    14.003074004430
         N           -0.656696436685     0.978176157650    -0.000014186882    14.003074004430
         N            0.677021563315     0.951465157650    -0.000070186882    14.003074004430
         C            1.027806563315    -0.352461842350    -0.000025186882    12.000000000000
         H           -1.994100436685    -0.593567842350     0.000105813118     1.007825032230
         H            2.049980563315    -0.699723842350    -0.000051186882     1.007825032230

  Basis Set: AUG-CC-PVTZ
    Blend: AUG-CC-PVTZ
  Basis Set: (AUG-CC-PVTZ AUX)
    Blend: AUG-CC-PVTZ-JKFIT
	 Reference Energy          =    -256.8082616801236213 [Eh]
	 Singles Energy            =      -0.0000000000000000 [Eh]
	 Same-Spin Energy          =      -0.2792214848385482 [Eh]
	 Opposite-Spin Energy      =      -0.7938898021390647 [Eh]
	 Correlation Energy        =      -1.0731112869776129 [Eh]
	 Total Energy              =    -257.8813729671012425 [Eh]

	 ================> DF-SCS-MP2 Energies <==================
	-----------------------------------------------------------
	 SCS Same-Spin Scale       =       0.3333333333333333 [-]
	 SCS Opposite-Spin Scale   =       1.2000000000000000 [-]
	 SCS Same-Spin Energy      =      -0.0930738282795161 [Eh]
	 SCS Opposite-Spin Energy  =      -0.9526677625668776 [Eh]
	 SCS Correlation Energy    =      -1.0457415908463936 [Eh]
	 SCS Total Energy          =    -257.8540032709699972 [Eh]
	-----------------------------------------------------------

  Dipole Moment: [D]
     X:    -1.3142      Y:    -2.1853      Z:     0.0001     Total:     2.5500

*** Psi4 exiting successfully. Buy a developer a beer!
