                               Psi4 1.4a3.dev225

  ==> Input File <==

--------------------------------------------------------------------------
#psi4
#
memory 32 gb

molecule  {
0 1
  N       -0.9921260    -0.3000080     0.0000520
  N        0.0017640    -1.1800760     0.0000510
  N       -0.6308990     0.9900470    -0.0000160
  N        0.7028190     0.9633360    -0.0000720
  C        1.0536040    -0.3405910    -0.0000270
  H       -1.9490870    -0.5761520     0.0001030
  H        2.0757780    -0.6878530    -0.0000530
units angstrom
no_reorient  #important for SAPT in psi4, default
symmetry c1  #important for SAPT in psi4, default
}

set PROPERTIES_ORIGIN ["COM"]
properties('MP2/aug-cc-pvtz', properties = ['dipole'])
--------------------------------------------------------------------------

    Molecular point group: c1
  Charge       = 0
  Multiplicity = 1
  Basis Set: AUG-CC-PVTZ
    Blend: AUG-CC-PVTZ
  Basis Set: (AUG-CC-PVTZ AUX)
    Blend: AUG-CC-PVTZ-JKFIT

    Orbital Energies [Eh]
    ---------------------

    Doubly Occupied:

       1A    -15.715454     2A    -15.685147     3A    -15.642712
       4A    -15.623370     5A    -11.313556     6A     -1.499394
       7A     -1.266076     8A     -1.184398     9A     -0.931724
      10A     -0.877463    11A     -0.782278    12A     -0.682798
      13A     -0.652009    14A     -0.577349    15A     -0.510901
      16A     -0.485951    17A     -0.451489    18A     -0.414644

  @DF-RHF Final Energy:  -256.84309261362165

   => Energetics <=

    Nuclear Repulsion Energy =            166.2514900148644585
    One-Electron Energy =                -677.5957436149873274
    Two-Electron Energy =                 254.5011609865012190
    Total Energy =                       -256.8430926136217067
  Basis Set: (AUG-CC-PVTZ AUX)
    Blend: AUG-CC-PVTZ-RI
    Molecular point group: c1

    Geometry (in Angstrom), charge = 0, multiplicity = 1:

       Center              X                  Y                   Z               Mass
    ------------   -----------------  -----------------  -----------------  -----------------
         N           -0.990839643072    -0.318095822280     0.000052907675    14.003074004430
         N            0.003050356928    -1.198163822280     0.000051907675    14.003074004430
         N           -0.629612643072     0.971959177720    -0.000015092325    14.003074004430
         N            0.704105356928     0.945248177720    -0.000071092325    14.003074004430
         C            1.054890356928    -0.358678822280    -0.000026092325    12.000000000000
         H           -1.947800643072    -0.594239822280     0.000103907675     1.007825032230
         H            2.077064356928    -0.705940822280    -0.000052092325     1.007825032230

  Basis Set: AUG-CC-PVTZ
    Blend: AUG-CC-PVTZ
  Basis Set: (AUG-CC-PVTZ AUX)
    Blend: AUG-CC-PVTZ-JKFIT
	 Reference Energy          =    -256.8430926136216499 [Eh]
	 Singles Energy            =      -0.0000000000000000 [Eh]
	 Same-Spin Energy          =      -0.2777123880087538 [Eh]
	 Opposite-Spin Energy      =      -0.7933585437670849 [Eh]
	 Correlation Energy        =      -1.0710709317758387 [Eh]
	 Total Energy              =    -257.9141635453975141 [Eh]

	 ================> DF-SCS-MP2 Energies <==================
	-----------------------------------------------------------
	 SCS Same-Spin Scale       =       0.3333333333333333 [-]
	 SCS Opposite-Spin Scale   =       1.2000000000000000 [-]
	 SCS Same-Spin Energy      =      -0.0925707960029179 [Eh]
	 SCS Opposite-Spin Energy  =      -0.9520302525205019 [Eh]
	 SCS Correlation Energy    =      -1.0446010485234198 [Eh]
	 SCS Total Energy          =    -257.8876936621450682 [Eh]
	-----------------------------------------------------------

  Dipole Moment: [D]
     X:    -1.2051      Y:    -2.0150      Z:     0.0001     Total:     2.3479

*** Psi4 exiting successfully. Buy a developer a beer!
