                               Psi4 1.3.2 release

  ==> Input File <==

--------------------------------------------------------------------------
#psi4
#
memory 32 gb

molecule  {
0 1
  N       -0.9921260    -0.3000080     0.0000520
  N        0.0017640    -1.1800760     0.0000510
  N       -0.6295134     0.8969465    -0.0000118
  N        0.7028190     0.9633360    -0.0000720
  C        1.0536040    -0.3405910    -0.0000270
  H       -1.9683030    -0.5816970     0.0001040
  H        2.0757780    -0.6878530    -0.0000530
units angstrom
no_reorient  #important for SAPT in psi4, default
symmetry c1  #important for SAPT in psi4, default
}

set PROPERTIES_ORIGIN ["COM"]
properties('MP2/aug-cc-pvtz', properties = ['dipole'])
--------------------------------------------------------------------------

    Molecular point group: c1
  Charge       = 0
  Multiplicity = 1
  Basis Set: AUG-CC-PVTZ
    Blend: AUG-CC-PVTZ
  Basis Set: (AUG-CC-PVTZ AUX)
    Blend: AUG-CC-PVTZ-JKFIT

    Orbital Energies [Eh]
    ---------------------

    Doubly Occupied:

       1A    -15.722718     2A    -15.672022     3A    -15.628843
       4A    -15.616903     5A    -11.313359     6A     -1.530502
       7A     -1.259425     8A     -1.205538     9A     -0.931196
      10A     -0.888997    11A     -0.786131    12A     -0.701158
      13A     -0.649405    14A     -0.576928    15A     -0.498853
      16A     -0.485242    17A     -0.446203    18A     -0.423042

  @DF-RHF Final Energy:  -256.84561711339143

   => Energetics <=

    Nuclear Repulsion Energy =            168.3504612932167390
    One-Electron Energy =                -681.7192271356260562
    Two-Electron Energy =                 256.5231487290178620
    Total Energy =                       -256.8456171133914268
  Basis Set: (AUG-CC-PVTZ AUX)
    Blend: AUG-CC-PVTZ-RI
    Molecular point group: c1

    Geometry (in Angstrom), charge = 0, multiplicity = 1:

       Center              X                  Y                   Z               Mass
    ------------   -----------------  -----------------  -----------------  -----------------
         N           -0.990840161344    -0.299399263914     0.000052053434    14.003074004430
         N            0.003049838656    -1.179467263914     0.000051053434    14.003074004430
         N           -0.628227561344     0.897555236086    -0.000011746566    14.003074004430
         N            0.704104838656     0.963944736086    -0.000071946566    14.003074004430
         C            1.054889838656    -0.339982263914    -0.000026946566    12.000000000000
         H           -1.967017161344    -0.581088263914     0.000104053434     1.007825032230
         H            2.077063838656    -0.687244263914    -0.000052946566     1.007825032230

  Basis Set: AUG-CC-PVTZ
    Blend: AUG-CC-PVTZ
  Basis Set: (AUG-CC-PVTZ AUX)
    Blend: AUG-CC-PVTZ-JKFIT
	 Reference Energy          =    -256.8456171133914268 [Eh]
	 Singles Energy            =      -0.0000000000000000 [Eh]
	 Same-Spin Energy          =      -0.2752526435730540 [Eh]
	 Opposite-Spin Energy      =      -0.7873323611298835 [Eh]
	 Correlation Energy        =      -1.0625850047029375 [Eh]
	 Total Energy              =    -257.9082021180943798 [Eh]

	 ================> DF-SCS-MP2 Energies <==================
	-----------------------------------------------------------
	 SCS Same-Spin Scale       =       0.3333333333333333 [-]
	 SCS Opposite-Spin Scale   =       1.2000000000000000 [-]
	 SCS Same-Spin Energy      =      -0.0917508811910180 [Eh]
	 SCS Opposite-Spin Energy  =      -0.9447988333558601 [Eh]
	 SCS Correlation Energy    =      -1.0365497145468781 [Eh]
	 SCS Total Energy          =    -257.8821668279383061 [Eh]
	-----------------------------------------------------------

  Dipole Moment: [D]
     X:    -1.3722      Y:    -1.9745      Z:     0.0001     Total:     2.4045

*** Psi4 exiting successfully. Buy a developer a beer!
