                               Psi4 1.3.2 release

  ==> Input File <==

--------------------------------------------------------------------------
#psi4
#
memory 32 gb

molecule  {
0 1
  N       -0.9921260    -0.3000080     0.0000520
  N        0.0017640    -1.1800760     0.0000510
  N       -0.6308990     0.9900470    -0.0000160
  N        0.7946308     0.9846292    -0.0000767
  C        1.0536040    -0.3405910    -0.0000270
  H       -1.9683030    -0.5816970     0.0001040
  H        2.0757780    -0.6878530    -0.0000530
units angstrom
no_reorient  #important for SAPT in psi4, default
symmetry c1  #important for SAPT in psi4, default
}

set PROPERTIES_ORIGIN ["COM"]
properties('MP2/aug-cc-pvtz', properties = ['dipole'])
--------------------------------------------------------------------------

    Molecular point group: c1
  Charge       = 0
  Multiplicity = 1
  Basis Set: AUG-CC-PVTZ
    Blend: AUG-CC-PVTZ
  Basis Set: (AUG-CC-PVTZ AUX)
    Blend: AUG-CC-PVTZ-JKFIT

    Orbital Energies [Eh]
    ---------------------

    Doubly Occupied:

       1A    -15.730657     2A    -15.690751     3A    -15.639587
       4A    -15.632946     5A    -11.316270     6A     -1.485915
       7A     -1.244538     8A     -1.187545     9A     -0.938073
      10A     -0.867916    11A     -0.768148    12A     -0.676749
      13A     -0.649373    14A     -0.563221    15A     -0.512076
      16A     -0.495848    17A     -0.444038    18A     -0.414569

  @DF-RHF Final Energy:  -256.82535379175067

   => Energetics <=

    Nuclear Repulsion Energy =            164.1513181682240656
    One-Electron Energy =                -673.4369038257661941
    Two-Electron Energy =                 252.4602318657914566
    Total Energy =                       -256.8253537917506719
  Basis Set: (AUG-CC-PVTZ AUX)
    Blend: AUG-CC-PVTZ-RI
    Molecular point group: c1

    Geometry (in Angstrom), charge = 0, multiplicity = 1:

       Center              X                  Y                   Z               Mass
    ------------   -----------------  -----------------  -----------------  -----------------
         N           -1.008922153482    -0.322273895206     0.000053833115    14.003074004430
         N           -0.015032153482    -1.202341895206     0.000052833115    14.003074004430
         N           -0.647695153482     0.967781104794    -0.000014166885    14.003074004430
         N            0.777834646518     0.962363304794    -0.000074866885    14.003074004430
         C            1.036807846518    -0.362856895206    -0.000025166885    12.000000000000
         H           -1.985099153482    -0.603962895206     0.000105833115     1.007825032230
         H            2.058981846518    -0.710118895206    -0.000051166885     1.007825032230

  Basis Set: AUG-CC-PVTZ
    Blend: AUG-CC-PVTZ
  Basis Set: (AUG-CC-PVTZ AUX)
    Blend: AUG-CC-PVTZ-JKFIT
	 Reference Energy          =    -256.8253537917506719 [Eh]
	 Singles Energy            =      -0.0000000000000000 [Eh]
	 Same-Spin Energy          =      -0.2802257979914500 [Eh]
	 Opposite-Spin Energy      =      -0.8001950210323372 [Eh]
	 Correlation Energy        =      -1.0804208190237872 [Eh]
	 Total Energy              =    -257.9057746107744720 [Eh]

	 ================> DF-SCS-MP2 Energies <==================
	-----------------------------------------------------------
	 SCS Same-Spin Scale       =       0.3333333333333333 [-]
	 SCS Opposite-Spin Scale   =       1.2000000000000000 [-]
	 SCS Same-Spin Energy      =      -0.0934085993304833 [Eh]
	 SCS Opposite-Spin Energy  =      -0.9602340252388046 [Eh]
	 SCS Correlation Energy    =      -1.0536426245692880 [Eh]
	 SCS Total Energy          =    -257.8789964163199784 [Eh]
	-----------------------------------------------------------

  Dipole Moment: [D]
     X:    -1.3571      Y:    -2.1186      Z:     0.0001     Total:     2.5160

*** Psi4 exiting successfully. Buy a developer a beer!
