                               Psi4 1.3.2 release

  ==> Input File <==

--------------------------------------------------------------------------
#psi4
#
memory 32 gb

molecule  {
0 1
  N       -0.9921260    -0.3000080     0.0000520
  N        0.0952762    -1.2854244     0.0000521
  N       -0.6308990     0.9900470    -0.0000160
  N        0.7028190     0.9633360    -0.0000720
  C        1.0536040    -0.3405910    -0.0000270
  H       -1.9683030    -0.5816970     0.0001040
  H        2.0757780    -0.6878530    -0.0000530
units angstrom
no_reorient  #important for SAPT in psi4, default
symmetry c1  #important for SAPT in psi4, default
}

set PROPERTIES_ORIGIN ["COM"]
properties('MP2/aug-cc-pvtz', properties = ['dipole'])
--------------------------------------------------------------------------

    Molecular point group: c1
  Charge       = 0
  Multiplicity = 1
  Basis Set: AUG-CC-PVTZ
    Blend: AUG-CC-PVTZ
  Basis Set: (AUG-CC-PVTZ AUX)
    Blend: AUG-CC-PVTZ-JKFIT

    Orbital Energies [Eh]
    ---------------------

    Doubly Occupied:

       1A    -15.708589     2A    -15.706254     3A    -15.654568
       4A    -15.622583     5A    -11.322410     6A     -1.473291
       7A     -1.238435     8A     -1.188559     9A     -0.929672
      10A     -0.855254    11A     -0.775462    12A     -0.664621
      13A     -0.619522    14A     -0.589050    15A     -0.520862
      16A     -0.488488    17A     -0.437739    18A     -0.430612

  @DF-RHF Final Energy:  -256.81840277855179

   => Energetics <=

    Nuclear Repulsion Energy =            163.2424406361764682
    One-Electron Energy =                -671.6697454349271084
    Two-Electron Energy =                 251.6089020201988262
    Total Energy =                       -256.8184027785517856
  Basis Set: (AUG-CC-PVTZ AUX)
    Blend: AUG-CC-PVTZ-RI
    Molecular point group: c1

    Geometry (in Angstrom), charge = 0, multiplicity = 1:

       Center              X                  Y                   Z               Mass
    ------------   -----------------  -----------------  -----------------  -----------------
         N           -1.009262172409    -0.296950123825     0.000052673323    14.003074004430
         N            0.078140027591    -1.282366523825     0.000052773323    14.003074004430
         N           -0.648035172409     0.993104876175    -0.000015326677    14.003074004430
         N            0.685682827591     0.966393876175    -0.000071326677    14.003074004430
         C            1.036467827591    -0.337533123825    -0.000026326677    12.000000000000
         H           -1.985439172409    -0.578639123825     0.000104673323     1.007825032230
         H            2.058641827591    -0.684795123825    -0.000052326677     1.007825032230

  Basis Set: AUG-CC-PVTZ
    Blend: AUG-CC-PVTZ
  Basis Set: (AUG-CC-PVTZ AUX)
    Blend: AUG-CC-PVTZ-JKFIT
	 Reference Energy          =    -256.8184027785517856 [Eh]
	 Singles Energy            =      -0.0000000000000000 [Eh]
	 Same-Spin Energy          =      -0.2788762343683525 [Eh]
	 Opposite-Spin Energy      =      -0.7995299375569351 [Eh]
	 Correlation Energy        =      -1.0784061719252875 [Eh]
	 Total Energy              =    -257.8968089504770660 [Eh]

	 ================> DF-SCS-MP2 Energies <==================
	-----------------------------------------------------------
	 SCS Same-Spin Scale       =       0.3333333333333333 [-]
	 SCS Opposite-Spin Scale   =       1.2000000000000000 [-]
	 SCS Same-Spin Energy      =      -0.0929587447894508 [Eh]
	 SCS Opposite-Spin Energy  =      -0.9594359250683221 [Eh]
	 SCS Correlation Energy    =      -1.0523946698577729 [Eh]
	 SCS Total Energy          =    -257.8707974484095757 [Eh]
	-----------------------------------------------------------

  Dipole Moment: [D]
     X:    -1.2201      Y:    -1.8793      Z:     0.0001     Total:     2.2406

*** Psi4 exiting successfully. Buy a developer a beer!
