                               Psi4 1.3.2 release

  ==> Input File <==

--------------------------------------------------------------------------
#psi4
#
memory 32 gb

molecule  {
0 1
  N       -0.9921260    -0.3000080     0.0000520
  N       -0.1479712    -1.0474888     0.0000512
  N       -0.6308990     0.9900470    -0.0000160
  N        0.7028190     0.9633360    -0.0000720
  C        1.0536040    -0.3405910    -0.0000270
  H       -1.9683030    -0.5816970     0.0001040
  H        2.0757780    -0.6878530    -0.0000530
units angstrom
no_reorient  #important for SAPT in psi4, default
symmetry c1  #important for SAPT in psi4, default
}

set PROPERTIES_ORIGIN ["COM"]
properties('MP2/aug-cc-pvtz', properties = ['dipole'])
--------------------------------------------------------------------------

    Molecular point group: c1
  Charge       = 0
  Multiplicity = 1
  Basis Set: AUG-CC-PVTZ
    Blend: AUG-CC-PVTZ
  Basis Set: (AUG-CC-PVTZ AUX)
    Blend: AUG-CC-PVTZ-JKFIT

    Orbital Energies [Eh]
    ---------------------

    Doubly Occupied:

       1A    -15.727272     2A    -15.643052     3A    -15.631406
       4A    -15.626060     5A    -11.306071     6A     -1.576122
       7A     -1.308878     8A     -1.163628     9A     -0.934518
      10A     -0.907379    11A     -0.785780    12A     -0.727551
      13A     -0.681417    14A     -0.559115    15A     -0.486204
      16A     -0.480385    17A     -0.476820    18A     -0.382689

  @DF-RHF Final Energy:  -256.80219076032745

   => Energetics <=

    Nuclear Repulsion Energy =            170.3948456651117453
    One-Electron Energy =                -685.5853751727004237
    Two-Electron Energy =                 258.3883387472612867
    Total Energy =                       -256.8021907603274485
  Basis Set: (AUG-CC-PVTZ AUX)
    Blend: AUG-CC-PVTZ-RI
    Molecular point group: c1

    Geometry (in Angstrom), charge = 0, multiplicity = 1:

       Center              X                  Y                   Z               Mass
    ------------   -----------------  -----------------  -----------------  -----------------
         N           -0.960621429189    -0.344528697830     0.000052853291    14.003074004430
         N           -0.116466629189    -1.092009497830     0.000052053291    14.003074004430
         N           -0.599394429189     0.945526302170    -0.000015146709    14.003074004430
         N            0.734323570811     0.918815302170    -0.000071146709    14.003074004430
         C            1.085108570811    -0.385111697830    -0.000026146709    12.000000000000
         H           -1.936798429189    -0.626217697830     0.000104853291     1.007825032230
         H            2.107282570811    -0.732373697830    -0.000052146709     1.007825032230

  Basis Set: AUG-CC-PVTZ
    Blend: AUG-CC-PVTZ
  Basis Set: (AUG-CC-PVTZ AUX)
    Blend: AUG-CC-PVTZ-JKFIT
	 Reference Energy          =    -256.8021907603274485 [Eh]
	 Singles Energy            =      -0.0000000000000000 [Eh]
	 Same-Spin Energy          =      -0.2762709554791228 [Eh]
	 Opposite-Spin Energy      =      -0.7863080592940601 [Eh]
	 Correlation Energy        =      -1.0625790147731828 [Eh]
	 Total Energy              =    -257.8647697751006262 [Eh]

	 ================> DF-SCS-MP2 Energies <==================
	-----------------------------------------------------------
	 SCS Same-Spin Scale       =       0.3333333333333333 [-]
	 SCS Opposite-Spin Scale   =       1.2000000000000000 [-]
	 SCS Same-Spin Energy      =      -0.0920903184930409 [Eh]
	 SCS Opposite-Spin Energy  =      -0.9435696711528720 [Eh]
	 SCS Correlation Energy    =      -1.0356599896459129 [Eh]
	 SCS Total Energy          =    -257.8378507499733701 [Eh]
	-----------------------------------------------------------

  Dipole Moment: [D]
     X:    -1.2470      Y:    -2.4363      Z:     0.0002     Total:     2.7369

*** Psi4 exiting successfully. Buy a developer a beer!
