                               Psi4 1.3.2 release

  ==> Input File <==

--------------------------------------------------------------------------
#psi4
#
memory 32 gb

molecule  {
0 1
  N       -1.0369282    -0.2866155     0.0000534
  N        0.0017640    -1.1800760     0.0000510
  N       -0.6308990     0.9900470    -0.0000160
  N        0.7028190     0.9633360    -0.0000720
  C        1.0536040    -0.3405910    -0.0000270
  H       -1.9683030    -0.5816970     0.0001040
  H        2.0757780    -0.6878530    -0.0000530
units angstrom
no_reorient  #important for SAPT in psi4, default
symmetry c1  #important for SAPT in psi4, default
}

set PROPERTIES_ORIGIN ["COM"]
properties('MP2/aug-cc-pvtz', properties = ['dipole'])
--------------------------------------------------------------------------

    Molecular point group: c1
  Charge       = 0
  Multiplicity = 1
  Basis Set: AUG-CC-PVTZ
    Blend: AUG-CC-PVTZ
  Basis Set: (AUG-CC-PVTZ AUX)
    Blend: AUG-CC-PVTZ-JKFIT

    Orbital Energies [Eh]
    ---------------------

    Doubly Occupied:

       1A    -15.712505     2A    -15.689562     3A    -15.641960
       4A    -15.624226     5A    -11.316560     6A     -1.487405
       7A     -1.254706     8A     -1.186930     9A     -0.939161
      10A     -0.870704    11A     -0.781891    12A     -0.674920
      13A     -0.653339    14A     -0.580559    15A     -0.504338
      16A     -0.485083    17A     -0.447310    18A     -0.418802

  @DF-RHF Final Energy:  -256.83859512906139

   => Energetics <=

    Nuclear Repulsion Energy =            165.2591073747538246
    One-Electron Energy =                -675.6554835723029555
    Two-Electron Energy =                 253.5577810684877136
    Total Energy =                       -256.8385951290613889
  Basis Set: (AUG-CC-PVTZ AUX)
    Blend: AUG-CC-PVTZ-RI
    Molecular point group: c1

    Geometry (in Angstrom), charge = 0, multiplicity = 1:

       Center              X                  Y                   Z               Mass
    ------------   -----------------  -----------------  -----------------  -----------------
         N           -1.026406460283    -0.307301538977     0.000054013334    14.003074004430
         N            0.012285739717    -1.200762038977     0.000051613334    14.003074004430
         N           -0.620377260283     0.969360961023    -0.000015386666    14.003074004430
         N            0.713340739717     0.942649961023    -0.000071386666    14.003074004430
         C            1.064125739717    -0.361277038977    -0.000026386666    12.000000000000
         H           -1.957781260283    -0.602383038977     0.000104613334     1.007825032230
         H            2.086299739717    -0.708539038977    -0.000052386666     1.007825032230

  Basis Set: AUG-CC-PVTZ
    Blend: AUG-CC-PVTZ
  Basis Set: (AUG-CC-PVTZ AUX)
    Blend: AUG-CC-PVTZ-JKFIT
	 Reference Energy          =    -256.8385951290613889 [Eh]
	 Singles Energy            =      -0.0000000000000000 [Eh]
	 Same-Spin Energy          =      -0.2774938112400092 [Eh]
	 Opposite-Spin Energy      =      -0.7941798711029655 [Eh]
	 Correlation Energy        =      -1.0716736823429747 [Eh]
	 Total Energy              =    -257.9102688114043644 [Eh]

	 ================> DF-SCS-MP2 Energies <==================
	-----------------------------------------------------------
	 SCS Same-Spin Scale       =       0.3333333333333333 [-]
	 SCS Opposite-Spin Scale   =       1.2000000000000000 [-]
	 SCS Same-Spin Energy      =      -0.0924979370800030 [Eh]
	 SCS Opposite-Spin Energy  =      -0.9530158453235585 [Eh]
	 SCS Correlation Energy    =      -1.0455137824035616 [Eh]
	 SCS Total Energy          =    -257.8841089114649776 [Eh]
	-----------------------------------------------------------

  Dipole Moment: [D]
     X:    -1.1742      Y:    -1.9764      Z:     0.0001     Total:     2.2988

*** Psi4 exiting successfully. Buy a developer a beer!
