                               Psi4 1.3.2 release

  ==> Input File <==

--------------------------------------------------------------------------
#psi4
#
memory 32 gb

molecule  {
0 1
  N       -0.9921260    -0.3000080     0.0000520
  N        0.0017640    -1.1800760     0.0000510
  N       -0.6308990     0.9900470    -0.0000160
  N        0.6575263     0.9502995    -0.0000696
  C        1.0536040    -0.3405910    -0.0000270
  H       -1.9683030    -0.5816970     0.0001040
  H        2.0757780    -0.6878530    -0.0000530
units angstrom
no_reorient  #important for SAPT in psi4, default
symmetry c1  #important for SAPT in psi4, default
}

set PROPERTIES_ORIGIN ["COM"]
properties('MP2/aug-cc-pvtz', properties = ['dipole'])
--------------------------------------------------------------------------

    Molecular point group: c1
  Charge       = 0
  Multiplicity = 1
  Basis Set: AUG-CC-PVTZ
    Blend: AUG-CC-PVTZ
  Basis Set: (AUG-CC-PVTZ AUX)
    Blend: AUG-CC-PVTZ-JKFIT

    Orbital Energies [Eh]
    ---------------------

    Doubly Occupied:

       1A    -15.709563     2A    -15.680997     3A    -15.643723
       4A    -15.617510     5A    -11.311976     6A     -1.507752
       7A     -1.276012     8A     -1.179957     9A     -0.922966
      10A     -0.881045    11A     -0.785738    12A     -0.686168
      13A     -0.650808    14A     -0.584367    15A     -0.513763
      16A     -0.474182    17A     -0.457103    18A     -0.412381

  @DF-RHF Final Energy:  -256.84574101477222

   => Energetics <=

    Nuclear Repulsion Energy =            167.2100551219461408
    One-Electron Energy =                -679.5195680683555111
    Two-Electron Energy =                 255.4637719316370692
    Total Energy =                       -256.8457410147722157
  Basis Set: (AUG-CC-PVTZ AUX)
    Blend: AUG-CC-PVTZ-RI
    Molecular point group: c1

    Geometry (in Angstrom), charge = 0, multiplicity = 1:

       Center              X                  Y                   Z               Mass
    ------------   -----------------  -----------------  -----------------  -----------------
         N           -0.981506177900    -0.315409188235     0.000052413370    14.003074004430
         N            0.012383822100    -1.195477188235     0.000051413370    14.003074004430
         N           -0.620279177900     0.974645811765    -0.000015586630    14.003074004430
         N            0.668146122100     0.934898311765    -0.000069186630    14.003074004430
         C            1.064223822100    -0.355992188235    -0.000026586630    12.000000000000
         H           -1.957683177900    -0.597098188235     0.000104413370     1.007825032230
         H            2.086397822100    -0.703254188235    -0.000052586630     1.007825032230

  Basis Set: AUG-CC-PVTZ
    Blend: AUG-CC-PVTZ
  Basis Set: (AUG-CC-PVTZ AUX)
    Blend: AUG-CC-PVTZ-JKFIT
	 Reference Energy          =    -256.8457410147722157 [Eh]
	 Singles Energy            =      -0.0000000000000000 [Eh]
	 Same-Spin Energy          =      -0.2767320195411019 [Eh]
	 Opposite-Spin Energy      =      -0.7906880384120127 [Eh]
	 Correlation Energy        =      -1.0674200579531146 [Eh]
	 Total Energy              =    -257.9131610727253019 [Eh]

	 ================> DF-SCS-MP2 Energies <==================
	-----------------------------------------------------------
	 SCS Same-Spin Scale       =       0.3333333333333333 [-]
	 SCS Opposite-Spin Scale   =       1.2000000000000000 [-]
	 SCS Same-Spin Energy      =      -0.0922440065137006 [Eh]
	 SCS Opposite-Spin Energy  =      -0.9488256460944152 [Eh]
	 SCS Correlation Energy    =      -1.0410696526081158 [Eh]
	 SCS Total Energy          =    -257.8868106673803595 [Eh]
	-----------------------------------------------------------

  Dipole Moment: [D]
     X:    -1.1646      Y:    -1.9597      Z:     0.0001     Total:     2.2797

*** Psi4 exiting successfully. Buy a developer a beer!
