                               Psi4 1.3.2 release

  ==> Input File <==

--------------------------------------------------------------------------
#psi4
#
memory 32 gb

molecule  {
0 1
  N       -0.9921260    -0.3000080     0.0000520
  N        0.0017640    -1.1800760     0.0000510
  N       -0.5860968     0.9766545    -0.0000173
  N        0.7028190     0.9633360    -0.0000720
  C        1.0536040    -0.3405910    -0.0000270
  H       -1.9683030    -0.5816970     0.0001040
  H        2.0757780    -0.6878530    -0.0000530
units angstrom
no_reorient  #important for SAPT in psi4, default
symmetry c1  #important for SAPT in psi4, default
}

set PROPERTIES_ORIGIN ["COM"]
properties('MP2/aug-cc-pvtz', properties = ['dipole'])
--------------------------------------------------------------------------

    Molecular point group: c1
  Charge       = 0
  Multiplicity = 1
  Basis Set: AUG-CC-PVTZ
    Blend: AUG-CC-PVTZ
  Basis Set: (AUG-CC-PVTZ AUX)
    Blend: AUG-CC-PVTZ-JKFIT

    Orbital Energies [Eh]
    ---------------------

    Doubly Occupied:

       1A    -15.710918     2A    -15.678941     3A    -15.641671
       4A    -15.621732     5A    -11.311136     6A     -1.507163
       7A     -1.279553     8A     -1.177275     9A     -0.926073
      10A     -0.881496    11A     -0.785308    12A     -0.686174
      13A     -0.649854    14A     -0.582300    15A     -0.508995
      16A     -0.480180    17A     -0.460102    18A     -0.410723

  @DF-RHF Final Energy:  -256.84621604105183

   => Energetics <=

    Nuclear Repulsion Energy =            167.1547454907240251
    One-Electron Energy =                -679.4027356963188140
    Two-Electron Energy =                 255.4017741645429282
    Total Energy =                       -256.8462160410518322
  Basis Set: (AUG-CC-PVTZ AUX)
    Blend: AUG-CC-PVTZ-RI
    Molecular point group: c1

    Geometry (in Angstrom), charge = 0, multiplicity = 1:

       Center              X                  Y                   Z               Mass
    ------------   -----------------  -----------------  -----------------  -----------------
         N           -0.999521921938    -0.315338001021     0.000053153237    14.003074004430
         N           -0.005631921938    -1.195406001021     0.000052153237    14.003074004430
         N           -0.593492721938     0.961324498979    -0.000016146763    14.003074004430
         N            0.695423078062     0.948005998979    -0.000070846763    14.003074004430
         C            1.046208078062    -0.355921001021    -0.000025846763    12.000000000000
         H           -1.975698921938    -0.597027001021     0.000105153237     1.007825032230
         H            2.068382078062    -0.703183001021    -0.000051846763     1.007825032230

  Basis Set: AUG-CC-PVTZ
    Blend: AUG-CC-PVTZ
  Basis Set: (AUG-CC-PVTZ AUX)
    Blend: AUG-CC-PVTZ-JKFIT
	 Reference Energy          =    -256.8462160410518322 [Eh]
	 Singles Energy            =      -0.0000000000000000 [Eh]
	 Same-Spin Energy          =      -0.2764797009383432 [Eh]
	 Opposite-Spin Energy      =      -0.7903703156316392 [Eh]
	 Correlation Energy        =      -1.0668500165699824 [Eh]
	 Total Energy              =    -257.9130660576217906 [Eh]

	 ================> DF-SCS-MP2 Energies <==================
	-----------------------------------------------------------
	 SCS Same-Spin Scale       =       0.3333333333333333 [-]
	 SCS Opposite-Spin Scale   =       1.2000000000000000 [-]
	 SCS Same-Spin Energy      =      -0.0921599003127811 [Eh]
	 SCS Opposite-Spin Energy  =      -0.9484443787579669 [Eh]
	 SCS Correlation Energy    =      -1.0406042790707479 [Eh]
	 SCS Total Energy          =    -257.8868203201225811 [Eh]
	-----------------------------------------------------------

  Dipole Moment: [D]
     X:    -1.2526      Y:    -1.9422      Z:     0.0001     Total:     2.3111

*** Psi4 exiting successfully. Buy a developer a beer!
