                               Psi4 1.3.2 release

  ==> Input File <==

--------------------------------------------------------------------------
#psi4
#
memory 32 gb

molecule  {
0 1
  N       -0.9921260    -0.3000080     0.0000520
  N        0.0017640    -1.1800760     0.0000510
  N       -0.6761413     1.0018678    -0.0000146
  N        0.7028190     0.9633360    -0.0000720
  C        1.0536040    -0.3405910    -0.0000270
  H       -1.9683030    -0.5816970     0.0001040
  H        2.0757780    -0.6878530    -0.0000530
units angstrom
no_reorient  #important for SAPT in psi4, default
symmetry c1  #important for SAPT in psi4, default
}

set PROPERTIES_ORIGIN ["COM"]
properties('MP2/aug-cc-pvtz', properties = ['dipole'])
--------------------------------------------------------------------------

    Molecular point group: c1
  Charge       = 0
  Multiplicity = 1
  Basis Set: AUG-CC-PVTZ
    Blend: AUG-CC-PVTZ
  Basis Set: (AUG-CC-PVTZ AUX)
    Blend: AUG-CC-PVTZ-JKFIT

    Orbital Energies [Eh]
    ---------------------

    Doubly Occupied:

       1A    -15.722988     2A    -15.690048     3A    -15.643045
       4A    -15.624078     5A    -11.315426     6A     -1.491831
       7A     -1.251822     8A     -1.187582     9A     -0.928707
      10A     -0.873344    11A     -0.774008    12A     -0.679280
      13A     -0.651528    14A     -0.571241    15A     -0.516798
      16A     -0.484799    17A     -0.443137    18A     -0.417400

  @DF-RHF Final Energy:  -256.83491412013547

   => Energetics <=

    Nuclear Repulsion Energy =            165.1687408197313118
    One-Electron Energy =                -675.4731872407655828
    Two-Electron Energy =                 253.4695323008988339
    Total Energy =                       -256.8349141201354655
  Basis Set: (AUG-CC-PVTZ AUX)
    Blend: AUG-CC-PVTZ-RI
    Molecular point group: c1

    Geometry (in Angstrom), charge = 0, multiplicity = 1:

       Center              X                  Y                   Z               Mass
    ------------   -----------------  -----------------  -----------------  -----------------
         N           -0.981516256090    -0.320379755429     0.000052613334    14.003074004430
         N            0.012373743910    -1.200447755429     0.000051613334    14.003074004430
         N           -0.665531556090     0.981496044571    -0.000013986666    14.003074004430
         N            0.713428743910     0.942964244571    -0.000071386666    14.003074004430
         C            1.064213743910    -0.360962755429    -0.000026386666    12.000000000000
         H           -1.957693256090    -0.602068755429     0.000104613334     1.007825032230
         H            2.086387743910    -0.708224755429    -0.000052386666     1.007825032230

  Basis Set: AUG-CC-PVTZ
    Blend: AUG-CC-PVTZ
  Basis Set: (AUG-CC-PVTZ AUX)
    Blend: AUG-CC-PVTZ-JKFIT
	 Reference Energy          =    -256.8349141201354655 [Eh]
	 Singles Energy            =      -0.0000000000000000 [Eh]
	 Same-Spin Energy          =      -0.2793236852663408 [Eh]
	 Opposite-Spin Energy      =      -0.7972496332058480 [Eh]
	 Correlation Energy        =      -1.0765733184721888 [Eh]
	 Total Energy              =    -257.9114874386076508 [Eh]

	 ================> DF-SCS-MP2 Energies <==================
	-----------------------------------------------------------
	 SCS Same-Spin Scale       =       0.3333333333333333 [-]
	 SCS Opposite-Spin Scale   =       1.2000000000000000 [-]
	 SCS Same-Spin Energy      =      -0.0931078950887803 [Eh]
	 SCS Opposite-Spin Energy  =      -0.9566995598470175 [Eh]
	 SCS Correlation Energy    =      -1.0498074549357979 [Eh]
	 SCS Total Energy          =    -257.8847215750712394 [Eh]
	-----------------------------------------------------------

  Dipole Moment: [D]
     X:    -1.2164      Y:    -2.0943      Z:     0.0001     Total:     2.4219

*** Psi4 exiting successfully. Buy a developer a beer!
