                               Psi4 1.3.2 release

  ==> Input File <==

--------------------------------------------------------------------------
#psi4
#
memory 32 gb

molecule  {
0 1
  N       -0.9921260    -0.3000080     0.0000520
  N       -0.0295554    -1.2142261     0.0000538
  N       -0.6308990     0.9900470    -0.0000160
  N        0.7028190     0.9633360    -0.0000720
  C        1.0536040    -0.3405910    -0.0000270
  H       -1.9683030    -0.5816970     0.0001040
  H        2.0757780    -0.6878530    -0.0000530
units angstrom
no_reorient  #important for SAPT in psi4, default
symmetry c1  #important for SAPT in psi4, default
}

set PROPERTIES_ORIGIN ["COM"]
properties('MP2/aug-cc-pvtz', properties = ['dipole'])
--------------------------------------------------------------------------

    Molecular point group: c1
  Charge       = 0
  Multiplicity = 1
  Basis Set: AUG-CC-PVTZ
    Blend: AUG-CC-PVTZ
  Basis Set: (AUG-CC-PVTZ AUX)
    Blend: AUG-CC-PVTZ-JKFIT

    Orbital Energies [Eh]
    ---------------------

    Doubly Occupied:

       1A    -15.720663     2A    -15.684189     3A    -15.649518
       4A    -15.625826     5A    -11.319167     6A     -1.495506
       7A     -1.268147     8A     -1.174312     9A     -0.925588
      10A     -0.876391    11A     -0.776646    12A     -0.680330
      13A     -0.642777    14A     -0.580571    15A     -0.512555
      16A     -0.487891    17A     -0.454223    18A     -0.406693

  @DF-RHF Final Energy:  -256.83577750521999

   => Energetics <=

    Nuclear Repulsion Energy =            165.2429320574389067
    One-Electron Energy =                -675.5954375938007388
    Two-Electron Energy =                 253.5167280311418665
    Total Energy =                       -256.8357775052199941
  Basis Set: (AUG-CC-PVTZ AUX)
    Blend: AUG-CC-PVTZ-RI
    Molecular point group: c1

    Geometry (in Angstrom), charge = 0, multiplicity = 1:

       Center              X                  Y                   Z               Mass
    ------------   -----------------  -----------------  -----------------  -----------------
         N           -0.984300336018    -0.311187226577     0.000052333384    14.003074004430
         N           -0.021729736018    -1.225405326577     0.000054133384    14.003074004430
         N           -0.623073336018     0.978867773423    -0.000015666616    14.003074004430
         N            0.710644663982     0.952156773423    -0.000071666616    14.003074004430
         C            1.061429663982    -0.351770226577    -0.000026666616    12.000000000000
         H           -1.960477336018    -0.592876226577     0.000104333384     1.007825032230
         H            2.083603663982    -0.699032226577    -0.000052666616     1.007825032230

  Basis Set: AUG-CC-PVTZ
    Blend: AUG-CC-PVTZ
  Basis Set: (AUG-CC-PVTZ AUX)
    Blend: AUG-CC-PVTZ-JKFIT
	 Reference Energy          =    -256.8357775052199941 [Eh]
	 Singles Energy            =      -0.0000000000000000 [Eh]
	 Same-Spin Energy          =      -0.2791656992171596 [Eh]
	 Opposite-Spin Energy      =      -0.7965124741818499 [Eh]
	 Correlation Energy        =      -1.0756781733990095 [Eh]
	 Total Energy              =    -257.9114556786190064 [Eh]

	 ================> DF-SCS-MP2 Energies <==================
	-----------------------------------------------------------
	 SCS Same-Spin Scale       =       0.3333333333333333 [-]
	 SCS Opposite-Spin Scale   =       1.2000000000000000 [-]
	 SCS Same-Spin Energy      =      -0.0930552330723865 [Eh]
	 SCS Opposite-Spin Energy  =      -0.9558149690182198 [Eh]
	 SCS Correlation Energy    =      -1.0488702020906064 [Eh]
	 SCS Total Energy          =    -257.8846477073105916 [Eh]
	-----------------------------------------------------------

  Dipole Moment: [D]
     X:    -1.2098      Y:    -1.9720      Z:     0.0001     Total:     2.3135

*** Psi4 exiting successfully. Buy a developer a beer!
