                               Psi4 1.3.2 release

  ==> Input File <==

--------------------------------------------------------------------------
#psi4
#
memory 32 gb

molecule  {
0 1
  N       -0.9766153    -0.2827963     0.0000506
  N        0.0017640    -1.1800760     0.0000510
  N       -0.6308990     0.9900470    -0.0000160
  N        0.7028190     0.9633360    -0.0000720
  C        1.0536040    -0.3405910    -0.0000270
  H       -1.9683030    -0.5816970     0.0001040
  H        2.0757780    -0.6878530    -0.0000530
units angstrom
no_reorient  #important for SAPT in psi4, default
symmetry c1  #important for SAPT in psi4, default
}

set PROPERTIES_ORIGIN ["COM"]
properties('MP2/aug-cc-pvtz', properties = ['dipole'])
--------------------------------------------------------------------------

    Molecular point group: c1
  Charge       = 0
  Multiplicity = 1
  Basis Set: AUG-CC-PVTZ
    Blend: AUG-CC-PVTZ
  Basis Set: (AUG-CC-PVTZ AUX)
    Blend: AUG-CC-PVTZ-JKFIT

    Orbital Energies [Eh]
    ---------------------

    Doubly Occupied:

       1A    -15.719425     2A    -15.683709     3A    -15.641053
       4A    -15.619965     5A    -11.313099     6A     -1.505736
       7A     -1.264350     8A     -1.186266     9A     -0.922380
      10A     -0.879545    11A     -0.779801    12A     -0.686625
      13A     -0.645337    14A     -0.576626    15A     -0.514264
      16A     -0.483830    17A     -0.448577    18A     -0.417111

  @DF-RHF Final Energy:  -256.84296293045708

   => Energetics <=

    Nuclear Repulsion Energy =            166.5874711905245533
    One-Electron Energy =                -678.2854698711071251
    Two-Electron Energy =                 254.8550357501255235
    Total Energy =                       -256.8429629304570767
  Basis Set: (AUG-CC-PVTZ AUX)
    Blend: AUG-CC-PVTZ-RI
    Molecular point group: c1

    Geometry (in Angstrom), charge = 0, multiplicity = 1:

       Center              X                  Y                   Z               Mass
    ------------   -----------------  -----------------  -----------------  -----------------
         N           -0.978153974009    -0.304246041802     0.000051773233    14.003074004430
         N            0.000225325991    -1.201525741802     0.000052173233    14.003074004430
         N           -0.632437674009     0.968597258198    -0.000014826767    14.003074004430
         N            0.701280325991     0.941886258198    -0.000070826767    14.003074004430
         C            1.052065325991    -0.362040741802    -0.000025826767    12.000000000000
         H           -1.969841674009    -0.603146741802     0.000105173233     1.007825032230
         H            2.074239325991    -0.709302741802    -0.000051826767     1.007825032230

  Basis Set: AUG-CC-PVTZ
    Blend: AUG-CC-PVTZ
  Basis Set: (AUG-CC-PVTZ AUX)
    Blend: AUG-CC-PVTZ-JKFIT
	 Reference Energy          =    -256.8429629304570767 [Eh]
	 Singles Energy            =      -0.0000000000000000 [Eh]
	 Same-Spin Energy          =      -0.2776733145457467 [Eh]
	 Opposite-Spin Energy      =      -0.7929363258766852 [Eh]
	 Correlation Energy        =      -1.0706096404224319 [Eh]
	 Total Energy              =    -257.9135725708795235 [Eh]

	 ================> DF-SCS-MP2 Energies <==================
	-----------------------------------------------------------
	 SCS Same-Spin Scale       =       0.3333333333333333 [-]
	 SCS Opposite-Spin Scale   =       1.2000000000000000 [-]
	 SCS Same-Spin Energy      =      -0.0925577715152489 [Eh]
	 SCS Opposite-Spin Energy  =      -0.9515235910520221 [Eh]
	 SCS Correlation Energy    =      -1.0440813625672711 [Eh]
	 SCS Total Energy          =    -257.8870442930243598 [Eh]
	-----------------------------------------------------------

  Dipole Moment: [D]
     X:    -1.2735      Y:    -2.0342      Z:     0.0001     Total:     2.3999

*** Psi4 exiting successfully. Buy a developer a beer!
