                               Psi4 1.3.2 release

  ==> Input File <==

--------------------------------------------------------------------------
#psi4
#
memory 32 gb

molecule  {
0 1
  N       -0.9921260    -0.3000080     0.0000520
  N        0.0017640    -1.1800760     0.0000510
  N       -0.6534686     0.9961548    -0.0000153
  N        0.7028190     0.9633360    -0.0000720
  C        1.0536040    -0.3405910    -0.0000270
  H       -1.9683030    -0.5816970     0.0001040
  H        2.0757780    -0.6878530    -0.0000530
units angstrom
no_reorient  #important for SAPT in psi4, default
symmetry c1  #important for SAPT in psi4, default
}

set PROPERTIES_ORIGIN ["COM"]
properties('MP2/aug-cc-pvtz', properties = ['dipole'])
--------------------------------------------------------------------------

    Molecular point group: c1
  Charge       = 0
  Multiplicity = 1
  Basis Set: AUG-CC-PVTZ
    Blend: AUG-CC-PVTZ
  Basis Set: (AUG-CC-PVTZ AUX)
    Blend: AUG-CC-PVTZ-JKFIT

    Orbital Energies [Eh]
    ---------------------

    Doubly Occupied:

       1A    -15.719987     2A    -15.687486     3A    -15.642761
       4A    -15.623590     5A    -11.314352     6A     -1.495020
       7A     -1.258327     8A     -1.185182     9A     -0.928021
      10A     -0.875093    11A     -0.777146    12A     -0.680731
      13A     -0.650982    14A     -0.573945    15A     -0.513282
      16A     -0.485830    17A     -0.446931    18A     -0.415921

  @DF-RHF Final Energy:  -256.83920796940242

   => Energetics <=

    Nuclear Repulsion Energy =            165.6445125803455767
    One-Electron Energy =                -676.4182691717068110
    Two-Electron Energy =                 253.9345486219588395
    Total Energy =                       -256.8392079694024233
  Basis Set: (AUG-CC-PVTZ AUX)
    Blend: AUG-CC-PVTZ-RI
    Molecular point group: c1

    Geometry (in Angstrom), charge = 0, multiplicity = 1:

       Center              X                  Y                   Z               Mass
    ------------   -----------------  -----------------  -----------------  -----------------
         N           -0.986049981749    -0.319237360624     0.000052753309    14.003074004430
         N            0.007840018251    -1.199305360624     0.000051753309    14.003074004430
         N           -0.647392581749     0.976925439376    -0.000014546691    14.003074004430
         N            0.708895018251     0.944106639376    -0.000071246691    14.003074004430
         C            1.059680018251    -0.359820360624    -0.000026246691    12.000000000000
         H           -1.962226981749    -0.600926360624     0.000104753309     1.007825032230
         H            2.081854018251    -0.707082360624    -0.000052246691     1.007825032230

  Basis Set: AUG-CC-PVTZ
    Blend: AUG-CC-PVTZ
  Basis Set: (AUG-CC-PVTZ AUX)
    Blend: AUG-CC-PVTZ-JKFIT
	 Reference Energy          =    -256.8392079694024233 [Eh]
	 Singles Energy            =      -0.0000000000000000 [Eh]
	 Same-Spin Energy          =      -0.2786051001225665 [Eh]
	 Opposite-Spin Energy      =      -0.7954471830272993 [Eh]
	 Correlation Energy        =      -1.0740522831498658 [Eh]
	 Total Energy              =    -257.9132602525522771 [Eh]

	 ================> DF-SCS-MP2 Energies <==================
	-----------------------------------------------------------
	 SCS Same-Spin Scale       =       0.3333333333333333 [-]
	 SCS Opposite-Spin Scale   =       1.2000000000000000 [-]
	 SCS Same-Spin Energy      =      -0.0928683667075222 [Eh]
	 SCS Opposite-Spin Energy  =      -0.9545366196327592 [Eh]
	 SCS Correlation Energy    =      -1.0474049863402812 [Eh]
	 SCS Total Energy          =    -257.8866129557426916 [Eh]
	-----------------------------------------------------------

  Dipole Moment: [D]
     X:    -1.2274      Y:    -2.0611      Z:     0.0001     Total:     2.3989

*** Psi4 exiting successfully. Buy a developer a beer!
