                               Psi4 1.3.2 release

  ==> Input File <==

--------------------------------------------------------------------------
#psi4
#
memory 32 gb

molecule  {
0 1
  N       -0.9921260    -0.3000080     0.0000520
  N       -0.0956728    -1.2791447     0.0000593
  N       -0.6308990     0.9900470    -0.0000160
  N        0.7028190     0.9633360    -0.0000720
  C        1.0536040    -0.3405910    -0.0000270
  H       -1.9683030    -0.5816970     0.0001040
  H        2.0757780    -0.6878530    -0.0000530
units angstrom
no_reorient  #important for SAPT in psi4, default
symmetry c1  #important for SAPT in psi4, default
}

set PROPERTIES_ORIGIN ["COM"]
properties('MP2/aug-cc-pvtz', properties = ['dipole'])
--------------------------------------------------------------------------

    Molecular point group: c1
  Charge       = 0
  Multiplicity = 1
  Basis Set: AUG-CC-PVTZ
    Blend: AUG-CC-PVTZ
  Basis Set: (AUG-CC-PVTZ AUX)
    Blend: AUG-CC-PVTZ-JKFIT

    Orbital Energies [Eh]
    ---------------------

    Doubly Occupied:

       1A    -15.728062     2A    -15.682451     3A    -15.662103
       4A    -15.631203     5A    -11.329567     6A     -1.490578
       7A     -1.274537     8A     -1.160078     9A     -0.922527
      10A     -0.875210    11A     -0.769663    12A     -0.677210
      13A     -0.630593    14A     -0.585573    15A     -0.513755
      16A     -0.491056    17A     -0.460529    18A     -0.393447

  @DF-RHF Final Energy:  -256.81298736047927

   => Energetics <=

    Nuclear Repulsion Energy =            163.6059138024520223
    One-Electron Energy =                -672.2815173731275991
    Two-Electron Energy =                 251.8626162101962507
    Total Energy =                       -256.8129873604792692
  Basis Set: (AUG-CC-PVTZ AUX)
    Blend: AUG-CC-PVTZ-RI
    Molecular point group: c1

    Geometry (in Angstrom), charge = 0, multiplicity = 1:

       Center              X                  Y                   Z               Mass
    ------------   -----------------  -----------------  -----------------  -----------------
         N           -0.971079230774    -0.298205838276     0.000051233582    14.003074004430
         N           -0.074626030774    -1.277342538276     0.000058533582    14.003074004430
         N           -0.609852230774     0.991849161724    -0.000016766418    14.003074004430
         N            0.723865769226     0.965138161724    -0.000072766418    14.003074004430
         C            1.074650769226    -0.338788838276    -0.000027766418    12.000000000000
         H           -1.947256230774    -0.579894838276     0.000103233582     1.007825032230
         H            2.096824769226    -0.686050838276    -0.000053766418     1.007825032230

  Basis Set: AUG-CC-PVTZ
    Blend: AUG-CC-PVTZ
  Basis Set: (AUG-CC-PVTZ AUX)
    Blend: AUG-CC-PVTZ-JKFIT
	 Reference Energy          =    -256.8129873604792692 [Eh]
	 Singles Energy            =      -0.0000000000000000 [Eh]
	 Same-Spin Energy          =      -0.2818768200250484 [Eh]
	 Opposite-Spin Energy      =      -0.8027750639976264 [Eh]
	 Correlation Energy        =      -1.0846518840226749 [Eh]
	 Total Energy              =    -257.8976392445019314 [Eh]

	 ================> DF-SCS-MP2 Energies <==================
	-----------------------------------------------------------
	 SCS Same-Spin Scale       =       0.3333333333333333 [-]
	 SCS Opposite-Spin Scale   =       1.2000000000000000 [-]
	 SCS Same-Spin Energy      =      -0.0939589400083495 [Eh]
	 SCS Opposite-Spin Energy  =      -0.9633300767971517 [Eh]
	 SCS Correlation Energy    =      -1.0572890168055011 [Eh]
	 SCS Total Energy          =    -257.8702763772847675 [Eh]
	-----------------------------------------------------------

  Dipole Moment: [D]
     X:    -1.1399      Y:    -1.8702      Z:     0.0001     Total:     2.1902

*** Psi4 exiting successfully. Buy a developer a beer!
