                               Psi4 1.4a3.dev225

  ==> Input File <==

--------------------------------------------------------------------------
#psi4
#
memory 32 gb

molecule  {
0 1
  N       -0.9921260    -0.3000080     0.0000520
  N        0.0017640    -1.1800760     0.0000510
  N       -0.6308990     0.9900470    -0.0000160
  N        0.7028190     0.9633360    -0.0000720
  C        1.0536040    -0.3405910    -0.0000270
  H       -1.9202631    -0.5678344     0.0001014
  H        2.0757780    -0.6878530    -0.0000530
units angstrom
no_reorient  #important for SAPT in psi4, default
symmetry c1  #important for SAPT in psi4, default
}

set PROPERTIES_ORIGIN ["COM"]
properties('MP2/aug-cc-pvtz', properties = ['dipole'])
--------------------------------------------------------------------------

    Molecular point group: c1
  Charge       = 0
  Multiplicity = 1
  Basis Set: AUG-CC-PVTZ
    Blend: AUG-CC-PVTZ
  Basis Set: (AUG-CC-PVTZ AUX)
    Blend: AUG-CC-PVTZ-JKFIT

    Orbital Energies [Eh]
    ---------------------

    Doubly Occupied:

       1A    -15.713050     2A    -15.685703     3A    -15.643130
       4A    -15.623870     5A    -11.313976     6A     -1.500651
       7A     -1.267580     8A     -1.187197     9A     -0.938640
      10A     -0.878100    11A     -0.785451    12A     -0.683477
      13A     -0.654169    14A     -0.578299    15A     -0.511335
      16A     -0.486453    17A     -0.452125    18A     -0.415203

  @DF-RHF Final Energy:  -256.84238091023985

   => Energetics <=

    Nuclear Repulsion Energy =            166.4346121879834186
    One-Electron Energy =                -677.9171629084941060
    Two-Electron Energy =                 254.6401698102708338
    Total Energy =                       -256.8423809102398536
  Basis Set: (AUG-CC-PVTZ AUX)
    Blend: AUG-CC-PVTZ-RI
    Molecular point group: c1

    Geometry (in Angstrom), charge = 0, multiplicity = 1:

       Center              X                  Y                   Z               Mass
    ------------   -----------------  -----------------  -----------------  -----------------
         N           -0.991254469574    -0.318215527140     0.000052930702    14.003074004430
         N            0.002635530426    -1.198283527140     0.000051930702    14.003074004430
         N           -0.630027469574     0.971839472860    -0.000015069298    14.003074004430
         N            0.703690530426     0.945128472860    -0.000071069298    14.003074004430
         C            1.054475530426    -0.358798527140    -0.000026069298    12.000000000000
         H           -1.919391569574    -0.586041927140     0.000102330702     1.007825032230
         H            2.076649530426    -0.706060527140    -0.000052069298     1.007825032230

  Basis Set: AUG-CC-PVTZ
    Blend: AUG-CC-PVTZ
  Basis Set: (AUG-CC-PVTZ AUX)
    Blend: AUG-CC-PVTZ-JKFIT
	 Reference Energy          =    -256.8423809102398536 [Eh]
	 Singles Energy            =      -0.0000000000000000 [Eh]
	 Same-Spin Energy          =      -0.2774553994670210 [Eh]
	 Opposite-Spin Energy      =      -0.7928905321165518 [Eh]
	 Correlation Energy        =      -1.0703459315835728 [Eh]
	 Total Energy              =    -257.9127268418234280 [Eh]

	 ================> DF-SCS-MP2 Energies <==================
	-----------------------------------------------------------
	 SCS Same-Spin Scale       =       0.3333333333333333 [-]
	 SCS Opposite-Spin Scale   =       1.2000000000000000 [-]
	 SCS Same-Spin Energy      =      -0.0924851331556737 [Eh]
	 SCS Opposite-Spin Energy  =      -0.9514686385398621 [Eh]
	 SCS Correlation Energy    =      -1.0439537716955358 [Eh]
	 SCS Total Energy          =    -257.8863346819354092 [Eh]
	-----------------------------------------------------------

  Dipole Moment: [D]
     X:    -1.1571      Y:    -2.0004      Z:     0.0001     Total:     2.3110

*** Psi4 exiting successfully. Buy a developer a beer!
