                               Psi4 1.3.2 release

  ==> Input File <==

--------------------------------------------------------------------------
#psi4
#
memory 32 gb

molecule  {
0 1
  N       -0.9921260    -0.3000080     0.0000520
  N       -0.0137467    -1.1972877     0.0000523
  N       -0.6308990     0.9900470    -0.0000160
  N        0.7028190     0.9633360    -0.0000720
  C        1.0536040    -0.3405910    -0.0000270
  H       -1.9683030    -0.5816970     0.0001040
  H        2.0757780    -0.6878530    -0.0000530
units angstrom
no_reorient  #important for SAPT in psi4, default
symmetry c1  #important for SAPT in psi4, default
}

set PROPERTIES_ORIGIN ["COM"]
properties('MP2/aug-cc-pvtz', properties = ['dipole'])
--------------------------------------------------------------------------

    Molecular point group: c1
  Charge       = 0
  Multiplicity = 1
  Basis Set: AUG-CC-PVTZ
    Blend: AUG-CC-PVTZ
  Basis Set: (AUG-CC-PVTZ AUX)
    Blend: AUG-CC-PVTZ-JKFIT

    Orbital Energies [Eh]
    ---------------------

    Doubly Occupied:

       1A    -15.718809     2A    -15.684511     3A    -15.646043
       4A    -15.624441     5A    -11.316279     6A     -1.496995
       7A     -1.266625     8A     -1.178387     9A     -0.926454
      10A     -0.876703    11A     -0.778387    12A     -0.681294
      13A     -0.646564    14A     -0.578682    15A     -0.511696
      16A     -0.486822    17A     -0.452644    18A     -0.410405

  @DF-RHF Final Energy:  -256.83966235217878

   => Energetics <=

    Nuclear Repulsion Energy =            165.6821024909731648
    One-Electron Energy =                -676.4800484228904907
    Two-Electron Energy =                 253.9582835797385485
    Total Energy =                       -256.8396623521787205
  Basis Set: (AUG-CC-PVTZ AUX)
    Blend: AUG-CC-PVTZ-RI
    Molecular point group: c1

    Geometry (in Angstrom), charge = 0, multiplicity = 1:

       Center              X                  Y                   Z               Mass
    ------------   -----------------  -----------------  -----------------  -----------------
         N           -0.987461508212    -0.314574298196     0.000052633330    14.003074004430
         N           -0.009082208212    -1.211853998196     0.000052933330    14.003074004430
         N           -0.626234508212     0.975480701804    -0.000015366670    14.003074004430
         N            0.707483491788     0.948769701804    -0.000071366670    14.003074004430
         C            1.058268491788    -0.355157298196    -0.000026366670    12.000000000000
         H           -1.963638508212    -0.596263298196     0.000104633330     1.007825032230
         H            2.080442491788    -0.702419298196    -0.000052366670     1.007825032230

  Basis Set: AUG-CC-PVTZ
    Blend: AUG-CC-PVTZ
  Basis Set: (AUG-CC-PVTZ AUX)
    Blend: AUG-CC-PVTZ-JKFIT
	 Reference Energy          =    -256.8396623521787774 [Eh]
	 Singles Energy            =      -0.0000000000000000 [Eh]
	 Same-Spin Energy          =      -0.2785188671228481 [Eh]
	 Opposite-Spin Energy      =      -0.7950742938296715 [Eh]
	 Correlation Energy        =      -1.0735931609525196 [Eh]
	 Total Energy              =    -257.9132555131312756 [Eh]

	 ================> DF-SCS-MP2 Energies <==================
	-----------------------------------------------------------
	 SCS Same-Spin Scale       =       0.3333333333333333 [-]
	 SCS Opposite-Spin Scale   =       1.2000000000000000 [-]
	 SCS Same-Spin Energy      =      -0.0928396223742827 [Eh]
	 SCS Opposite-Spin Energy  =      -0.9540891525956058 [Eh]
	 SCS Correlation Energy    =      -1.0469287749698886 [Eh]
	 SCS Total Energy          =    -257.8865911271486766 [Eh]
	-----------------------------------------------------------

  Dipole Moment: [D]
     X:    -1.2241      Y:    -1.9981      Z:     0.0001     Total:     2.3432

*** Psi4 exiting successfully. Buy a developer a beer!
