                               Psi4 1.3.2 release

  ==> Input File <==

--------------------------------------------------------------------------
#psi4
#
memory 32 gb

molecule  {
0 1
  N       -0.9608066    -0.2658579     0.0000493
  N        0.0017640    -1.1800760     0.0000510
  N       -0.6308990     0.9900470    -0.0000160
  N        0.7028190     0.9633360    -0.0000720
  C        1.0536040    -0.3405910    -0.0000270
  H       -1.9683030    -0.5816970     0.0001040
  H        2.0757780    -0.6878530    -0.0000530
units angstrom
no_reorient  #important for SAPT in psi4, default
symmetry c1  #important for SAPT in psi4, default
}

set PROPERTIES_ORIGIN ["COM"]
properties('MP2/aug-cc-pvtz', properties = ['dipole'])
--------------------------------------------------------------------------

    Molecular point group: c1
  Charge       = 0
  Multiplicity = 1
  Basis Set: AUG-CC-PVTZ
    Blend: AUG-CC-PVTZ
  Basis Set: (AUG-CC-PVTZ AUX)
    Blend: AUG-CC-PVTZ-JKFIT

    Orbital Energies [Eh]
    ---------------------

    Doubly Occupied:

       1A    -15.721837     2A    -15.682634     3A    -15.639732
       4A    -15.616917     5A    -11.312987     6A     -1.513365
       7A     -1.264006     8A     -1.189873     9A     -0.917559
      10A     -0.881822    11A     -0.779587    12A     -0.691164
      13A     -0.640199    14A     -0.576209    15A     -0.517935
      16A     -0.481966    17A     -0.446138    18A     -0.420035

  @DF-RHF Final Energy:  -256.84156132656204

   => Energetics <=

    Nuclear Repulsion Energy =            167.0535480419614203
    One-Electron Energy =                -679.2022857485967506
    Two-Electron Energy =                 255.3071763800732583
    Total Energy =                       -256.8415613265620436
  Basis Set: (AUG-CC-PVTZ AUX)
    Blend: AUG-CC-PVTZ-RI
    Molecular point group: c1

    Geometry (in Angstrom), charge = 0, multiplicity = 1:

       Center              X                  Y                   Z               Mass
    ------------   -----------------  -----------------  -----------------  -----------------
         N           -0.965506446204    -0.290694713421     0.000050733187    14.003074004430
         N           -0.002935846204    -1.204912813421     0.000052433187    14.003074004430
         N           -0.635598846204     0.965210186579    -0.000014566813    14.003074004430
         N            0.698119153796     0.938499186579    -0.000070566813    14.003074004430
         C            1.048904153796    -0.365427813421    -0.000025566813    12.000000000000
         H           -1.973002846204    -0.606533813421     0.000105433187     1.007825032230
         H            2.071078153796    -0.712689813421    -0.000051566813     1.007825032230

  Basis Set: AUG-CC-PVTZ
    Blend: AUG-CC-PVTZ
  Basis Set: (AUG-CC-PVTZ AUX)
    Blend: AUG-CC-PVTZ-JKFIT
	 Reference Energy          =    -256.8415613265620436 [Eh]
	 Singles Energy            =      -0.0000000000000000 [Eh]
	 Same-Spin Energy          =      -0.2774813187951071 [Eh]
	 Opposite-Spin Energy      =      -0.7922680960729218 [Eh]
	 Correlation Energy        =      -1.0697494148680289 [Eh]
	 Total Energy              =    -257.9113107414300998 [Eh]

	 ================> DF-SCS-MP2 Energies <==================
	-----------------------------------------------------------
	 SCS Same-Spin Scale       =       0.3333333333333333 [-]
	 SCS Opposite-Spin Scale   =       1.2000000000000000 [-]
	 SCS Same-Spin Energy      =      -0.0924937729317024 [Eh]
	 SCS Opposite-Spin Energy  =      -0.9507217152875062 [Eh]
	 SCS Correlation Energy    =      -1.0432154882192086 [Eh]
	 SCS Total Energy          =    -257.8847768147812758 [Eh]
	-----------------------------------------------------------

  Dipole Moment: [D]
     X:    -1.3068      Y:    -2.0398      Z:     0.0001     Total:     2.4225

*** Psi4 exiting successfully. Buy a developer a beer!
