                               Psi4 1.3.2 release

  ==> Input File <==

--------------------------------------------------------------------------
#psi4
#
memory 32 gb

molecule  {
0 1
  N       -1.0812358    -0.2716676     0.0000547
  N        0.0017640    -1.1800760     0.0000510
  N       -0.6308990     0.9900470    -0.0000160
  N        0.7028190     0.9633360    -0.0000720
  C        1.0536040    -0.3405910    -0.0000270
  H       -1.9683030    -0.5816970     0.0001040
  H        2.0757780    -0.6878530    -0.0000530
units angstrom
no_reorient  #important for SAPT in psi4, default
symmetry c1  #important for SAPT in psi4, default
}

set PROPERTIES_ORIGIN ["COM"]
properties('MP2/aug-cc-pvtz', properties = ['dipole'])
--------------------------------------------------------------------------

    Molecular point group: c1
  Charge       = 0
  Multiplicity = 1
  Basis Set: AUG-CC-PVTZ
    Blend: AUG-CC-PVTZ
  Basis Set: (AUG-CC-PVTZ AUX)
    Blend: AUG-CC-PVTZ-JKFIT

    Orbital Energies [Eh]
    ---------------------

    Doubly Occupied:

       1A    -15.708147     2A    -15.694311     3A    -15.641668
       4A    -15.625507     5A    -11.319853     6A     -1.478088
       7A     -1.247353     8A     -1.189537     9A     -0.951744
      10A     -0.865088    11A     -0.783453    12A     -0.668560
      13A     -0.654674    14A     -0.584065    15A     -0.497726
      16A     -0.484348    17A     -0.445122    18A     -0.422136

  @DF-RHF Final Energy:  -256.82743849144430

   => Energetics <=

    Nuclear Repulsion Energy =            164.4345077415964624
    One-Electron Energy =                -674.0011371725527169
    Two-Electron Energy =                 252.7391909395119853
    Total Energy =                       -256.8274384914442408
  Basis Set: (AUG-CC-PVTZ AUX)
    Blend: AUG-CC-PVTZ-RI
    Molecular point group: c1

    Geometry (in Angstrom), charge = 0, multiplicity = 1:

       Center              X                  Y                   Z               Mass
    ------------   -----------------  -----------------  -----------------  -----------------
         N           -1.061854131691    -0.295342682090     0.000055053381    14.003074004430
         N            0.021145668309    -1.203751082090     0.000051353381    14.003074004430
         N           -0.611517331691     0.966371917910    -0.000015646619    14.003074004430
         N            0.722200668309     0.939660917910    -0.000071646619    14.003074004430
         C            1.072985668309    -0.364266082090    -0.000026646619    12.000000000000
         H           -1.948921331691    -0.605372082090     0.000104353381     1.007825032230
         H            2.095159668309    -0.711528082090    -0.000052646619     1.007825032230

  Basis Set: AUG-CC-PVTZ
    Blend: AUG-CC-PVTZ
  Basis Set: (AUG-CC-PVTZ AUX)
    Blend: AUG-CC-PVTZ-JKFIT
	 Reference Energy          =    -256.8274384914442976 [Eh]
	 Singles Energy            =      -0.0000000000000000 [Eh]
	 Same-Spin Energy          =      -0.2771901661033578 [Eh]
	 Opposite-Spin Energy      =      -0.7949875630078980 [Eh]
	 Correlation Energy        =      -1.0721777291112558 [Eh]
	 Total Energy              =    -257.8996162205555720 [Eh]

	 ================> DF-SCS-MP2 Energies <==================
	-----------------------------------------------------------
	 SCS Same-Spin Scale       =       0.3333333333333333 [-]
	 SCS Opposite-Spin Scale   =       1.2000000000000000 [-]
	 SCS Same-Spin Energy      =      -0.0923967220344526 [Eh]
	 SCS Opposite-Spin Energy  =      -0.9539850756094775 [Eh]
	 SCS Correlation Energy    =      -1.0463817976439302 [Eh]
	 SCS Total Energy          =    -257.8738202890882008 [Eh]
	-----------------------------------------------------------

  Dipole Moment: [D]
     X:    -1.1017      Y:    -1.9297      Z:     0.0001     Total:     2.2220

*** Psi4 exiting successfully. Buy a developer a beer!
