                               Psi4 1.3.2 release

  ==> Input File <==

--------------------------------------------------------------------------
#psi4
#
memory 32 gb

molecule  {
0 1
  N       -0.9921260    -0.3000080     0.0000520
  N       -0.0268929    -1.1428559     0.0000506
  N       -0.6308990     0.9900470    -0.0000160
  N        0.7028190     0.9633360    -0.0000720
  C        1.0536040    -0.3405910    -0.0000270
  H       -1.9683030    -0.5816970     0.0001040
  H        2.0757780    -0.6878530    -0.0000530
units angstrom
no_reorient  #important for SAPT in psi4, default
symmetry c1  #important for SAPT in psi4, default
}

set PROPERTIES_ORIGIN ["COM"]
properties('MP2/aug-cc-pvtz', properties = ['dipole'])
--------------------------------------------------------------------------

    Molecular point group: c1
  Charge       = 0
  Multiplicity = 1
  Basis Set: AUG-CC-PVTZ
    Blend: AUG-CC-PVTZ
  Basis Set: (AUG-CC-PVTZ AUX)
    Blend: AUG-CC-PVTZ-JKFIT

    Orbital Energies [Eh]
    ---------------------

    Doubly Occupied:

       1A    -15.719084     2A    -15.676331     3A    -15.638333
       4A    -15.623028     5A    -11.310334     6A     -1.511584
       7A     -1.274480     8A     -1.180468     9A     -0.927733
      10A     -0.884874    11A     -0.782002    12A     -0.690392
      13A     -0.660489    14A     -0.572085    15A     -0.505012
      16A     -0.484518    17A     -0.455872    18A     -0.408625

  @DF-RHF Final Energy:  -256.84420187159390

   => Energetics <=

    Nuclear Repulsion Energy =            167.2153627106342810
    One-Electron Energy =                -679.5086419032002141
    Two-Electron Energy =                 255.4490773209720089
    Total Energy =                       -256.8442018715938957
  Basis Set: (AUG-CC-PVTZ AUX)
    Blend: AUG-CC-PVTZ-RI
    Molecular point group: c1

    Geometry (in Angstrom), charge = 0, multiplicity = 1:

       Center              X                  Y                   Z               Mass
    ------------   -----------------  -----------------  -----------------  -----------------
         N           -0.984832740388    -0.325458703155     0.000052973269    14.003074004430
         N           -0.019599640388    -1.168306603155     0.000051573269    14.003074004430
         N           -0.623605740388     0.964596296845    -0.000015026731    14.003074004430
         N            0.710112259612     0.937885296845    -0.000071026731    14.003074004430
         C            1.060897259612    -0.366041703155    -0.000026026731    12.000000000000
         H           -1.961009740388    -0.607147703155     0.000104973269     1.007825032230
         H            2.083071259612    -0.713303703155    -0.000052026731     1.007825032230

  Basis Set: AUG-CC-PVTZ
    Blend: AUG-CC-PVTZ
  Basis Set: (AUG-CC-PVTZ AUX)
    Blend: AUG-CC-PVTZ-JKFIT
	 Reference Energy          =    -256.8442018715938957 [Eh]
	 Singles Energy            =      -0.0000000000000000 [Eh]
	 Same-Spin Energy          =      -0.2774994800308735 [Eh]
	 Opposite-Spin Energy      =      -0.7916896301510471 [Eh]
	 Correlation Energy        =      -1.0691891101819206 [Eh]
	 Total Energy              =    -257.9133909817758195 [Eh]

	 ================> DF-SCS-MP2 Energies <==================
	-----------------------------------------------------------
	 SCS Same-Spin Scale       =       0.3333333333333333 [-]
	 SCS Opposite-Spin Scale   =       1.2000000000000000 [-]
	 SCS Same-Spin Energy      =      -0.0924998266769578 [Eh]
	 SCS Opposite-Spin Energy  =      -0.9500275561812564 [Eh]
	 SCS Correlation Energy    =      -1.0425273828582142 [Eh]
	 SCS Total Energy          =    -257.8867292544521206 [Eh]
	-----------------------------------------------------------

  Dipole Moment: [D]
     X:    -1.2471      Y:    -2.0990      Z:     0.0001     Total:     2.4415

*** Psi4 exiting successfully. Buy a developer a beer!
