                               Psi4 1.3.2 release

  ==> Input File <==

--------------------------------------------------------------------------
#psi4
#
memory 32 gb

molecule  {
0 1
  N       -1.0510954    -0.3714821     0.0000574
  N        0.0017640    -1.1800760     0.0000510
  N       -0.6308990     0.9900470    -0.0000160
  N        0.7028190     0.9633360    -0.0000720
  C        1.0536040    -0.3405910    -0.0000270
  H       -1.9683030    -0.5816970     0.0001040
  H        2.0757780    -0.6878530    -0.0000530
units angstrom
no_reorient  #important for SAPT in psi4, default
symmetry c1  #important for SAPT in psi4, default
}

set PROPERTIES_ORIGIN ["COM"]
properties('MP2/aug-cc-pvtz', properties = ['dipole'])
--------------------------------------------------------------------------

    Molecular point group: c1
  Charge       = 0
  Multiplicity = 1
  Basis Set: AUG-CC-PVTZ
    Blend: AUG-CC-PVTZ
  Basis Set: (AUG-CC-PVTZ AUX)
    Blend: AUG-CC-PVTZ-JKFIT

    Orbital Energies [Eh]
    ---------------------

    Doubly Occupied:

       1A    -15.706772     2A    -15.688879     3A    -15.648448
       4A    -15.635243     5A    -11.314546     6A     -1.474622
       7A     -1.271277     8A     -1.170199     9A     -0.947552
      10A     -0.866216    11A     -0.780863    12A     -0.669830
      13A     -0.667653    14A     -0.575115    15A     -0.498928
      16A     -0.488899    17A     -0.461249    18A     -0.403863

  @DF-RHF Final Energy:  -256.82455689633298

   => Energetics <=

    Nuclear Repulsion Energy =            164.4428593705946753
    One-Electron Energy =                -673.9945232899194707
    Two-Electron Energy =                 252.7271070229918166
    Total Energy =                       -256.8245568963329788
  Basis Set: (AUG-CC-PVTZ AUX)
    Blend: AUG-CC-PVTZ-RI
    Molecular point group: c1

    Geometry (in Angstrom), charge = 0, multiplicity = 1:

       Center              X                  Y                   Z               Mass
    ------------   -----------------  -----------------  -----------------  -----------------
         N           -1.037740729130    -0.375197867153     0.000057213478    14.003074004430
         N            0.015118670870    -1.183791767153     0.000050813478    14.003074004430
         N           -0.617544329130     0.986331232847    -0.000016186522    14.003074004430
         N            0.716173670870     0.959620232847    -0.000072186522    14.003074004430
         C            1.066958670870    -0.344306767153    -0.000027186522    12.000000000000
         H           -1.954948329130    -0.585412767153     0.000103813478     1.007825032230
         H            2.089132670870    -0.691568767153    -0.000053186522     1.007825032230

  Basis Set: AUG-CC-PVTZ
    Blend: AUG-CC-PVTZ
  Basis Set: (AUG-CC-PVTZ AUX)
    Blend: AUG-CC-PVTZ-JKFIT
	 Reference Energy          =    -256.8245568963329788 [Eh]
	 Singles Energy            =      -0.0000000000000000 [Eh]
	 Same-Spin Energy          =      -0.2790354461232111 [Eh]
	 Opposite-Spin Energy      =      -0.7976440774620915 [Eh]
	 Correlation Energy        =      -1.0766795235853026 [Eh]
	 Total Energy              =    -257.9012364199182912 [Eh]

	 ================> DF-SCS-MP2 Energies <==================
	-----------------------------------------------------------
	 SCS Same-Spin Scale       =       0.3333333333333333 [-]
	 SCS Opposite-Spin Scale   =       1.2000000000000000 [-]
	 SCS Same-Spin Energy      =      -0.0930118153744037 [Eh]
	 SCS Opposite-Spin Energy  =      -0.9571728929545098 [Eh]
	 SCS Correlation Energy    =      -1.0501847083289135 [Eh]
	 SCS Total Energy          =    -257.8747416046618923 [Eh]
	-----------------------------------------------------------

  Dipole Moment: [D]
     X:    -1.0711      Y:    -1.9536      Z:     0.0001     Total:     2.2279

*** Psi4 exiting successfully. Buy a developer a beer!
