                               Psi4 1.3.2 release

  ==> Input File <==

--------------------------------------------------------------------------
#psi4
#
memory 32 gb

molecule  {
0 1
  N       -0.9921260    -0.3000080     0.0000520
  N        0.0017640    -1.1800760     0.0000510
  N       -0.6308990     0.9900470    -0.0000160
  N        0.7028190     0.9633360    -0.0000720
  C        1.0536040    -0.3405910    -0.0000270
  H       -2.1604625    -0.6371472     0.0001142
  H        2.0757780    -0.6878530    -0.0000530
units angstrom
no_reorient  #important for SAPT in psi4, default
symmetry c1  #important for SAPT in psi4, default
}

set PROPERTIES_ORIGIN ["COM"]
properties('MP2/aug-cc-pvtz', properties = ['dipole'])
--------------------------------------------------------------------------

    Molecular point group: c1
  Charge       = 0
  Multiplicity = 1
  Basis Set: AUG-CC-PVTZ
    Blend: AUG-CC-PVTZ
  Basis Set: (AUG-CC-PVTZ AUX)
    Blend: AUG-CC-PVTZ-JKFIT

    Orbital Energies [Eh]
    ---------------------

    Doubly Occupied:

       1A    -15.728108     2A    -15.681254     3A    -15.639759
       4A    -15.619924     5A    -11.310635     6A     -1.492297
       7A     -1.258422     8A     -1.169237     9A     -0.894410
      10A     -0.872602    11A     -0.756935    12A     -0.678047
      13A     -0.632952    14A     -0.568705    15A     -0.507704
      16A     -0.482214    17A     -0.447106    18A     -0.410611

  @DF-RHF Final Energy:  -256.81196808368895

   => Energetics <=

    Nuclear Repulsion Energy =            165.1197764501766869
    One-Electron Energy =                -675.5616471854066276
    Two-Electron Energy =                 253.6299026515409878
    Total Energy =                       -256.8119680836889529
  Basis Set: (AUG-CC-PVTZ AUX)
    Blend: AUG-CC-PVTZ-RI
    Molecular point group: c1

    Geometry (in Angstrom), charge = 0, multiplicity = 1:

       Center              X                  Y                   Z               Mass
    ------------   -----------------  -----------------  -----------------  -----------------
         N           -0.987797578696    -0.317217994315     0.000052746488    14.003074004430
         N            0.006092421304    -1.197285994315     0.000051746488    14.003074004430
         N           -0.626570578696     0.972837005685    -0.000015253512    14.003074004430
         N            0.707147421304     0.946126005685    -0.000071253512    14.003074004430
         C            1.057932421304    -0.357800994315    -0.000026253512    12.000000000000
         H           -2.156134078696    -0.654357194315     0.000114946488     1.007825032230
         H            2.080106421304    -0.705062994315    -0.000052253512     1.007825032230

  Basis Set: AUG-CC-PVTZ
    Blend: AUG-CC-PVTZ
  Basis Set: (AUG-CC-PVTZ AUX)
    Blend: AUG-CC-PVTZ-JKFIT
	 Reference Energy          =    -256.8119680836889529 [Eh]
	 Singles Energy            =      -0.0000000000000000 [Eh]
	 Same-Spin Energy          =      -0.2798208892809151 [Eh]
	 Opposite-Spin Energy      =      -0.7979696843045772 [Eh]
	 Correlation Energy        =      -1.0777905735854922 [Eh]
	 Total Energy              =    -257.8897586572744558 [Eh]

	 ================> DF-SCS-MP2 Energies <==================
	-----------------------------------------------------------
	 SCS Same-Spin Scale       =       0.3333333333333333 [-]
	 SCS Opposite-Spin Scale   =       1.2000000000000000 [-]
	 SCS Same-Spin Energy      =      -0.0932736297603050 [Eh]
	 SCS Opposite-Spin Energy  =      -0.9575636211654925 [Eh]
	 SCS Correlation Energy    =      -1.0508372509257975 [Eh]
	 SCS Total Energy          =    -257.8628053346147340 [Eh]
	-----------------------------------------------------------

  Dipole Moment: [D]
     X:    -1.5499      Y:    -2.1187      Z:     0.0002     Total:     2.6251

*** Psi4 exiting successfully. Buy a developer a beer!
