                               Psi4 1.3.2 release

  ==> Input File <==

--------------------------------------------------------------------------
#psi4
#
memory 32 gb

molecule  {
0 1
  N       -0.9921260    -0.3000080     0.0000520
  N        0.0017640    -1.1800760     0.0000510
  N       -0.7217686     1.0121024    -0.0000131
  N        0.7028190     0.9633360    -0.0000720
  C        1.0536040    -0.3405910    -0.0000270
  H       -1.9683030    -0.5816970     0.0001040
  H        2.0757780    -0.6878530    -0.0000530
units angstrom
no_reorient  #important for SAPT in psi4, default
symmetry c1  #important for SAPT in psi4, default
}

set PROPERTIES_ORIGIN ["COM"]
properties('MP2/aug-cc-pvtz', properties = ['dipole'])
--------------------------------------------------------------------------

    Molecular point group: c1
  Charge       = 0
  Multiplicity = 1
  Basis Set: AUG-CC-PVTZ
    Blend: AUG-CC-PVTZ
  Basis Set: (AUG-CC-PVTZ AUX)
    Blend: AUG-CC-PVTZ-JKFIT

    Orbital Energies [Eh]
    ---------------------

    Doubly Occupied:

       1A    -15.728888     2A    -15.694740     3A    -15.643491
       4A    -15.624896     5A    -11.317576     6A     -1.486477
       7A     -1.240097     8A     -1.191777     9A     -0.930092
      10A     -0.870402    11A     -0.767284    12A     -0.676806
      13A     -0.652778    14A     -0.565971    15A     -0.524778
      16A     -0.480651    17A     -0.437173    18A     -0.419284

  @DF-RHF Final Energy:  -256.82411235377208

   => Energetics <=

    Nuclear Repulsion Energy =            164.2567853322815949
    One-Electron Energy =                -673.6554743327876622
    Two-Electron Energy =                 252.5745766467339593
    Total Energy =                       -256.8241123537720796
  Basis Set: (AUG-CC-PVTZ AUX)
    Blend: AUG-CC-PVTZ-RI
    Molecular point group: c1

    Geometry (in Angstrom), charge = 0, multiplicity = 1:

       Center              X                  Y                   Z               Mass
    ------------   -----------------  -----------------  -----------------  -----------------
         N           -0.972392434898    -0.322426307830     0.000052313388    14.003074004430
         N            0.021497565102    -1.202494307830     0.000051313388    14.003074004430
         N           -0.702035034898     0.989684092170    -0.000012786612    14.003074004430
         N            0.722552565102     0.940917692170    -0.000071686612    14.003074004430
         C            1.073337565102    -0.363009307830    -0.000026686612    12.000000000000
         H           -1.948569434898    -0.604115307830     0.000104313388     1.007825032230
         H            2.095511565102    -0.710271307830    -0.000052686612     1.007825032230

  Basis Set: AUG-CC-PVTZ
    Blend: AUG-CC-PVTZ
  Basis Set: (AUG-CC-PVTZ AUX)
    Blend: AUG-CC-PVTZ-JKFIT
	 Reference Energy          =    -256.8241123537720796 [Eh]
	 Singles Energy            =      -0.0000000000000000 [Eh]
	 Same-Spin Energy          =      -0.2807582106939909 [Eh]
	 Opposite-Spin Energy      =      -0.8009808069692919 [Eh]
	 Correlation Energy        =      -1.0817390176632828 [Eh]
	 Total Energy              =    -257.9058513714353467 [Eh]

	 ================> DF-SCS-MP2 Energies <==================
	-----------------------------------------------------------
	 SCS Same-Spin Scale       =       0.3333333333333333 [-]
	 SCS Opposite-Spin Scale   =       1.2000000000000000 [-]
	 SCS Same-Spin Energy      =      -0.0935860702313303 [Eh]
	 SCS Opposite-Spin Energy  =      -0.9611769683631501 [Eh]
	 SCS Correlation Energy    =      -1.0547630385944804 [Eh]
	 SCS Total Energy          =    -257.8788753923665809 [Eh]
	-----------------------------------------------------------

  Dipole Moment: [D]
     X:    -1.1907      Y:    -2.1519      Z:     0.0001     Total:     2.4593

*** Psi4 exiting successfully. Buy a developer a beer!
