                               Psi4 1.3.2 release

  ==> Input File <==

--------------------------------------------------------------------------
#psi4
#
memory 32 gb

molecule  {
0 1
  N       -1.0786735    -0.4087189     0.0000601
  N        0.0017640    -1.1800760     0.0000510
  N       -0.6308990     0.9900470    -0.0000160
  N        0.7028190     0.9633360    -0.0000720
  C        1.0536040    -0.3405910    -0.0000270
  H       -1.9683030    -0.5816970     0.0001040
  H        2.0757780    -0.6878530    -0.0000530
units angstrom
no_reorient  #important for SAPT in psi4, default
symmetry c1  #important for SAPT in psi4, default
}

set PROPERTIES_ORIGIN ["COM"]
properties('MP2/aug-cc-pvtz', properties = ['dipole'])
--------------------------------------------------------------------------

    Molecular point group: c1
  Charge       = 0
  Multiplicity = 1
  Basis Set: AUG-CC-PVTZ
    Blend: AUG-CC-PVTZ
  Basis Set: (AUG-CC-PVTZ AUX)
    Blend: AUG-CC-PVTZ-JKFIT

    Orbital Energies [Eh]
    ---------------------

    Doubly Occupied:

       1A    -15.701583     2A    -15.690745     3A    -15.651673
       4A    -15.641080     5A    -11.315449     6A     -1.465004
       7A     -1.275215     8A     -1.166142     9A     -0.957266
      10A     -0.861541    11A     -0.779989    12A     -0.678150
      13A     -0.661599    14A     -0.573916    15A     -0.499478
      16A     -0.483337    17A     -0.466285    18A     -0.399257

  @DF-RHF Final Energy:  -256.80616736876675

   => Energetics <=

    Nuclear Repulsion Energy =            163.6682901996297801
    One-Electron Energy =                -672.4134987523773361
    Two-Electron Energy =                 251.9390411839807769
    Total Energy =                       -256.8061673687667508
  Basis Set: (AUG-CC-PVTZ AUX)
    Blend: AUG-CC-PVTZ-RI
    Molecular point group: c1

    Geometry (in Angstrom), charge = 0, multiplicity = 1:

       Center              X                  Y                   Z               Mass
    ------------   -----------------  -----------------  -----------------  -----------------
         N           -1.059804199660    -0.404988644597     0.000059373574    14.003074004430
         N            0.020633300340    -1.176345744597     0.000050273574    14.003074004430
         N           -0.612029699660     0.993777255403    -0.000016726426    14.003074004430
         N            0.721688300340     0.967066255403    -0.000072726426    14.003074004430
         C            1.072473300340    -0.336860744597    -0.000027726426    12.000000000000
         H           -1.949433699660    -0.577966744597     0.000103273574     1.007825032230
         H            2.094647300340    -0.684122744597    -0.000053726426     1.007825032230

  Basis Set: AUG-CC-PVTZ
    Blend: AUG-CC-PVTZ
  Basis Set: (AUG-CC-PVTZ AUX)
    Blend: AUG-CC-PVTZ-JKFIT
	 Reference Energy          =    -256.8061673687667508 [Eh]
	 Singles Energy            =      -0.0000000000000000 [Eh]
	 Same-Spin Energy          =      -0.2798191395155195 [Eh]
	 Opposite-Spin Energy      =      -0.8001817371257877 [Eh]
	 Correlation Energy        =      -1.0800008766413072 [Eh]
	 Total Energy              =    -257.8861682454080437 [Eh]

	 ================> DF-SCS-MP2 Energies <==================
	-----------------------------------------------------------
	 SCS Same-Spin Scale       =       0.3333333333333333 [-]
	 SCS Opposite-Spin Scale   =       1.2000000000000000 [-]
	 SCS Same-Spin Energy      =      -0.0932730465051732 [Eh]
	 SCS Opposite-Spin Energy  =      -0.9602180845509452 [Eh]
	 SCS Correlation Energy    =      -1.0534911310561184 [Eh]
	 SCS Total Energy          =    -257.8596584998228423 [Eh]
	-----------------------------------------------------------

  Dipole Moment: [D]
     X:    -0.9792      Y:    -1.9020      Z:     0.0001     Total:     2.1393

*** Psi4 exiting successfully. Buy a developer a beer!
