                               Psi4 1.3.2 release

  ==> Input File <==

--------------------------------------------------------------------------
#psi4
#
memory 32 gb

molecule  {
0 1
  N       -0.9921260    -0.3000080     0.0000520
  N       -0.0802240    -1.0655300     0.0000490
  N       -0.6308990     0.9900470    -0.0000160
  N        0.7028190     0.9633360    -0.0000720
  C        1.0536040    -0.3405910    -0.0000270
  H       -1.9683030    -0.5816970     0.0001040
  H        2.0757780    -0.6878530    -0.0000530
units angstrom
no_reorient  #important for SAPT in psi4, default
symmetry c1  #important for SAPT in psi4, default
}

set PROPERTIES_ORIGIN ["COM"]
properties('MP2/aug-cc-pvtz', properties = ['dipole'])
--------------------------------------------------------------------------

    Molecular point group: c1
  Charge       = 0
  Multiplicity = 1
  Basis Set: AUG-CC-PVTZ
    Blend: AUG-CC-PVTZ
  Basis Set: (AUG-CC-PVTZ AUX)
    Blend: AUG-CC-PVTZ-JKFIT

    Orbital Energies [Eh]
    ---------------------

    Doubly Occupied:

       1A    -15.722189     2A    -15.657906     3A    -15.629846
       4A    -15.622834     5A    -11.304659     6A     -1.546516
       7A     -1.291976     8A     -1.175748     9A     -0.931213
      10A     -0.900679    11A     -0.786506    12A     -0.710890
      13A     -0.678179    14A     -0.562781    15A     -0.490324
      16A     -0.482216    17A     -0.465589    18A     -0.397224

  @DF-RHF Final Energy:  -256.83080662402210

   => Energetics <=

    Nuclear Repulsion Energy =            169.5746859732892915
    One-Electron Energy =                -684.0964349412113279
    Two-Electron Energy =                 257.6909423438999056
    Total Energy =                       -256.8308066240221024
  Basis Set: (AUG-CC-PVTZ AUX)
    Blend: AUG-CC-PVTZ-RI
    Molecular point group: c1

    Geometry (in Angstrom), charge = 0, multiplicity = 1:

       Center              X                  Y                   Z               Mass
    ------------   -----------------  -----------------  -----------------  -----------------
         N           -0.974168435895    -0.340921105821     0.000053293212    14.003074004430
         N           -0.062266435895    -1.106443105821     0.000050293212    14.003074004430
         N           -0.612941435895     0.949133894179    -0.000014706788    14.003074004430
         N            0.720776564105     0.922422894179    -0.000070706788    14.003074004430
         C            1.071561564105    -0.381504105821    -0.000025706788    12.000000000000
         H           -1.950345435895    -0.622610105821     0.000105293212     1.007825032230
         H            2.093735564105    -0.728766105821    -0.000051706788     1.007825032230

  Basis Set: AUG-CC-PVTZ
    Blend: AUG-CC-PVTZ
  Basis Set: (AUG-CC-PVTZ AUX)
    Blend: AUG-CC-PVTZ-JKFIT
	 Reference Energy          =    -256.8308066240221024 [Eh]
	 Singles Energy            =      -0.0000000000000000 [Eh]
	 Same-Spin Energy          =      -0.2766420501463228 [Eh]
	 Opposite-Spin Energy      =      -0.7877164980060307 [Eh]
	 Correlation Energy        =      -1.0643585481523536 [Eh]
	 Total Energy              =    -257.8951651721744724 [Eh]

	 ================> DF-SCS-MP2 Energies <==================
	-----------------------------------------------------------
	 SCS Same-Spin Scale       =       0.3333333333333333 [-]
	 SCS Opposite-Spin Scale   =       1.2000000000000000 [-]
	 SCS Same-Spin Energy      =      -0.0922140167154409 [Eh]
	 SCS Opposite-Spin Energy  =      -0.9452597976072368 [Eh]
	 SCS Correlation Energy    =      -1.0374738143226776 [Eh]
	 SCS Total Energy          =    -257.8682804383447547 [Eh]
	-----------------------------------------------------------

  Dipole Moment: [D]
     X:    -1.2680      Y:    -2.3110      Z:     0.0002     Total:     2.6360

*** Psi4 exiting successfully. Buy a developer a beer!
