                               Psi4 1.3.2 release

  ==> Input File <==

--------------------------------------------------------------------------
#psi4
#
memory 32 gb

molecule  {
0 1
  N       -0.9921260    -0.3000080     0.0000520
  N        0.0017640    -1.1800760     0.0000510
  N       -0.6257869     1.0830174    -0.0000205
  N        0.7028190     0.9633360    -0.0000720
  C        1.0536040    -0.3405910    -0.0000270
  H       -1.9683030    -0.5816970     0.0001040
  H        2.0757780    -0.6878530    -0.0000530
units angstrom
no_reorient  #important for SAPT in psi4, default
symmetry c1  #important for SAPT in psi4, default
}

set PROPERTIES_ORIGIN ["COM"]
properties('MP2/aug-cc-pvtz', properties = ['dipole'])
--------------------------------------------------------------------------

    Molecular point group: c1
  Charge       = 0
  Multiplicity = 1
  Basis Set: AUG-CC-PVTZ
    Blend: AUG-CC-PVTZ
  Basis Set: (AUG-CC-PVTZ AUX)
    Blend: AUG-CC-PVTZ-JKFIT

    Orbital Energies [Eh]
    ---------------------

    Doubly Occupied:

       1A    -15.709574     2A    -15.696181     3A    -15.654900
       4A    -15.629701     5A    -11.312987     6A     -1.474580
       7A     -1.270669     8A     -1.161858     9A     -0.928800
      10A     -0.861944    11A     -0.773013    12A     -0.667564
      13A     -0.651443    14A     -0.579739    15A     -0.516519
      16A     -0.483058    17A     -0.458245    18A     -0.403700

  @DF-RHF Final Energy:  -256.82497484641516

   => Energetics <=

    Nuclear Repulsion Energy =            164.1346092089168849
    One-Electron Energy =                -673.4502206116795833
    Two-Electron Energy =                 252.4906365563475106
    Total Energy =                       -256.8249748464151594
  Basis Set: (AUG-CC-PVTZ AUX)
    Blend: AUG-CC-PVTZ-RI
    Molecular point group: c1

    Geometry (in Angstrom), charge = 0, multiplicity = 1:

       Center              X                  Y                   Z               Mass
    ------------   -----------------  -----------------  -----------------  -----------------
         N           -0.991585327498    -0.336606760757     0.000053793122    14.003074004430
         N            0.002304672502    -1.216674760757     0.000052793122    14.003074004430
         N           -0.625246227498     1.046418639243    -0.000018706878    14.003074004430
         N            0.703359672502     0.926737239243    -0.000070206878    14.003074004430
         C            1.054144672502    -0.377189760757    -0.000025206878    12.000000000000
         H           -1.967762327498    -0.618295760757     0.000105793122     1.007825032230
         H            2.076318672502    -0.724451760757    -0.000051206878     1.007825032230

  Basis Set: AUG-CC-PVTZ
    Blend: AUG-CC-PVTZ
  Basis Set: (AUG-CC-PVTZ AUX)
    Blend: AUG-CC-PVTZ-JKFIT
	 Reference Energy          =    -256.8249748464151594 [Eh]
	 Singles Energy            =      -0.0000000000000000 [Eh]
	 Same-Spin Energy          =      -0.2806439380438879 [Eh]
	 Opposite-Spin Energy      =      -0.8004231951337315 [Eh]
	 Correlation Energy        =      -1.0810671331776194 [Eh]
	 Total Energy              =    -257.9060419795927714 [Eh]

	 ================> DF-SCS-MP2 Energies <==================
	-----------------------------------------------------------
	 SCS Same-Spin Scale       =       0.3333333333333333 [-]
	 SCS Opposite-Spin Scale   =       1.2000000000000000 [-]
	 SCS Same-Spin Energy      =      -0.0935479793479626 [Eh]
	 SCS Opposite-Spin Energy  =      -0.9605078341604778 [Eh]
	 SCS Correlation Energy    =      -1.0540558135084404 [Eh]
	 SCS Total Energy          =    -257.8790306599236146 [Eh]
	-----------------------------------------------------------

  Dipole Moment: [D]
     X:    -1.1335      Y:    -1.9998      Z:     0.0001     Total:     2.2987

*** Psi4 exiting successfully. Buy a developer a beer!
