                               Psi4 1.3.2 release

  ==> Input File <==

--------------------------------------------------------------------------
#psi4
#
memory 32 gb

molecule  {
0 1
  N       -0.9921260    -0.3000080     0.0000520
  N        0.0017640    -1.1800760     0.0000510
  N       -0.6302297     1.0133195    -0.0000171
  N        0.7028190     0.9633360    -0.0000720
  C        1.0536040    -0.3405910    -0.0000270
  H       -1.9683030    -0.5816970     0.0001040
  H        2.0757780    -0.6878530    -0.0000530
units angstrom
no_reorient  #important for SAPT in psi4, default
symmetry c1  #important for SAPT in psi4, default
}

set PROPERTIES_ORIGIN ["COM"]
properties('MP2/aug-cc-pvtz', properties = ['dipole'])
--------------------------------------------------------------------------

    Molecular point group: c1
  Charge       = 0
  Multiplicity = 1
  Basis Set: AUG-CC-PVTZ
    Blend: AUG-CC-PVTZ
  Basis Set: (AUG-CC-PVTZ AUX)
    Blend: AUG-CC-PVTZ-JKFIT

    Orbital Energies [Eh]
    ---------------------

    Doubly Occupied:

       1A    -15.715258     2A    -15.687755     3A    -15.645669
       4A    -15.624667     5A    -11.313226     6A     -1.491919
       7A     -1.266581     8A     -1.177174     9A     -0.927328
      10A     -0.873419    11A     -0.778406    12A     -0.678312
      13A     -0.650745    14A     -0.577163    15A     -0.512594
      16A     -0.485277    17A     -0.452773    18A     -0.411662

  @DF-RHF Final Energy:  -256.83927629615874

   => Energetics <=

    Nuclear Repulsion Energy =            165.6143974920790356
    One-Electron Energy =                -676.3674943043629355
    Two-Electron Energy =                 253.9138205161251562
    Total Energy =                       -256.8392762961587437
  Basis Set: (AUG-CC-PVTZ AUX)
    Blend: AUG-CC-PVTZ-RI
    Molecular point group: c1

    Geometry (in Angstrom), charge = 0, multiplicity = 1:

       Center              X                  Y                   Z               Mass
    ------------   -----------------  -----------------  -----------------  -----------------
         N           -0.990696927071    -0.322669684115     0.000053113244    14.003074004430
         N            0.003193072929    -1.202737684115     0.000052113244    14.003074004430
         N           -0.628800627071     0.990657815885    -0.000015986756    14.003074004430
         N            0.704248072929     0.940674315885    -0.000070886756    14.003074004430
         C            1.055033072929    -0.363252684115    -0.000025886756    12.000000000000
         H           -1.966873927071    -0.604358684115     0.000105113244     1.007825032230
         H            2.077207072929    -0.710514684115    -0.000051886756     1.007825032230

  Basis Set: AUG-CC-PVTZ
    Blend: AUG-CC-PVTZ
  Basis Set: (AUG-CC-PVTZ AUX)
    Blend: AUG-CC-PVTZ-JKFIT
	 Reference Energy          =    -256.8392762961587437 [Eh]
	 Singles Energy            =      -0.0000000000000000 [Eh]
	 Same-Spin Energy          =      -0.2785731730269831 [Eh]
	 Opposite-Spin Energy      =      -0.7953587247506855 [Eh]
	 Correlation Energy        =      -1.0739318977776686 [Eh]
	 Total Energy              =    -257.9132081939363843 [Eh]

	 ================> DF-SCS-MP2 Energies <==================
	-----------------------------------------------------------
	 SCS Same-Spin Scale       =       0.3333333333333333 [-]
	 SCS Opposite-Spin Scale   =       1.2000000000000000 [-]
	 SCS Same-Spin Energy      =      -0.0928577243423277 [Eh]
	 SCS Opposite-Spin Energy  =      -0.9544304697008226 [Eh]
	 SCS Correlation Energy    =      -1.0472881940431502 [Eh]
	 SCS Total Energy          =    -257.8865644902019199 [Eh]
	-----------------------------------------------------------

  Dipole Moment: [D]
     X:    -1.2087      Y:    -2.0248      Z:     0.0001     Total:     2.3581

*** Psi4 exiting successfully. Buy a developer a beer!
