                               Psi4 1.3.2 release

  ==> Input File <==

--------------------------------------------------------------------------
#psi4
#
memory 32 gb

molecule  {
0 1
  N       -0.9921260    -0.3000080     0.0000520
  N        0.0017640    -1.1800760     0.0000510
  N       -0.6308990     0.9900470    -0.0000160
  N        0.7028190     0.9633360    -0.0000720
  C        1.0276255    -0.2440244    -0.0000303
  H       -1.9683030    -0.5816970     0.0001040
  H        2.0757780    -0.6878530    -0.0000530
units angstrom
no_reorient  #important for SAPT in psi4, default
symmetry c1  #important for SAPT in psi4, default
}

set PROPERTIES_ORIGIN ["COM"]
properties('MP2/aug-cc-pvtz', properties = ['dipole'])
--------------------------------------------------------------------------

    Molecular point group: c1
  Charge       = 0
  Multiplicity = 1
  Basis Set: AUG-CC-PVTZ
    Blend: AUG-CC-PVTZ
  Basis Set: (AUG-CC-PVTZ AUX)
    Blend: AUG-CC-PVTZ-JKFIT

    Orbital Energies [Eh]
    ---------------------

    Doubly Occupied:

       1A    -15.727821     2A    -15.679577     3A    -15.642469
       4A    -15.615191     5A    -11.310333     6A     -1.508577
       7A     -1.280154     8A     -1.185084     9A     -0.947475
      10A     -0.867023    11A     -0.780652    12A     -0.688605
      13A     -0.630752    14A     -0.578944    15A     -0.505613
      16A     -0.492168    17A     -0.468560    18A     -0.406612

  @DF-RHF Final Energy:  -256.82770890079445

   => Energetics <=

    Nuclear Repulsion Energy =            167.3287897782117284
    One-Electron Energy =                -679.6817748597995887
    Two-Electron Energy =                 255.5252761807933553
    Total Energy =                       -256.8277089007944483
  Basis Set: (AUG-CC-PVTZ AUX)
    Blend: AUG-CC-PVTZ-RI
    Molecular point group: c1

    Geometry (in Angstrom), charge = 0, multiplicity = 1:

       Center              X                  Y                   Z               Mass
    ------------   -----------------  -----------------  -----------------  -----------------
         N           -0.986111411211    -0.334563687964     0.000053458772    14.003074004430
         N            0.007778588789    -1.214631687964     0.000052458772    14.003074004430
         N           -0.624884411211     0.955491312036    -0.000014541228    14.003074004430
         N            0.708833588789     0.928780312036    -0.000070541228    14.003074004430
         C            1.033640088789    -0.278580087964    -0.000028841228    12.000000000000
         H           -1.962288411211    -0.616252687964     0.000105458772     1.007825032230
         H            2.081792588789    -0.722408687964    -0.000051541228     1.007825032230

  Basis Set: AUG-CC-PVTZ
    Blend: AUG-CC-PVTZ
  Basis Set: (AUG-CC-PVTZ AUX)
    Blend: AUG-CC-PVTZ-JKFIT
	 Reference Energy          =    -256.8277089007944483 [Eh]
	 Singles Energy            =      -0.0000000000000000 [Eh]
	 Same-Spin Energy          =      -0.2788454824637993 [Eh]
	 Opposite-Spin Energy      =      -0.7947732968170080 [Eh]
	 Correlation Energy        =      -1.0736187792808072 [Eh]
	 Total Energy              =    -257.9013276800752692 [Eh]

	 ================> DF-SCS-MP2 Energies <==================
	-----------------------------------------------------------
	 SCS Same-Spin Scale       =       0.3333333333333333 [-]
	 SCS Opposite-Spin Scale   =       1.2000000000000000 [-]
	 SCS Same-Spin Energy      =      -0.0929484941545997 [Eh]
	 SCS Opposite-Spin Energy  =      -0.9537279561804096 [Eh]
	 SCS Correlation Energy    =      -1.0466764503350094 [Eh]
	 SCS Total Energy          =    -257.8743853511294333 [Eh]
	-----------------------------------------------------------

  Dipole Moment: [D]
     X:    -1.3144      Y:    -1.9089      Z:     0.0001     Total:     2.3177

*** Psi4 exiting successfully. Buy a developer a beer!
