                               Psi4 1.3.2 release

  ==> Input File <==

--------------------------------------------------------------------------
#psi4
#
memory 32 gb

molecule  {
0 1
  N       -0.9921260    -0.3000080     0.0000520
  N        0.0017640    -1.1800760     0.0000510
  N       -0.6310187     0.9434846    -0.0000139
  N        0.7028190     0.9633360    -0.0000720
  C        1.0536040    -0.3405910    -0.0000270
  H       -1.9683030    -0.5816970     0.0001040
  H        2.0757780    -0.6878530    -0.0000530
units angstrom
no_reorient  #important for SAPT in psi4, default
symmetry c1  #important for SAPT in psi4, default
}

set PROPERTIES_ORIGIN ["COM"]
properties('MP2/aug-cc-pvtz', properties = ['dipole'])
--------------------------------------------------------------------------

    Molecular point group: c1
  Charge       = 0
  Multiplicity = 1
  Basis Set: AUG-CC-PVTZ
    Blend: AUG-CC-PVTZ
  Basis Set: (AUG-CC-PVTZ AUX)
    Blend: AUG-CC-PVTZ-JKFIT

    Orbital Energies [Eh]
    ---------------------

    Doubly Occupied:

       1A    -15.720070     2A    -15.678570     3A    -15.635762
       4A    -15.619887     5A    -11.313343     6A     -1.513488
       7A     -1.262272     8A     -1.193973     9A     -0.928437
      10A     -0.883618    11A     -0.783260    12A     -0.691193
      13A     -0.649994    14A     -0.576390    15A     -0.505501
      16A     -0.485761    17A     -0.448083    18A     -0.419167

  @DF-RHF Final Energy:  -256.84645176446031

   => Energetics <=

    Nuclear Repulsion Energy =            167.2139697332567607
    One-Electron Energy =                -679.5033037602827335
    Two-Electron Energy =                 255.4428822625656039
    Total Energy =                       -256.8464517644603120
  Basis Set: (AUG-CC-PVTZ AUX)
    Blend: AUG-CC-PVTZ-RI
    Molecular point group: c1

    Geometry (in Angstrom), charge = 0, multiplicity = 1:

       Center              X                  Y                   Z               Mass
    ------------   -----------------  -----------------  -----------------  -----------------
         N           -0.990539155410    -0.308705212393     0.000052473359    14.003074004430
         N            0.003350844590    -1.188773212393     0.000051473359    14.003074004430
         N           -0.629431855410     0.934787387607    -0.000013426641    14.003074004430
         N            0.704405844590     0.954638787607    -0.000071526641    14.003074004430
         C            1.055190844590    -0.349288212393    -0.000026526641    12.000000000000
         H           -1.966716155410    -0.590394212393     0.000104473359     1.007825032230
         H            2.077364844590    -0.696550212393    -0.000052526641     1.007825032230

  Basis Set: AUG-CC-PVTZ
    Blend: AUG-CC-PVTZ
  Basis Set: (AUG-CC-PVTZ AUX)
    Blend: AUG-CC-PVTZ-JKFIT
	 Reference Energy          =    -256.8464517644603120 [Eh]
	 Singles Energy            =      -0.0000000000000000 [Eh]
	 Same-Spin Energy          =      -0.2765452425634249 [Eh]
	 Opposite-Spin Energy      =      -0.7904423695597341 [Eh]
	 Correlation Energy        =      -1.0669876121231590 [Eh]
	 Total Energy              =    -257.9134393765834830 [Eh]

	 ================> DF-SCS-MP2 Energies <==================
	-----------------------------------------------------------
	 SCS Same-Spin Scale       =       0.3333333333333333 [-]
	 SCS Opposite-Spin Scale   =       1.2000000000000000 [-]
	 SCS Same-Spin Energy      =      -0.0921817475211416 [Eh]
	 SCS Opposite-Spin Energy  =      -0.9485308434716809 [Eh]
	 SCS Correlation Energy    =      -1.0407125909928225 [Eh]
	 SCS Total Energy          =    -257.8871643554531374 [Eh]
	-----------------------------------------------------------

  Dipole Moment: [D]
     X:    -1.3003      Y:    -2.0100      Z:     0.0001     Total:     2.3939

*** Psi4 exiting successfully. Buy a developer a beer!
