                               Psi4 1.4a3.dev225

  ==> Input File <==

--------------------------------------------------------------------------
#psi4
#
memory 32 gb

molecule  {
0 1
  N       -0.9921260    -0.3000080     0.0000520
  N        0.0017640    -1.1800760     0.0000510
  N       -0.6308990     0.9900470    -0.0000160
  N        0.7028190     0.9633360    -0.0000720
  C        1.0536040    -0.3405910    -0.0000270
  H       -1.9683030    -0.5816970     0.0001040
  H        2.0284355    -0.6717694    -0.0000518
units angstrom
no_reorient  #important for SAPT in psi4, default
symmetry c1  #important for SAPT in psi4, default
}

set PROPERTIES_ORIGIN ["COM"]
properties('MP2/aug-cc-pvtz', properties = ['dipole'])
--------------------------------------------------------------------------

    Molecular point group: c1
  Charge       = 0
  Multiplicity = 1
  Basis Set: AUG-CC-PVTZ
    Blend: AUG-CC-PVTZ
  Basis Set: (AUG-CC-PVTZ AUX)
    Blend: AUG-CC-PVTZ-JKFIT

    Orbital Energies [Eh]
    ---------------------

    Doubly Occupied:

       1A    -15.716869     2A    -15.684592     3A    -15.642350
       4A    -15.622880     5A    -11.308034     6A     -1.498430
       7A     -1.264992     8A     -1.183491     9A     -0.927736
      10A     -0.882930    11A     -0.781977    12A     -0.682219
      13A     -0.659526    14A     -0.578716    15A     -0.510546
      16A     -0.485486    17A     -0.450955    18A     -0.414290

  @DF-RHF Final Energy:  -256.84169109848676

   => Energetics <=

    Nuclear Repulsion Energy =            166.3855194668911111
    One-Electron Energy =                -677.8623853204777561
    Two-Electron Energy =                 254.6351747550999391
    Total Energy =                       -256.8416910984867627
  Basis Set: (AUG-CC-PVTZ AUX)
    Blend: AUG-CC-PVTZ-RI
    Molecular point group: c1

    Geometry (in Angstrom), charge = 0, multiplicity = 1:

       Center              X                  Y                   Z               Mass
    ------------   -----------------  -----------------  -----------------  -----------------
         N           -0.989881749457    -0.318247491227     0.000052876013    14.003074004430
         N            0.004008250543    -1.198315491227     0.000051876013    14.003074004430
         N           -0.628654749457     0.971807508773    -0.000015123987    14.003074004430
         N            0.705063250543     0.945096508773    -0.000071123987    14.003074004430
         C            1.055848250543    -0.358830491227    -0.000026123987    12.000000000000
         H           -1.966058749457    -0.599936491227     0.000104876013     1.007825032230
         H            2.030679750543    -0.690008891227    -0.000050923987     1.007825032230

  Basis Set: AUG-CC-PVTZ
    Blend: AUG-CC-PVTZ
  Basis Set: (AUG-CC-PVTZ AUX)
    Blend: AUG-CC-PVTZ-JKFIT
	 Reference Energy          =    -256.8416910984867627 [Eh]
	 Singles Energy            =      -0.0000000000000000 [Eh]
	 Same-Spin Energy          =      -0.2778057365042339 [Eh]
	 Opposite-Spin Energy      =      -0.7935330569067456 [Eh]
	 Correlation Energy        =      -1.0713387934109795 [Eh]
	 Total Energy              =    -257.9130298918977360 [Eh]

	 ================> DF-SCS-MP2 Energies <==================
	-----------------------------------------------------------
	 SCS Same-Spin Scale       =       0.3333333333333333 [-]
	 SCS Opposite-Spin Scale   =       1.2000000000000000 [-]
	 SCS Same-Spin Energy      =      -0.0926019121680780 [Eh]
	 SCS Opposite-Spin Energy  =      -0.9522396682880947 [Eh]
	 SCS Correlation Energy    =      -1.0448415804561726 [Eh]
	 SCS Total Energy          =    -257.8865326789429560 [Eh]
	-----------------------------------------------------------

  Dipole Moment: [D]
     X:    -1.2522      Y:    -2.0206      Z:     0.0001     Total:     2.3772

*** Psi4 exiting successfully. Buy a developer a beer!
