                               Psi4 1.4a3.dev225

  ==> Input File <==

--------------------------------------------------------------------------
#psi4
#
memory 32 gb

molecule  {
0 1
  N       -0.9921260    -0.3000080     0.0000520
  N        0.0017640    -1.1800760     0.0000510
  N       -0.6255062     1.0093062    -0.0000170
  N        0.7028190     0.9633360    -0.0000720
  C        1.0536040    -0.3405910    -0.0000270
  H       -1.9683030    -0.5816970     0.0001040
  H        2.0757780    -0.6878530    -0.0000530
units angstrom
no_reorient  #important for SAPT in psi4, default
symmetry c1  #important for SAPT in psi4, default
}

set PROPERTIES_ORIGIN ["COM"]
properties('MP2/aug-cc-pvtz', properties = ['dipole'])
--------------------------------------------------------------------------

    Molecular point group: c1
  Charge       = 0
  Multiplicity = 1
  Basis Set: AUG-CC-PVTZ
    Blend: AUG-CC-PVTZ
  Basis Set: (AUG-CC-PVTZ AUX)
    Blend: AUG-CC-PVTZ-JKFIT

    Orbital Energies [Eh]
    ---------------------

    Doubly Occupied:

       1A    -15.714800     2A    -15.686831     3A    -15.645218
       4A    -15.624348     5A    -11.313003     6A     -1.493498
       7A     -1.267930     8A     -1.177240     9A     -0.927183
      10A     -0.874237    11A     -0.779216    12A     -0.679133
      13A     -0.650626    14A     -0.577675    15A     -0.512009
      16A     -0.485087    17A     -0.453524    18A     -0.411592

  @DF-RHF Final Energy:  -256.84039010189298

   => Energetics <=

    Nuclear Repulsion Energy =            165.7795628124857217
    One-Electron Energy =                -676.6936091809297977
    Two-Electron Energy =                 254.0736562665510974
    Total Energy =                       -256.8403901018929787
  Basis Set: (AUG-CC-PVTZ AUX)
    Blend: AUG-CC-PVTZ-RI
    Molecular point group: c1

    Geometry (in Angstrom), charge = 0, multiplicity = 1:

       Center              X                  Y                   Z               Mass
    ------------   -----------------  -----------------  -----------------  -----------------
         N           -0.991641457416    -0.321867168262     0.000053093248    14.003074004430
         N            0.002248542584    -1.201935168262     0.000052093248    14.003074004430
         N           -0.625021657416     0.987447031738    -0.000015906752    14.003074004430
         N            0.703303542584     0.941476831738    -0.000070906752    14.003074004430
         C            1.054088542584    -0.362450168262    -0.000025906752    12.000000000000
         H           -1.967818457416    -0.603556168262     0.000105093248     1.007825032230
         H            2.076262542584    -0.709712168262    -0.000051906752     1.007825032230

  Basis Set: AUG-CC-PVTZ
    Blend: AUG-CC-PVTZ
  Basis Set: (AUG-CC-PVTZ AUX)
    Blend: AUG-CC-PVTZ-JKFIT
	 Reference Energy          =    -256.8403901018929787 [Eh]
	 Singles Energy            =      -0.0000000000000000 [Eh]
	 Same-Spin Energy          =      -0.2783321141403061 [Eh]
	 Opposite-Spin Energy      =      -0.7947805974976516 [Eh]
	 Correlation Energy        =      -1.0731127116379577 [Eh]
	 Total Energy              =    -257.9135028135309540 [Eh]

	 ================> DF-SCS-MP2 Energies <==================
	-----------------------------------------------------------
	 SCS Same-Spin Scale       =       0.3333333333333333 [-]
	 SCS Opposite-Spin Scale   =       1.2000000000000000 [-]
	 SCS Same-Spin Energy      =      -0.0927773713801020 [Eh]
	 SCS Opposite-Spin Energy  =      -0.9537367169971819 [Eh]
	 SCS Correlation Energy    =      -1.0465140883772839 [Eh]
	 SCS Total Energy          =    -257.8869041902702861 [Eh]
	-----------------------------------------------------------

  Dipole Moment: [D]
     X:    -1.2133      Y:    -2.0166      Z:     0.0001     Total:     2.3535

*** Psi4 exiting successfully. Buy a developer a beer!
