                               Psi4 1.3.2 release

  ==> Input File <==

--------------------------------------------------------------------------
#psi4
#
memory 32 gb

molecule  {
0 1
  N       -0.9921260    -0.3000080     0.0000520
  N        0.0017640    -1.1800760     0.0000510
  N       -0.6578628     0.8937508    -0.0000109
  N        0.7028190     0.9633360    -0.0000720
  C        1.0536040    -0.3405910    -0.0000270
  H       -1.9683030    -0.5816970     0.0001040
  H        2.0757780    -0.6878530    -0.0000530
units angstrom
no_reorient  #important for SAPT in psi4, default
symmetry c1  #important for SAPT in psi4, default
}

set PROPERTIES_ORIGIN ["COM"]
properties('MP2/aug-cc-pvtz', properties = ['dipole'])
--------------------------------------------------------------------------

    Molecular point group: c1
  Charge       = 0
  Multiplicity = 1
  Basis Set: AUG-CC-PVTZ
    Blend: AUG-CC-PVTZ
  Basis Set: (AUG-CC-PVTZ AUX)
    Blend: AUG-CC-PVTZ-JKFIT

    Orbital Energies [Eh]
    ---------------------

    Doubly Occupied:

       1A    -15.726748     2A    -15.673941     3A    -15.627330
       4A    -15.616755     5A    -11.314746     6A     -1.531095
       7A     -1.250134     8A     -1.211701     9A     -0.932689
      10A     -0.887079    11A     -0.783304    12A     -0.701778
      13A     -0.649858    14A     -0.573232    15A     -0.502030
      16A     -0.485241    17A     -0.443261    18A     -0.424008

  @DF-RHF Final Energy:  -256.84299245871711

   => Energetics <=

    Nuclear Repulsion Energy =            168.0041775652998126
    One-Electron Energy =                -681.0244731106420204
    Two-Electron Energy =                 256.1773030866250451
    Total Energy =                       -256.8429924587171058
  Basis Set: (AUG-CC-PVTZ AUX)
    Blend: AUG-CC-PVTZ-RI
    Molecular point group: c1

    Geometry (in Angstrom), charge = 0, multiplicity = 1:

       Center              X                  Y                   Z               Mass
    ------------   -----------------  -----------------  -----------------  -----------------
         N           -0.985171299576    -0.298760238695     0.000051873467    14.003074004430
         N            0.008718700424    -1.178828238695     0.000050873467    14.003074004430
         N           -0.650908099576     0.894998561305    -0.000011026533    14.003074004430
         N            0.709773700424     0.964583761305    -0.000072126533    14.003074004430
         C            1.060558700424    -0.339343238695    -0.000027126533    12.000000000000
         H           -1.961348299576    -0.580449238695     0.000103873467     1.007825032230
         H            2.082732700424    -0.686605238695    -0.000053126533     1.007825032230

  Basis Set: AUG-CC-PVTZ
    Blend: AUG-CC-PVTZ
  Basis Set: (AUG-CC-PVTZ AUX)
    Blend: AUG-CC-PVTZ-JKFIT
	 Reference Energy          =    -256.8429924587171058 [Eh]
	 Singles Energy            =      -0.0000000000000000 [Eh]
	 Same-Spin Energy          =      -0.2755108491293127 [Eh]
	 Opposite-Spin Energy      =      -0.7882015488527818 [Eh]
	 Correlation Energy        =      -1.0637123979820946 [Eh]
	 Total Energy              =    -257.9067048566992071 [Eh]

	 ================> DF-SCS-MP2 Energies <==================
	-----------------------------------------------------------
	 SCS Same-Spin Scale       =       0.3333333333333333 [-]
	 SCS Opposite-Spin Scale   =       1.2000000000000000 [-]
	 SCS Same-Spin Energy      =      -0.0918369497097709 [Eh]
	 SCS Opposite-Spin Energy  =      -0.9458418586233381 [Eh]
	 SCS Correlation Energy    =      -1.0376788083331090 [Eh]
	 SCS Total Energy          =    -257.8806712670502179 [Eh]
	-----------------------------------------------------------

  Dipole Moment: [D]
     X:    -1.3694      Y:    -2.0062      Z:     0.0001     Total:     2.4291

*** Psi4 exiting successfully. Buy a developer a beer!
