                               Psi4 1.4a3.dev225

  ==> Input File <==

--------------------------------------------------------------------------
#psi4
#
memory 32 gb

molecule  {
0 1
  N       -0.9921260    -0.3000080     0.0000520
  N        0.0017640    -1.1800760     0.0000510
  N       -0.6308990     0.9900470    -0.0000160
  N        0.7028190     0.9633360    -0.0000720
  C        1.0587997    -0.3599043    -0.0000263
  H       -1.9683030    -0.5816970     0.0001040
  H        2.0757780    -0.6878530    -0.0000530
units angstrom
no_reorient  #important for SAPT in psi4, default
symmetry c1  #important for SAPT in psi4, default
}

set PROPERTIES_ORIGIN ["COM"]
properties('MP2/aug-cc-pvtz', properties = ['dipole'])
--------------------------------------------------------------------------

    Molecular point group: c1
  Charge       = 0
  Multiplicity = 1
  Basis Set: AUG-CC-PVTZ
    Blend: AUG-CC-PVTZ
  Basis Set: (AUG-CC-PVTZ AUX)
    Blend: AUG-CC-PVTZ-JKFIT

    Orbital Energies [Eh]
    ---------------------

    Doubly Occupied:

       1A    -15.714944     2A    -15.685640     3A    -15.642447
       4A    -15.624276     5A    -11.313770     6A     -1.496873
       7A     -1.263379     8A     -1.181744     9A     -0.923631
      10A     -0.879015    11A     -0.779464    12A     -0.681298
      13A     -0.655696    14A     -0.575715    15A     -0.511180
      16A     -0.483345    17A     -0.448865    18A     -0.415194

  @DF-RHF Final Energy:  -256.84233063350189

   => Energetics <=

    Nuclear Repulsion Energy =            165.9127135341340704
    One-Electron Energy =                -676.9571401934149435
    Two-Electron Energy =                 254.2020960257789852
    Total Energy =                       -256.8423306335018879
  Basis Set: (AUG-CC-PVTZ AUX)
    Blend: AUG-CC-PVTZ-RI
    Molecular point group: c1

    Geometry (in Angstrom), charge = 0, multiplicity = 1:

       Center              X                  Y                   Z               Mass
    ------------   -----------------  -----------------  -----------------  -----------------
         N           -0.991453427091    -0.314706489834     0.000052773331    14.003074004430
         N            0.002436572909    -1.194774489834     0.000051773331    14.003074004430
         N           -0.630226427091     0.975348510166    -0.000015226669    14.003074004430
         N            0.703491572909     0.948637510166    -0.000071226669    14.003074004430
         C            1.059472272909    -0.374602789834    -0.000025526669    12.000000000000
         H           -1.967630427091    -0.596395489834     0.000104773331     1.007825032230
         H            2.076450572909    -0.702551489834    -0.000052226669     1.007825032230

  Basis Set: AUG-CC-PVTZ
    Blend: AUG-CC-PVTZ
  Basis Set: (AUG-CC-PVTZ AUX)
    Blend: AUG-CC-PVTZ-JKFIT
	 Reference Energy          =    -256.8423306335018879 [Eh]
	 Singles Energy            =      -0.0000000000000000 [Eh]
	 Same-Spin Energy          =      -0.2777172003440584 [Eh]
	 Opposite-Spin Energy      =      -0.7936424316401425 [Eh]
	 Correlation Energy        =      -1.0713596319842009 [Eh]
	 Total Energy              =    -257.9136902654860819 [Eh]

	 ================> DF-SCS-MP2 Energies <==================
	-----------------------------------------------------------
	 SCS Same-Spin Scale       =       0.3333333333333333 [-]
	 SCS Opposite-Spin Scale   =       1.2000000000000000 [-]
	 SCS Same-Spin Energy      =      -0.0925724001146861 [Eh]
	 SCS Opposite-Spin Energy  =      -0.9523709179681710 [Eh]
	 SCS Correlation Energy    =      -1.0449433180828571 [Eh]
	 SCS Total Energy          =    -257.8872739515847456 [Eh]
	-----------------------------------------------------------

  Dipole Moment: [D]
     X:    -1.2208      Y:    -2.0416      Z:     0.0001     Total:     2.3788

*** Psi4 exiting successfully. Buy a developer a beer!
