                               Psi4 1.3.2 release

  ==> Input File <==

--------------------------------------------------------------------------
#psi4
#
memory 32 gb

molecule  {
0 1
  N       -0.9921260    -0.3000080     0.0000520
  N        0.0017640    -1.1800760     0.0000510
  N       -0.6291543     1.0365768    -0.0000182
  N        0.7028190     0.9633360    -0.0000720
  C        1.0536040    -0.3405910    -0.0000270
  H       -1.9683030    -0.5816970     0.0001040
  H        2.0757780    -0.6878530    -0.0000530
units angstrom
no_reorient  #important for SAPT in psi4, default
symmetry c1  #important for SAPT in psi4, default
}

set PROPERTIES_ORIGIN ["COM"]
properties('MP2/aug-cc-pvtz', properties = ['dipole'])
--------------------------------------------------------------------------

    Molecular point group: c1
  Charge       = 0
  Multiplicity = 1
  Basis Set: AUG-CC-PVTZ
    Blend: AUG-CC-PVTZ
  Basis Set: (AUG-CC-PVTZ AUX)
    Blend: AUG-CC-PVTZ-JKFIT

    Orbital Energies [Eh]
    ---------------------

    Doubly Occupied:

       1A    -15.713452     2A    -15.690646     3A    -15.648826
       4A    -15.626322     5A    -11.313159     6A     -1.485703
       7A     -1.267974     8A     -1.171872     9A     -0.927592
      10A     -0.869662    11A     -0.776659    12A     -0.674511
      13A     -0.650977    14A     -0.577839    15A     -0.514218
      16A     -0.484745    17A     -0.454554    18A     -0.409011

  @DF-RHF Final Energy:  -256.83515609419243

   => Energetics <=

    Nuclear Repulsion Energy =            165.1082092714244425
    One-Electron Energy =                -675.3712857025958556
    Two-Electron Energy =                 253.4279203369789570
    Total Energy =                       -256.8351560941924276
  Basis Set: (AUG-CC-PVTZ AUX)
    Blend: AUG-CC-PVTZ-RI
    Molecular point group: c1

    Geometry (in Angstrom), charge = 0, multiplicity = 1:

       Center              X                  Y                   Z               Mass
    ------------   -----------------  -----------------  -----------------  -----------------
         N           -0.990911968446    -0.327320308776     0.000053333205    14.003074004430
         N            0.002978031554    -1.207388308776     0.000052333205    14.003074004430
         N           -0.627940268446     1.009264491224    -0.000016866795    14.003074004430
         N            0.704033031554     0.936023691224    -0.000070666795    14.003074004430
         C            1.054818031554    -0.367903308776    -0.000025666795    12.000000000000
         H           -1.967088968446    -0.609009308776     0.000105333205     1.007825032230
         H            2.076992031554    -0.715165308776    -0.000051666795     1.007825032230

  Basis Set: AUG-CC-PVTZ
    Blend: AUG-CC-PVTZ
  Basis Set: (AUG-CC-PVTZ AUX)
    Blend: AUG-CC-PVTZ-JKFIT
	 Reference Energy          =    -256.8351560941924276 [Eh]
	 Singles Energy            =      -0.0000000000000000 [Eh]
	 Same-Spin Energy          =      -0.2792617435950968 [Eh]
	 Opposite-Spin Energy      =      -0.7970385096429500 [Eh]
	 Correlation Energy        =      -1.0763002532380468 [Eh]
	 Total Energy              =    -257.9114563474304873 [Eh]

	 ================> DF-SCS-MP2 Energies <==================
	-----------------------------------------------------------
	 SCS Same-Spin Scale       =       0.3333333333333333 [-]
	 SCS Opposite-Spin Scale   =       1.2000000000000000 [-]
	 SCS Same-Spin Energy      =      -0.0930872478650323 [Eh]
	 SCS Opposite-Spin Energy  =      -0.9564462115715400 [Eh]
	 SCS Correlation Energy    =      -1.0495334594365722 [Eh]
	 SCS Total Energy          =    -257.8846895536290162 [Eh]
	-----------------------------------------------------------

  Dipole Moment: [D]
     X:    -1.1820      Y:    -2.0204      Z:     0.0001     Total:     2.3408

*** Psi4 exiting successfully. Buy a developer a beer!
