                               Psi4 1.4a3.dev225

  ==> Input File <==

--------------------------------------------------------------------------
#psi4
#
memory 32 gb

molecule  {
0 1
  N       -0.9921260    -0.3000080     0.0000520
  N        0.0017640    -1.1800760     0.0000510
  N       -0.6308990     0.9900470    -0.0000160
  N        0.7028190     0.9633360    -0.0000720
  C        1.0536040    -0.3405910    -0.0000270
  H       -1.9683030    -0.5816970     0.0001040
  H        2.1231205    -0.7039366    -0.0000542
units angstrom
no_reorient  #important for SAPT in psi4, default
symmetry c1  #important for SAPT in psi4, default
}

set PROPERTIES_ORIGIN ["COM"]
properties('MP2/aug-cc-pvtz', properties = ['dipole'])
--------------------------------------------------------------------------

    Molecular point group: c1
  Charge       = 0
  Multiplicity = 1
  Basis Set: AUG-CC-PVTZ
    Blend: AUG-CC-PVTZ
  Basis Set: (AUG-CC-PVTZ AUX)
    Blend: AUG-CC-PVTZ-JKFIT

    Orbital Energies [Eh]
    ---------------------

    Doubly Occupied:

       1A    -15.717107     2A    -15.685003     3A    -15.642591
       4A    -15.623261     5A    -11.318329     6A     -1.498820
       7A     -1.265367     8A     -1.181998     9A     -0.927162
      10A     -0.872138    11A     -0.778398    12A     -0.682518
      13A     -0.641693    14A     -0.574068    15A     -0.510700
      16A     -0.485785    17A     -0.451220    18A     -0.414313

  @DF-RHF Final Energy:  -256.84007415984297

   => Energetics <=

    Nuclear Repulsion Energy =            165.8982889503396621
    One-Electron Energy =                -676.9357886150282866
    Two-Electron Energy =                 254.1974255048456541
    Total Energy =                       -256.8400741598429704
  Basis Set: (AUG-CC-PVTZ AUX)
    Blend: AUG-CC-PVTZ-RI
    Molecular point group: c1

    Geometry (in Angstrom), charge = 0, multiplicity = 1:

       Center              X                  Y                   Z               Mass
    ------------   -----------------  -----------------  -----------------  -----------------
         N           -0.991244432764    -0.317784548771     0.000052910554    14.003074004430
         N            0.002645567236    -1.197852548771     0.000051910554    14.003074004430
         N           -0.630017432764     0.972270451229    -0.000015089446    14.003074004430
         N            0.703700567236     0.945559451229    -0.000071089446    14.003074004430
         C            1.054485567236    -0.358367548771    -0.000026089446    12.000000000000
         H           -1.967421432764    -0.599473548771     0.000104910554     1.007825032230
         H            2.124002067236    -0.721713148771    -0.000053289446     1.007825032230

  Basis Set: AUG-CC-PVTZ
    Blend: AUG-CC-PVTZ
  Basis Set: (AUG-CC-PVTZ AUX)
    Blend: AUG-CC-PVTZ-JKFIT
	 Reference Energy          =    -256.8400741598429704 [Eh]
	 Singles Energy            =      -0.0000000000000000 [Eh]
	 Same-Spin Energy          =      -0.2779951530318271 [Eh]
	 Opposite-Spin Energy      =      -0.7939726026503242 [Eh]
	 Correlation Energy        =      -1.0719677556821514 [Eh]
	 Total Energy              =    -257.9120419155250943 [Eh]

	 ================> DF-SCS-MP2 Energies <==================
	-----------------------------------------------------------
	 SCS Same-Spin Scale       =       0.3333333333333333 [-]
	 SCS Opposite-Spin Scale   =       1.2000000000000000 [-]
	 SCS Same-Spin Energy      =      -0.0926650510106090 [Eh]
	 SCS Opposite-Spin Energy  =      -0.9527671231803890 [Eh]
	 SCS Correlation Energy    =      -1.0454321741909980 [Eh]
	 SCS Total Energy          =    -257.8855063340339484 [Eh]
	-----------------------------------------------------------

  Dipole Moment: [D]
     X:    -1.2239      Y:    -2.0280      Z:     0.0001     Total:     2.3687

*** Psi4 exiting successfully. Buy a developer a beer!
