                               Psi4 1.3.2 release

  ==> Input File <==

--------------------------------------------------------------------------
#psi4
#
memory 32 gb

molecule  {
0 1
  N       -0.9921260    -0.3000080     0.0000520
  N        0.0017640    -1.1800760     0.0000510
  N       -0.6308990     0.9900470    -0.0000160
  N        0.7028190     0.9633360    -0.0000720
  C        1.2099217    -0.2158321    -0.0000386
  H       -1.9683030    -0.5816970     0.0001040
  H        2.0757780    -0.6878530    -0.0000530
units angstrom
no_reorient  #important for SAPT in psi4, default
symmetry c1  #important for SAPT in psi4, default
}

set PROPERTIES_ORIGIN ["COM"]
properties('MP2/aug-cc-pvtz', properties = ['dipole'])
--------------------------------------------------------------------------

    Molecular point group: c1
  Charge       = 0
  Multiplicity = 1
  Basis Set: AUG-CC-PVTZ
    Blend: AUG-CC-PVTZ
  Basis Set: (AUG-CC-PVTZ AUX)
    Blend: AUG-CC-PVTZ-JKFIT

    Orbital Energies [Eh]
    ---------------------

    Doubly Occupied:

       1A    -15.733935     2A    -15.668443     3A    -15.649641
       4A    -15.622046     5A    -11.321617     6A     -1.484475
       7A     -1.264800     8A     -1.163989     9A     -0.938439
      10A     -0.880885    11A     -0.783750    12A     -0.671819
      13A     -0.661406    14A     -0.592406    15A     -0.493835
      16A     -0.466888    17A     -0.459988    18A     -0.384667

  @DF-RHF Final Energy:  -256.79262248010161

   => Energetics <=

    Nuclear Repulsion Energy =            164.0457019804520655
    One-Electron Energy =                -673.1905893264062115
    Two-Electron Energy =                 252.3522648658525327
    Total Energy =                       -256.7926224801016133
  Basis Set: (AUG-CC-PVTZ AUX)
    Blend: AUG-CC-PVTZ-RI
    Molecular point group: c1

    Geometry (in Angstrom), charge = 0, multiplicity = 1:

       Center              X                  Y                   Z               Mass
    ------------   -----------------  -----------------  -----------------  -----------------
         N           -1.017349717093    -0.339394724984     0.000054881061    14.003074004430
         N           -0.023459717093    -1.219462724984     0.000053881061    14.003074004430
         N           -0.656122717093     0.950660275016    -0.000013118939    14.003074004430
         N            0.677595282907     0.923949275016    -0.000069118939    14.003074004430
         C            1.184697982907    -0.255218824984    -0.000035718939    12.000000000000
         H           -1.993526717093    -0.621083724984     0.000106881061     1.007825032230
         H            2.050554282907    -0.727239724984    -0.000050118939     1.007825032230

  Basis Set: AUG-CC-PVTZ
    Blend: AUG-CC-PVTZ
  Basis Set: (AUG-CC-PVTZ AUX)
    Blend: AUG-CC-PVTZ-JKFIT
	 Reference Energy          =    -256.7926224801016133 [Eh]
	 Singles Energy            =      -0.0000000000000000 [Eh]
	 Same-Spin Energy          =      -0.2818059461622200 [Eh]
	 Opposite-Spin Energy      =      -0.8022083489842736 [Eh]
	 Correlation Energy        =      -1.0840142951464937 [Eh]
	 Total Energy              =    -257.8766367752481301 [Eh]

	 ================> DF-SCS-MP2 Energies <==================
	-----------------------------------------------------------
	 SCS Same-Spin Scale       =       0.3333333333333333 [-]
	 SCS Opposite-Spin Scale   =       1.2000000000000000 [-]
	 SCS Same-Spin Energy      =      -0.0939353153874067 [Eh]
	 SCS Opposite-Spin Energy  =      -0.9626500187811283 [Eh]
	 SCS Correlation Energy    =      -1.0565853341685350 [Eh]
	 SCS Total Energy          =    -257.8492078142701303 [Eh]
	-----------------------------------------------------------

  Dipole Moment: [D]
     X:    -1.0110      Y:    -1.8215      Z:     0.0001     Total:     2.0832

*** Psi4 exiting successfully. Buy a developer a beer!
