                               Psi4 1.3.2 release

  ==> Input File <==

--------------------------------------------------------------------------
#psi4
#
memory 32 gb

molecule  {
0 1
  N       -0.9921260    -0.3000080     0.0000520
  N        0.0017640    -1.1800760     0.0000510
  N       -0.6308990     0.9900470    -0.0000160
  N        0.7028190     0.9633360    -0.0000720
  C        1.0536040    -0.3405910    -0.0000270
  H       -1.9683030    -0.5816970     0.0001040
  H        2.2651482    -0.7521875    -0.0000578
units angstrom
no_reorient  #important for SAPT in psi4, default
symmetry c1  #important for SAPT in psi4, default
}

set PROPERTIES_ORIGIN ["COM"]
properties('MP2/aug-cc-pvtz', properties = ['dipole'])
--------------------------------------------------------------------------

    Molecular point group: c1
  Charge       = 0
  Multiplicity = 1
  Basis Set: AUG-CC-PVTZ
    Blend: AUG-CC-PVTZ
  Basis Set: (AUG-CC-PVTZ AUX)
    Blend: AUG-CC-PVTZ-JKFIT

    Orbital Energies [Eh]
    ---------------------

    Doubly Occupied:

       1A    -15.717760     2A    -15.685871     3A    -15.643413
       4A    -15.624228     5A    -11.331993     6A     -1.499673
       7A     -1.266194     8A     -1.180982     9A     -0.927286
      10A     -0.862237    11A     -0.774553    12A     -0.683241
      13A     -0.620006    14A     -0.560705    15A     -0.511055
      16A     -0.486499    17A     -0.451850    18A     -0.414745

  @DF-RHF Final Energy:  -256.81923311406922

   => Energetics <=

    Nuclear Repulsion Energy =            165.2714774592901961
    One-Electron Energy =                -675.6968383218680856
    Two-Electron Energy =                 253.6061277485086976
    Total Energy =                       -256.8192331140692204
  Basis Set: (AUG-CC-PVTZ AUX)
    Blend: AUG-CC-PVTZ-RI
    Molecular point group: c1

    Geometry (in Angstrom), charge = 0, multiplicity = 1:

       Center              X                  Y                   Z               Mass
    ------------   -----------------  -----------------  -----------------  -----------------
         N           -0.993288460604    -0.317090133647     0.000052962364    14.003074004430
         N            0.000601539396    -1.197158133647     0.000051962364    14.003074004430
         N           -0.632061460604     0.972964866353    -0.000015037636    14.003074004430
         N            0.701656539396     0.946253866353    -0.000071037636    14.003074004430
         C            1.052441539396    -0.357673133647    -0.000026037636    12.000000000000
         H           -1.969465460604    -0.598779133647     0.000104962364     1.007825032230
         H            2.263985739396    -0.769269633647    -0.000056837636     1.007825032230

  Basis Set: AUG-CC-PVTZ
    Blend: AUG-CC-PVTZ
  Basis Set: (AUG-CC-PVTZ AUX)
    Blend: AUG-CC-PVTZ-JKFIT
	 Reference Energy          =    -256.8192331140692204 [Eh]
	 Singles Energy            =      -0.0000000000000000 [Eh]
	 Same-Spin Energy          =      -0.2784080593508333 [Eh]
	 Opposite-Spin Energy      =      -0.7954365231677047 [Eh]
	 Correlation Energy        =      -1.0738445825185381 [Eh]
	 Total Energy              =    -257.8930776965877385 [Eh]

	 ================> DF-SCS-MP2 Energies <==================
	-----------------------------------------------------------
	 SCS Same-Spin Scale       =       0.3333333333333333 [-]
	 SCS Opposite-Spin Scale   =       1.2000000000000000 [-]
	 SCS Same-Spin Energy      =      -0.0928026864502778 [Eh]
	 SCS Opposite-Spin Energy  =      -0.9545238278012457 [Eh]
	 SCS Correlation Energy    =      -1.0473265142515236 [Eh]
	 SCS Total Energy          =    -257.8665596283207719 [Eh]
	-----------------------------------------------------------

  Dipole Moment: [D]
     X:    -1.1941      Y:    -2.0343      Z:     0.0001     Total:     2.3589

*** Psi4 exiting successfully. Buy a developer a beer!
