                               Psi4 1.3.2 release

  ==> Input File <==

--------------------------------------------------------------------------
#psi4
#
memory 32 gb

molecule  {
0 1
  N       -0.9695564    -0.3061158     0.0000513
  N        0.0017640    -1.1800760     0.0000510
  N       -0.6308990     0.9900470    -0.0000160
  N        0.7028190     0.9633360    -0.0000720
  C        1.0536040    -0.3405910    -0.0000270
  H       -1.9683030    -0.5816970     0.0001040
  H        2.0757780    -0.6878530    -0.0000530
units angstrom
no_reorient  #important for SAPT in psi4, default
symmetry c1  #important for SAPT in psi4, default
}

set PROPERTIES_ORIGIN ["COM"]
properties('MP2/aug-cc-pvtz', properties = ['dipole'])
--------------------------------------------------------------------------

    Molecular point group: c1
  Charge       = 0
  Multiplicity = 1
  Basis Set: AUG-CC-PVTZ
    Blend: AUG-CC-PVTZ
  Basis Set: (AUG-CC-PVTZ AUX)
    Blend: AUG-CC-PVTZ-JKFIT

    Orbital Energies [Eh]
    ---------------------

    Doubly Occupied:

       1A    -15.719230     2A    -15.682394     3A    -15.642762
       4A    -15.622495     5A    -11.311679     6A     -1.505023
       7A     -1.271262     8A     -1.180096     9A     -0.921901
      10A     -0.880215    11A     -0.779320    12A     -0.686508
      13A     -0.648575    14A     -0.574574    15A     -0.513606
      16A     -0.485790    17A     -0.453347    18A     -0.411785

  @DF-RHF Final Energy:  -256.84183486245956

   => Energetics <=

    Nuclear Repulsion Energy =            166.5905059360005680
    One-Electron Energy =                -678.2835564507726076
    Two-Electron Energy =                 254.8512156523124759
    Total Energy =                       -256.8418348624595637
  Basis Set: (AUG-CC-PVTZ AUX)
    Blend: AUG-CC-PVTZ-RI
    Molecular point group: c1

    Geometry (in Angstrom), charge = 0, multiplicity = 1:

       Center              X                  Y                   Z               Mass
    ------------   -----------------  -----------------  -----------------  -----------------
         N           -0.972506600472    -0.322902479375     0.000052333258    14.003074004430
         N           -0.001186200472    -1.196862679375     0.000052033258    14.003074004430
         N           -0.633849200472     0.973260320625    -0.000014966742    14.003074004430
         N            0.699868799528     0.946549320625    -0.000070966742    14.003074004430
         C            1.050653799528    -0.357377679375    -0.000025966742    12.000000000000
         H           -1.971253200472    -0.598483679375     0.000105033258     1.007825032230
         H            2.072827799528    -0.704639679375    -0.000051966742     1.007825032230

  Basis Set: AUG-CC-PVTZ
    Blend: AUG-CC-PVTZ
  Basis Set: (AUG-CC-PVTZ AUX)
    Blend: AUG-CC-PVTZ-JKFIT
	 Reference Energy          =    -256.8418348624595637 [Eh]
	 Singles Energy            =      -0.0000000000000000 [Eh]
	 Same-Spin Energy          =      -0.2781073295000542 [Eh]
	 Opposite-Spin Energy      =      -0.7935633220501044 [Eh]
	 Correlation Energy        =      -1.0716706515501586 [Eh]
	 Total Energy              =    -257.9135055140097279 [Eh]

	 ================> DF-SCS-MP2 Energies <==================
	-----------------------------------------------------------
	 SCS Same-Spin Scale       =       0.3333333333333333 [-]
	 SCS Opposite-Spin Scale   =       1.2000000000000000 [-]
	 SCS Same-Spin Energy      =      -0.0927024431666847 [Eh]
	 SCS Opposite-Spin Energy  =      -0.9522759864601252 [Eh]
	 SCS Correlation Energy    =      -1.0449784296268099 [Eh]
	 SCS Total Energy          =    -257.8868132920864014 [Eh]
	-----------------------------------------------------------

  Dipole Moment: [D]
     X:    -1.2636      Y:    -2.0496      Z:     0.0001     Total:     2.4079

*** Psi4 exiting successfully. Buy a developer a beer!
