                               Psi4 1.4a3.dev225

  ==> Input File <==

--------------------------------------------------------------------------
#psi4
#
memory 32 gb

molecule  {
0 1
  N       -0.9921260    -0.3000080     0.0000520
  N        0.0017640    -1.1800760     0.0000510
  N       -0.6308990     0.9900470    -0.0000160
  N        0.7028190     0.9633360    -0.0000720
  C        1.0536040    -0.3405910    -0.0000270
  H       -1.9683030    -0.5816970     0.0001040
  H        2.0947150    -0.6942865    -0.0000535
units angstrom
no_reorient  #important for SAPT in psi4, default
symmetry c1  #important for SAPT in psi4, default
}

set PROPERTIES_ORIGIN ["COM"]
properties('MP2/aug-cc-pvtz', properties = ['dipole'])
--------------------------------------------------------------------------

    Molecular point group: c1
  Charge       = 0
  Multiplicity = 1
  Basis Set: AUG-CC-PVTZ
    Blend: AUG-CC-PVTZ
  Basis Set: (AUG-CC-PVTZ AUX)
    Blend: AUG-CC-PVTZ-JKFIT

    Orbital Energies [Eh]
    ---------------------

    Doubly Occupied:

       1A    -15.717018     2A    -15.684865     3A    -15.642490
       4A    -15.623122     5A    -11.315325     6A     -1.498687
       7A     -1.265239     8A     -1.182364     9A     -0.927254
      10A     -0.874963    11A     -0.779390    12A     -0.682412
      13A     -0.646936    14A     -0.575725    15A     -0.510644
      16A     -0.485679    17A     -0.451127    18A     -0.414282

  @DF-RHF Final Energy:  -256.84195952854964

   => Energetics <=

    Nuclear Repulsion Energy =            166.0378393547421467
    One-Electron Energy =                -677.2045563562643338
    Two-Electron Energy =                 254.3247574729725500
    Total Energy =                       -256.8419595285496371
  Basis Set: (AUG-CC-PVTZ AUX)
    Blend: AUG-CC-PVTZ-RI
    Molecular point group: c1

    Geometry (in Angstrom), charge = 0, multiplicity = 1:

       Center              X                  Y                   Z               Mass
    ------------   -----------------  -----------------  -----------------  -----------------
         N           -0.990835627772    -0.317923430644     0.000052900479    14.003074004430
         N            0.003054372228    -1.197991430644     0.000051900479    14.003074004430
         N           -0.629608627772     0.972131569356    -0.000015099521    14.003074004430
         N            0.704109372228     0.945420569356    -0.000071099521    14.003074004430
         C            1.054894372228    -0.358506430644    -0.000026099521    12.000000000000
         H           -1.967012627772    -0.599612430644     0.000104900479     1.007825032230
         H            2.096005372228    -0.712201930644    -0.000052599521     1.007825032230

  Basis Set: AUG-CC-PVTZ
    Blend: AUG-CC-PVTZ
  Basis Set: (AUG-CC-PVTZ AUX)
    Blend: AUG-CC-PVTZ-JKFIT
	 Reference Energy          =    -256.8419595285496371 [Eh]
	 Singles Energy            =      -0.0000000000000000 [Eh]
	 Same-Spin Energy          =      -0.2779291720979440 [Eh]
	 Opposite-Spin Energy      =      -0.7937924763995996 [Eh]
	 Correlation Energy        =      -1.0717216484975436 [Eh]
	 Total Energy              =    -257.9136811770471809 [Eh]

	 ================> DF-SCS-MP2 Energies <==================
	-----------------------------------------------------------
	 SCS Same-Spin Scale       =       0.3333333333333333 [-]
	 SCS Opposite-Spin Scale   =       1.2000000000000000 [-]
	 SCS Same-Spin Energy      =      -0.0926430573659813 [Eh]
	 SCS Opposite-Spin Energy  =      -0.9525509716795195 [Eh]
	 SCS Correlation Energy    =      -1.0451940290455008 [Eh]
	 SCS Total Energy          =    -257.8871535575951270 [Eh]
	-----------------------------------------------------------

  Dipole Moment: [D]
     X:    -1.2317      Y:    -2.0261      Z:     0.0001     Total:     2.3711

*** Psi4 exiting successfully. Buy a developer a beer!
