                               Psi4 1.3.2 release

  ==> Input File <==

--------------------------------------------------------------------------
#psi4
#
memory 32 gb

molecule  {
0 1
  N       -0.9921260    -0.3000080     0.0000520
  N        0.0017640    -1.1800760     0.0000510
  N       -0.6039352     1.0863432    -0.0000211
  N        0.7028190     0.9633360    -0.0000720
  C        1.0536040    -0.3405910    -0.0000270
  H       -1.9683030    -0.5816970     0.0001040
  H        2.0757780    -0.6878530    -0.0000530
units angstrom
no_reorient  #important for SAPT in psi4, default
symmetry c1  #important for SAPT in psi4, default
}

set PROPERTIES_ORIGIN ["COM"]
properties('MP2/aug-cc-pvtz', properties = ['dipole'])
--------------------------------------------------------------------------

    Molecular point group: c1
  Charge       = 0
  Multiplicity = 1
  Basis Set: AUG-CC-PVTZ
    Blend: AUG-CC-PVTZ
  Basis Set: (AUG-CC-PVTZ AUX)
    Blend: AUG-CC-PVTZ-JKFIT

    Orbital Energies [Eh]
    ---------------------

    Doubly Occupied:

       1A    -15.705726     2A    -15.694883     3A    -15.655507
       4A    -15.629703     5A    -11.311967     6A     -1.476525
       7A     -1.278076     8A     -1.157689     9A     -0.928800
      10A     -0.861282    11A     -0.775046    12A     -0.667969
      13A     -0.651134    14A     -0.582416    15A     -0.516381
      16A     -0.481244    17A     -0.463479    18A     -0.401047

  @DF-RHF Final Energy:  -256.82674575574623

   => Energetics <=

    Nuclear Repulsion Energy =            164.4109774234397889
    One-Electron Energy =                -673.9976980113086711
    Two-Electron Energy =                 252.7599748321226230
    Total Energy =                       -256.8267457557462308
  Basis Set: (AUG-CC-PVTZ AUX)
    Blend: AUG-CC-PVTZ-RI
    Molecular point group: c1

    Geometry (in Angstrom), charge = 0, multiplicity = 1:

       Center              X                  Y                   Z               Mass
    ------------   -----------------  -----------------  -----------------  -----------------
         N           -0.995954882645    -0.337271801304     0.000053913100    14.003074004430
         N           -0.002064882645    -1.217339801304     0.000052913100    14.003074004430
         N           -0.607764082645     1.049079398696    -0.000019186900    14.003074004430
         N            0.698990117355     0.926072198696    -0.000070086900    14.003074004430
         C            1.049775117355    -0.377854801304    -0.000025086900    12.000000000000
         H           -1.972131882645    -0.618960801304     0.000105913100     1.007825032230
         H            2.071949117355    -0.725116801304    -0.000051086900     1.007825032230

  Basis Set: AUG-CC-PVTZ
    Blend: AUG-CC-PVTZ
  Basis Set: (AUG-CC-PVTZ AUX)
    Blend: AUG-CC-PVTZ-JKFIT
	 Reference Energy          =    -256.8267457557462308 [Eh]
	 Singles Energy            =      -0.0000000000000000 [Eh]
	 Same-Spin Energy          =      -0.2800810930409663 [Eh]
	 Opposite-Spin Energy      =      -0.7991643963220120 [Eh]
	 Correlation Energy        =      -1.0792454893629784 [Eh]
	 Total Energy              =    -257.9059912451091918 [Eh]

	 ================> DF-SCS-MP2 Energies <==================
	-----------------------------------------------------------
	 SCS Same-Spin Scale       =       0.3333333333333333 [-]
	 SCS Opposite-Spin Scale   =       1.2000000000000000 [-]
	 SCS Same-Spin Energy      =      -0.0933603643469888 [Eh]
	 SCS Opposite-Spin Energy  =      -0.9589972755864143 [Eh]
	 SCS Correlation Energy    =      -1.0523576399334031 [Eh]
	 SCS Total Energy          =    -257.8791033956796355 [Eh]
	-----------------------------------------------------------

  Dipole Moment: [D]
     X:    -1.1196      Y:    -1.9546      Z:     0.0001     Total:     2.2525

*** Psi4 exiting successfully. Buy a developer a beer!
