                               Psi4 1.3.2 release

  ==> Input File <==

--------------------------------------------------------------------------
#psi4
#
memory 32 gb

molecule  {
0 1
  N       -0.9921260    -0.3000080     0.0000520
  N        0.0017640    -1.1800760     0.0000510
  N       -0.6308990     0.9900470    -0.0000160
  N        0.7028190     0.9633360    -0.0000720
  C        1.0536040    -0.3405910    -0.0000270
  H       -1.8722232    -0.5539719     0.0000989
  H        2.0757780    -0.6878530    -0.0000530
units angstrom
no_reorient  #important for SAPT in psi4, default
symmetry c1  #important for SAPT in psi4, default
}

set PROPERTIES_ORIGIN ["COM"]
properties('MP2/aug-cc-pvtz', properties = ['dipole'])
--------------------------------------------------------------------------

    Molecular point group: c1
  Charge       = 0
  Multiplicity = 1
  Basis Set: AUG-CC-PVTZ
    Blend: AUG-CC-PVTZ
  Basis Set: (AUG-CC-PVTZ AUX)
    Blend: AUG-CC-PVTZ-JKFIT

    Orbital Energies [Eh]
    ---------------------

    Doubly Occupied:

       1A    -15.708706     2A    -15.686650     3A    -15.643838
       4A    -15.624719     5A    -11.314687     6A     -1.502982
       7A     -1.270525     8A     -1.192336     9A     -0.951018
      10A     -0.879154    11A     -0.790413    12A     -0.684630
      13A     -0.657529    14A     -0.579800    15A     -0.512060
      16A     -0.487286    17A     -0.453207    18A     -0.416137

  @DF-RHF Final Energy:  -256.83649012882108

   => Energetics <=

    Nuclear Repulsion Energy =            166.7595061094470736
    One-Electron Energy =                -678.4806331248410061
    Two-Electron Energy =                 254.8846368865727925
    Total Energy =                       -256.8364901288210831
  Basis Set: (AUG-CC-PVTZ AUX)
    Blend: AUG-CC-PVTZ-RI
    Molecular point group: c1

    Geometry (in Angstrom), charge = 0, multiplicity = 1:

       Center              X                  Y                   Z               Mass
    ------------   -----------------  -----------------  -----------------  -----------------
         N           -0.991945848038    -0.318415032841     0.000052966682    14.003074004430
         N            0.001944151962    -1.198483032841     0.000051966682    14.003074004430
         N           -0.630718848038     0.971639967159    -0.000015033318    14.003074004430
         N            0.702999151962     0.944928967159    -0.000071033318    14.003074004430
         C            1.053784151962    -0.358998032841    -0.000026033318    12.000000000000
         H           -1.872043048038    -0.572378932841     0.000099866682     1.007825032230
         H            2.075958151962    -0.706260032841    -0.000052033318     1.007825032230

  Basis Set: AUG-CC-PVTZ
    Blend: AUG-CC-PVTZ
  Basis Set: (AUG-CC-PVTZ AUX)
    Blend: AUG-CC-PVTZ-JKFIT
	 Reference Energy          =    -256.8364901288210831 [Eh]
	 Singles Energy            =      -0.0000000000000000 [Eh]
	 Same-Spin Energy          =      -0.2770536806779405 [Eh]
	 Opposite-Spin Energy      =      -0.7922171227311556 [Eh]
	 Correlation Energy        =      -1.0692708034090961 [Eh]
	 Total Energy              =    -257.9057609322301801 [Eh]

	 ================> DF-SCS-MP2 Energies <==================
	-----------------------------------------------------------
	 SCS Same-Spin Scale       =       0.3333333333333333 [-]
	 SCS Opposite-Spin Scale   =       1.2000000000000000 [-]
	 SCS Same-Spin Energy      =      -0.0923512268926468 [Eh]
	 SCS Opposite-Spin Energy  =      -0.9506605472773867 [Eh]
	 SCS Correlation Energy    =      -1.0430117741700335 [Eh]
	 SCS Total Energy          =    -257.8795019029911373 [Eh]
	-----------------------------------------------------------

  Dipole Moment: [D]
     X:    -1.0771      Y:    -1.9763      Z:     0.0001     Total:     2.2507

*** Psi4 exiting successfully. Buy a developer a beer!
