                               Psi4 1.4a3.dev225

  ==> Input File <==

--------------------------------------------------------------------------
#psi4
#
memory 32 gb

molecule  {
0 1
  N       -0.9921260    -0.3000080     0.0000520
  N       -0.0356698    -1.1469292     0.0000510
  N       -0.6308990     0.9900470    -0.0000160
  N        0.7028190     0.9633360    -0.0000720
  C        1.0536040    -0.3405910    -0.0000270
  H       -1.9683030    -0.5816970     0.0001040
  H        2.0757780    -0.6878530    -0.0000530
units angstrom
no_reorient  #important for SAPT in psi4, default
symmetry c1  #important for SAPT in psi4, default
}

set PROPERTIES_ORIGIN ["COM"]
properties('MP2/aug-cc-pvtz', properties = ['dipole'])
--------------------------------------------------------------------------

    Molecular point group: c1
  Charge       = 0
  Multiplicity = 1
  Basis Set: AUG-CC-PVTZ
    Blend: AUG-CC-PVTZ
  Basis Set: (AUG-CC-PVTZ AUX)
    Blend: AUG-CC-PVTZ-JKFIT

    Orbital Energies [Eh]
    ---------------------

    Doubly Occupied:

       1A    -15.720027     2A    -15.675446     3A    -15.639545
       4A    -15.623631     5A    -11.311291     6A     -1.512099
       7A     -1.276117     8A     -1.178481     9A     -0.927407
      10A     -0.885246    11A     -0.781436    12A     -0.690675
      13A     -0.659708    14A     -0.572459    15A     -0.505091
      16A     -0.485010    17A     -0.457005    18A     -0.406577

  @DF-RHF Final Energy:  -256.84330120386232

   => Energetics <=

    Nuclear Repulsion Energy =            167.1175946830424834
    One-Electron Energy =                -679.3072918087394783
    Two-Electron Energy =                 255.3463959218346702
    Total Energy =                       -256.8433012038623247
  Basis Set: (AUG-CC-PVTZ AUX)
    Blend: AUG-CC-PVTZ-RI
    Molecular point group: c1

    Geometry (in Angstrom), charge = 0, multiplicity = 1:

       Center              X                  Y                   Z               Mass
    ------------   -----------------  -----------------  -----------------  -----------------
         N           -0.983077675630    -0.324644189457     0.000052893284    14.003074004430
         N           -0.026621475630    -1.171565389457     0.000051893284    14.003074004430
         N           -0.621850675630     0.965410810543    -0.000015106716    14.003074004430
         N            0.711867324370     0.938699810543    -0.000071106716    14.003074004430
         C            1.062652324370    -0.365227189457    -0.000026106716    12.000000000000
         H           -1.959254675630    -0.606333189457     0.000104893284     1.007825032230
         H            2.084826324370    -0.712489189457    -0.000052106716     1.007825032230

  Basis Set: AUG-CC-PVTZ
    Blend: AUG-CC-PVTZ
  Basis Set: (AUG-CC-PVTZ AUX)
    Blend: AUG-CC-PVTZ-JKFIT
	 Reference Energy          =    -256.8433012038623247 [Eh]
	 Singles Energy            =      -0.0000000000000000 [Eh]
	 Same-Spin Energy          =      -0.2776828040026793 [Eh]
	 Opposite-Spin Energy      =      -0.7920178118548717 [Eh]
	 Correlation Energy        =      -1.0697006158575511 [Eh]
	 Total Energy              =    -257.9130018197198524 [Eh]

	 ================> DF-SCS-MP2 Energies <==================
	-----------------------------------------------------------
	 SCS Same-Spin Scale       =       0.3333333333333333 [-]
	 SCS Opposite-Spin Scale   =       1.2000000000000000 [-]
	 SCS Same-Spin Energy      =      -0.0925609346675598 [Eh]
	 SCS Opposite-Spin Energy  =      -0.9504213742258460 [Eh]
	 SCS Correlation Energy    =      -1.0429823088934058 [Eh]
	 SCS Total Energy          =    -257.8862835127557105 [Eh]
	-----------------------------------------------------------

  Dipole Moment: [D]
     X:    -1.2418      Y:    -2.0931      Z:     0.0001     Total:     2.4337

*** Psi4 exiting successfully. Buy a developer a beer!
