                               Psi4 1.4a3.dev225

  ==> Input File <==

--------------------------------------------------------------------------
#psi4
#
memory 32 gb

molecule  {
0 1
  N       -0.9921260    -0.3000080     0.0000520
  N        0.0017640    -1.1800760     0.0000510
  N       -0.6308990     0.9900470    -0.0000160
  N        0.7028190     0.9633360    -0.0000720
  C        1.0536040    -0.3405910    -0.0000270
  H       -1.9683030    -0.5816970     0.0001040
  H        2.0568410    -0.6814195    -0.0000525
units angstrom
no_reorient  #important for SAPT in psi4, default
symmetry c1  #important for SAPT in psi4, default
}

set PROPERTIES_ORIGIN ["COM"]
properties('MP2/aug-cc-pvtz', properties = ['dipole'])
--------------------------------------------------------------------------

    Molecular point group: c1
  Charge       = 0
  Multiplicity = 1
  Basis Set: AUG-CC-PVTZ
    Blend: AUG-CC-PVTZ
  Basis Set: (AUG-CC-PVTZ AUX)
    Blend: AUG-CC-PVTZ-JKFIT

    Orbital Energies [Eh]
    ---------------------

    Doubly Occupied:

       1A    -15.716923     2A    -15.684700     3A    -15.642393
       4A    -15.622969     5A    -11.311201     6A     -1.498531
       7A     -1.265088     8A     -1.182957     9A     -0.927474
      10A     -0.879270    11A     -0.780824    12A     -0.682292
      13A     -0.654110    14A     -0.577563    15A     -0.510582
      16A     -0.485559    17A     -0.451020    18A     -0.414272

  @DF-RHF Final Energy:  -256.84271302607789

   => Energetics <=

    Nuclear Repulsion Energy =            166.2325214933476616
    One-Electron Energy =                -677.5750106628106550
    Two-Electron Energy =                 254.4997761433850485
    Total Energy =                       -256.8427130260779450
  Basis Set: (AUG-CC-PVTZ AUX)
    Blend: AUG-CC-PVTZ-RI
    Molecular point group: c1

    Geometry (in Angstrom), charge = 0, multiplicity = 1:

       Center              X                  Y                   Z               Mass
    ------------   -----------------  -----------------  -----------------  -----------------
         N           -0.990290554449    -0.318108609354     0.000052886088    14.003074004430
         N            0.003599445551    -1.198176609354     0.000051886088    14.003074004430
         N           -0.629063554449     0.971946390646    -0.000015113912    14.003074004430
         N            0.704654445551     0.945235390646    -0.000071113912    14.003074004430
         C            1.055439445551    -0.358691609354    -0.000026113912    12.000000000000
         H           -1.966467554449    -0.599797609354     0.000104886088     1.007825032230
         H            2.058676445551    -0.699520109354    -0.000051613912     1.007825032230

  Basis Set: AUG-CC-PVTZ
    Blend: AUG-CC-PVTZ
  Basis Set: (AUG-CC-PVTZ AUX)
    Blend: AUG-CC-PVTZ-JKFIT
	 Reference Energy          =    -256.8427130260778881 [Eh]
	 Singles Energy            =      -0.0000000000000000 [Eh]
	 Same-Spin Energy          =      -0.2778529125438304 [Eh]
	 Opposite-Spin Energy      =      -0.7936166129989577 [Eh]
	 Correlation Energy        =      -1.0714695255427882 [Eh]
	 Total Energy              =    -257.9141825516206836 [Eh]

	 ================> DF-SCS-MP2 Energies <==================
	-----------------------------------------------------------
	 SCS Same-Spin Scale       =       0.3333333333333333 [-]
	 SCS Opposite-Spin Scale   =       1.2000000000000000 [-]
	 SCS Same-Spin Energy      =      -0.0926176375146101 [Eh]
	 SCS Opposite-Spin Energy  =      -0.9523399355987492 [Eh]
	 SCS Correlation Energy    =      -1.0449575731133594 [Eh]
	 SCS Total Energy          =    -257.8876705991912672 [Eh]
	-----------------------------------------------------------

  Dipole Moment: [D]
     X:    -1.2430      Y:    -2.0231      Z:     0.0001     Total:     2.3745

*** Psi4 exiting successfully. Buy a developer a beer!
