                               Psi4 1.3.2 release

  ==> Input File <==

--------------------------------------------------------------------------
#psi4
#
memory 32 gb

molecule  {
0 1
  N       -0.9921260    -0.3000080     0.0000520
  N       -0.0620475    -1.2472625     0.0000563
  N       -0.6308990     0.9900470    -0.0000160
  N        0.7028190     0.9633360    -0.0000720
  C        1.0536040    -0.3405910    -0.0000270
  H       -1.9683030    -0.5816970     0.0001040
  H        2.0757780    -0.6878530    -0.0000530
units angstrom
no_reorient  #important for SAPT in psi4, default
symmetry c1  #important for SAPT in psi4, default
}

set PROPERTIES_ORIGIN ["COM"]
properties('MP2/aug-cc-pvtz', properties = ['dipole'])
--------------------------------------------------------------------------

    Molecular point group: c1
  Charge       = 0
  Multiplicity = 1
  Basis Set: AUG-CC-PVTZ
    Blend: AUG-CC-PVTZ
  Basis Set: (AUG-CC-PVTZ AUX)
    Blend: AUG-CC-PVTZ-JKFIT

    Orbital Energies [Eh]
    ---------------------

    Doubly Occupied:

       1A    -15.724378     2A    -15.683401     3A    -15.656073
       4A    -15.628546     5A    -11.324598     6A     -1.492852
       7A     -1.271302     8A     -1.166771     9A     -0.923968
      10A     -0.875799    11A     -0.773127    12A     -0.678637
      13A     -0.635921    14A     -0.583758    15A     -0.513593
      16A     -0.489679    17A     -0.457384    18A     -0.399747

  @DF-RHF Final Energy:  -256.82564250609965

   => Energetics <=

    Nuclear Repulsion Energy =            164.4011421995170394
    One-Electron Energy =                -673.8945016310435676
    Two-Electron Energy =                 252.6677169254268449
    Total Energy =                       -256.8256425060997117
  Basis Set: (AUG-CC-PVTZ AUX)
    Blend: AUG-CC-PVTZ-RI
    Molecular point group: c1

    Geometry (in Angstrom), charge = 0, multiplicity = 1:

       Center              X                  Y                   Z               Mass
    ------------   -----------------  -----------------  -----------------  -----------------
         N           -0.977803083045    -0.304581133154     0.000051833474    14.003074004430
         N           -0.047724583045    -1.251835633154     0.000056133474    14.003074004430
         N           -0.616576083045     0.985473866846    -0.000016166526    14.003074004430
         N            0.717141916955     0.958762866846    -0.000072166526    14.003074004430
         C            1.067926916955    -0.345164133154    -0.000027166526    12.000000000000
         H           -1.953980083045    -0.586270133154     0.000103833474     1.007825032230
         H            2.090100916955    -0.692426133154    -0.000053166526     1.007825032230

  Basis Set: AUG-CC-PVTZ
    Blend: AUG-CC-PVTZ
  Basis Set: (AUG-CC-PVTZ AUX)
    Blend: AUG-CC-PVTZ-JKFIT
	 Reference Energy          =    -256.8256425060996548 [Eh]
	 Singles Energy            =      -0.0000000000000000 [Eh]
	 Same-Spin Energy          =      -0.2805007552401053 [Eh]
	 Opposite-Spin Energy      =      -0.7995499863131689 [Eh]
	 Correlation Energy        =      -1.0800507415532741 [Eh]
	 Total Energy              =    -257.9056932476529482 [Eh]

	 ================> DF-SCS-MP2 Energies <==================
	-----------------------------------------------------------
	 SCS Same-Spin Scale       =       0.3333333333333333 [-]
	 SCS Opposite-Spin Scale   =       1.2000000000000000 [-]
	 SCS Same-Spin Energy      =      -0.0935002517467017 [Eh]
	 SCS Opposite-Spin Energy  =      -0.9594599835758026 [Eh]
	 SCS Correlation Energy    =      -1.0529602353225045 [Eh]
	 SCS Total Energy          =    -257.8786027414221849 [Eh]
	-----------------------------------------------------------

  Dipole Moment: [D]
     X:    -1.1774      Y:    -1.9208      Z:     0.0001     Total:     2.2530

*** Psi4 exiting successfully. Buy a developer a beer!
