                               Psi4 1.4a3.dev225

  ==> Input File <==

--------------------------------------------------------------------------
#psi4
#
memory 32 gb

molecule  {
0 1
  N       -0.9921260    -0.3000080     0.0000520
  N        0.0017640    -1.1800760     0.0000510
  N       -0.6308990     0.9900470    -0.0000160
  N        0.7228150     0.9629355    -0.0000728
  C        1.0536040    -0.3405910    -0.0000270
  H       -1.9683030    -0.5816970     0.0001040
  H        2.0757780    -0.6878530    -0.0000530
units angstrom
no_reorient  #important for SAPT in psi4, default
symmetry c1  #important for SAPT in psi4, default
}

set PROPERTIES_ORIGIN ["COM"]
properties('MP2/aug-cc-pvtz', properties = ['dipole'])
--------------------------------------------------------------------------

    Molecular point group: c1
  Charge       = 0
  Multiplicity = 1
  Basis Set: AUG-CC-PVTZ
    Blend: AUG-CC-PVTZ
  Basis Set: (AUG-CC-PVTZ AUX)
    Blend: AUG-CC-PVTZ-JKFIT

    Orbital Energies [Eh]
    ---------------------

    Doubly Occupied:

       1A    -15.720429     2A    -15.686105     3A    -15.641594
       4A    -15.624355     5A    -11.313209     6A     -1.495773
       7A     -1.260441     8A     -1.184655     9A     -0.930517
      10A     -0.874841    11A     -0.777752    12A     -0.681221
      13A     -0.650625    14A     -0.573623    15A     -0.509556
      16A     -0.489429    17A     -0.449118    18A     -0.414988

  @DF-RHF Final Energy:  -256.84019611686006

   => Energetics <=

    Nuclear Repulsion Energy =            165.7960837294675684
    One-Electron Energy =                -676.7160936555522994
    Two-Electron Energy =                 254.0798138092246745
    Total Energy =                       -256.8401961168600565
  Basis Set: (AUG-CC-PVTZ AUX)
    Blend: AUG-CC-PVTZ-RI
    Molecular point group: c1

    Geometry (in Angstrom), charge = 0, multiplicity = 1:

       Center              X                  Y                   Z               Mass
    ------------   -----------------  -----------------  -----------------  -----------------
         N           -0.994561572909    -0.317935934384     0.000053053255    14.003074004430
         N           -0.000671572909    -1.198003934384     0.000052053255    14.003074004430
         N           -0.633334572909     0.972119065616    -0.000014946745    14.003074004430
         N            0.720379427091     0.945007565616    -0.000071746745    14.003074004430
         C            1.051168427091    -0.358518934384    -0.000025946745    12.000000000000
         H           -1.970738572909    -0.599624934384     0.000105053255     1.007825032230
         H            2.073342427091    -0.705780934384    -0.000051946745     1.007825032230

  Basis Set: AUG-CC-PVTZ
    Blend: AUG-CC-PVTZ
  Basis Set: (AUG-CC-PVTZ AUX)
    Blend: AUG-CC-PVTZ-JKFIT
	 Reference Energy          =    -256.8401961168600565 [Eh]
	 Singles Energy            =      -0.0000000000000000 [Eh]
	 Same-Spin Energy          =      -0.2783912023948948 [Eh]
	 Opposite-Spin Energy      =      -0.7949563093355306 [Eh]
	 Correlation Energy        =      -1.0733475117304254 [Eh]
	 Total Energy              =    -257.9135436285905030 [Eh]

	 ================> DF-SCS-MP2 Energies <==================
	-----------------------------------------------------------
	 SCS Same-Spin Scale       =       0.3333333333333333 [-]
	 SCS Opposite-Spin Scale   =       1.2000000000000000 [-]
	 SCS Same-Spin Energy      =      -0.0927970674649649 [Eh]
	 SCS Opposite-Spin Energy  =      -0.9539475712026367 [Eh]
	 SCS Correlation Energy    =      -1.0467446386676016 [Eh]
	 SCS Total Energy          =    -257.8869407555276325 [Eh]
	-----------------------------------------------------------

  Dipole Moment: [D]
     X:    -1.2675      Y:    -2.0448      Z:     0.0001     Total:     2.4058

*** Psi4 exiting successfully. Buy a developer a beer!
