                               Psi4 1.3.2 release

  ==> Input File <==

--------------------------------------------------------------------------
#psi4
#
memory 32 gb

molecule  {
0 1
  N       -0.9921260    -0.3000080     0.0000520
  N        0.0017640    -1.1800760     0.0000510
  N       -0.6308990     0.9900470    -0.0000160
  N        0.7028190     0.9633360    -0.0000720
  C        1.1055611    -0.5337243    -0.0000203
  H       -1.9683030    -0.5816970     0.0001040
  H        2.0757780    -0.6878530    -0.0000530
units angstrom
no_reorient  #important for SAPT in psi4, default
symmetry c1  #important for SAPT in psi4, default
}

set PROPERTIES_ORIGIN ["COM"]
properties('MP2/aug-cc-pvtz', properties = ['dipole'])
--------------------------------------------------------------------------

    Molecular point group: c1
  Charge       = 0
  Multiplicity = 1
  Basis Set: AUG-CC-PVTZ
    Blend: AUG-CC-PVTZ
  Basis Set: (AUG-CC-PVTZ AUX)
    Blend: AUG-CC-PVTZ-JKFIT

    Orbital Energies [Eh]
    ---------------------

    Doubly Occupied:

       1A    -15.699678     2A    -15.689990     3A    -15.643690
       4A    -15.630049     5A    -11.318860     6A     -1.483547
       7A     -1.258850     8A     -1.171375     9A     -0.902812
      10A     -0.892437    11A     -0.769625    12A     -0.702186
      13A     -0.673697    14A     -0.564203    15A     -0.513663
      16A     -0.452046    17A     -0.451132    18A     -0.408128

  @DF-RHF Final Energy:  -256.80514143296955

   => Energetics <=

    Nuclear Repulsion Energy =            164.0822317505859473
    One-Electron Energy =                -673.3228133550584289
    Two-Electron Energy =                 252.4354401715029326
    Total Energy =                       -256.8051414329695490
  Basis Set: (AUG-CC-PVTZ AUX)
    Blend: AUG-CC-PVTZ-RI
    Molecular point group: c1

    Geometry (in Angstrom), charge = 0, multiplicity = 1:

       Center              X                  Y                   Z               Mass
    ------------   -----------------  -----------------  -----------------  -----------------
         N           -0.999466468046    -0.284920666934     0.000051745170    14.003074004430
         N           -0.005576468046    -1.164988666934     0.000050745170    14.003074004430
         N           -0.638239468046     1.005134333066    -0.000016254830    14.003074004430
         N            0.695478531954     0.978423333066    -0.000072254830    14.003074004430
         C            1.098220631954    -0.518636966934    -0.000020554830    12.000000000000
         H           -1.975643468046    -0.566609666934     0.000103745170     1.007825032230
         H            2.068437531954    -0.672765666934    -0.000053254830     1.007825032230

  Basis Set: AUG-CC-PVTZ
    Blend: AUG-CC-PVTZ
  Basis Set: (AUG-CC-PVTZ AUX)
    Blend: AUG-CC-PVTZ-JKFIT
	 Reference Energy          =    -256.8051414329695490 [Eh]
	 Singles Energy            =      -0.0000000000000000 [Eh]
	 Same-Spin Energy          =      -0.2771412565057665 [Eh]
	 Opposite-Spin Energy      =      -0.7959796313632590 [Eh]
	 Correlation Energy        =      -1.0731208878690255 [Eh]
	 Total Energy              =    -257.8782623208385871 [Eh]

	 ================> DF-SCS-MP2 Energies <==================
	-----------------------------------------------------------
	 SCS Same-Spin Scale       =       0.3333333333333333 [-]
	 SCS Opposite-Spin Scale   =       1.2000000000000000 [-]
	 SCS Same-Spin Energy      =      -0.0923804188352555 [Eh]
	 SCS Opposite-Spin Energy  =      -0.9551755576359108 [Eh]
	 SCS Correlation Energy    =      -1.0475559764711664 [Eh]
	 SCS Total Energy          =    -257.8526974094407365 [Eh]
	-----------------------------------------------------------

  Dipole Moment: [D]
     X:    -1.0654      Y:    -2.1494      Z:     0.0001     Total:     2.3990

*** Psi4 exiting successfully. Buy a developer a beer!
