                               Psi4 1.3.2 release

  ==> Input File <==

--------------------------------------------------------------------------
#psi4
#
memory 32 gb

molecule  {
0 1
  N       -0.9283145    -0.2328215     0.0000466
  N        0.0017640    -1.1800760     0.0000510
  N       -0.6308990     0.9900470    -0.0000160
  N        0.7028190     0.9633360    -0.0000720
  C        1.0536040    -0.3405910    -0.0000270
  H       -1.9683030    -0.5816970     0.0001040
  H        2.0757780    -0.6878530    -0.0000530
units angstrom
no_reorient  #important for SAPT in psi4, default
symmetry c1  #important for SAPT in psi4, default
}

set PROPERTIES_ORIGIN ["COM"]
properties('MP2/aug-cc-pvtz', properties = ['dipole'])
--------------------------------------------------------------------------

    Molecular point group: c1
  Charge       = 0
  Multiplicity = 1
  Basis Set: AUG-CC-PVTZ
    Blend: AUG-CC-PVTZ
  Basis Set: (AUG-CC-PVTZ AUX)
    Blend: AUG-CC-PVTZ-JKFIT

    Orbital Energies [Eh]
    ---------------------

    Doubly Occupied:

       1A    -15.726534     2A    -15.680520     3A    -15.637324
       4A    -15.610998     5A    -11.313005     6A     -1.530195
       7A     -1.265170     8A     -1.196479     9A     -0.908769
      10A     -0.885289    11A     -0.779550    12A     -0.701085
      13A     -0.630622    14A     -0.573806    15A     -0.525216
      16A     -0.478128    17A     -0.441547    18A     -0.426075

  @DF-RHF Final Energy:  -256.83331052140477

   => Energetics <=

    Nuclear Repulsion Energy =            168.0230779569345430
    One-Electron Energy =                -681.0921502353791084
    Two-Electron Energy =                 256.2357617570397679
    Total Energy =                       -256.8333105214047691
  Basis Set: (AUG-CC-PVTZ AUX)
    Blend: AUG-CC-PVTZ-RI
    Molecular point group: c1

    Geometry (in Angstrom), charge = 0, multiplicity = 1:

       Center              X                  Y                   Z               Mass
    ------------   -----------------  -----------------  -----------------  -----------------
         N           -0.939511599176    -0.264264406844     0.000048573090    14.003074004430
         N           -0.009433099176    -1.211518906844     0.000052973090    14.003074004430
         N           -0.642096099176     0.958604093156    -0.000014026910    14.003074004430
         N            0.691621900824     0.931893093156    -0.000070026910    14.003074004430
         C            1.042406900824    -0.372033906844    -0.000025026910    12.000000000000
         H           -1.979500099176    -0.613139906844     0.000105973090     1.007825032230
         H            2.064580900824    -0.719295906844    -0.000051026910     1.007825032230

  Basis Set: AUG-CC-PVTZ
    Blend: AUG-CC-PVTZ
  Basis Set: (AUG-CC-PVTZ AUX)
    Blend: AUG-CC-PVTZ-JKFIT
	 Reference Energy          =    -256.8333105214047691 [Eh]
	 Singles Energy            =      -0.0000000000000000 [Eh]
	 Same-Spin Energy          =      -0.2771658774025147 [Eh]
	 Opposite-Spin Energy      =      -0.7912077248933294 [Eh]
	 Correlation Energy        =      -1.0683736022958441 [Eh]
	 Total Energy              =    -257.9016841237005906 [Eh]

	 ================> DF-SCS-MP2 Energies <==================
	-----------------------------------------------------------
	 SCS Same-Spin Scale       =       0.3333333333333333 [-]
	 SCS Opposite-Spin Scale   =       1.2000000000000000 [-]
	 SCS Same-Spin Energy      =      -0.0923886258008382 [Eh]
	 SCS Opposite-Spin Energy  =      -0.9494492698719952 [Eh]
	 SCS Correlation Energy    =      -1.0418378956728334 [Eh]
	 SCS Total Energy          =    -257.8751484170775825 [Eh]
	-----------------------------------------------------------

  Dipole Moment: [D]
     X:    -1.3618      Y:    -2.0383      Z:     0.0001     Total:     2.4514

*** Psi4 exiting successfully. Buy a developer a beer!
