                               Psi4 1.3.2 release

  ==> Input File <==

--------------------------------------------------------------------------
#psi4
#
memory 32 gb

molecule  {
0 1
  N       -0.9921260    -0.3000080     0.0000520
  N        0.0017640    -1.1800760     0.0000510
  N       -0.6308990     0.9900470    -0.0000160
  N        0.8410381     0.9928600    -0.0000790
  C        1.0536040    -0.3405910    -0.0000270
  H       -1.9683030    -0.5816970     0.0001040
  H        2.0757780    -0.6878530    -0.0000530
units angstrom
no_reorient  #important for SAPT in psi4, default
symmetry c1  #important for SAPT in psi4, default
}

set PROPERTIES_ORIGIN ["COM"]
properties('MP2/aug-cc-pvtz', properties = ['dipole'])
--------------------------------------------------------------------------

    Molecular point group: c1
  Charge       = 0
  Multiplicity = 1
  Basis Set: AUG-CC-PVTZ
    Blend: AUG-CC-PVTZ
  Basis Set: (AUG-CC-PVTZ AUX)
    Blend: AUG-CC-PVTZ-JKFIT

    Orbital Energies [Eh]
    ---------------------

    Doubly Occupied:

       1A    -15.736795     2A    -15.692896     3A    -15.638014
       4A    -15.637394     5A    -11.317969     6A     -1.481649
       7A     -1.235231     8A     -1.189725     9A     -0.943652
      10A     -0.863600    11A     -0.761986    12A     -0.674659
      13A     -0.648609    14A     -0.557896    15A     -0.519174
      16A     -0.491844    17A     -0.443686    18A     -0.412446

  @DF-RHF Final Energy:  -256.81302082676757

   => Energetics <=

    Nuclear Repulsion Energy =            163.2400121661330274
    One-Electron Energy =                -671.6116187936200959
    Two-Electron Energy =                 251.5585858007194702
    Total Energy =                       -256.8130208267675698
  Basis Set: (AUG-CC-PVTZ AUX)
    Blend: AUG-CC-PVTZ-RI
    Molecular point group: c1

    Geometry (in Angstrom), charge = 0, multiplicity = 1:

       Center              X                  Y                   Z               Mass
    ------------   -----------------  -----------------  -----------------  -----------------
         N           -1.018201946659    -0.323919759578     0.000054293032    14.003074004430
         N           -0.024311946659    -1.203987759578     0.000053293032    14.003074004430
         N           -0.656974946659     0.966135240422    -0.000013706968    14.003074004430
         N            0.814962153341     0.968948240422    -0.000076706968    14.003074004430
         C            1.027528053341    -0.364502759578    -0.000024706968    12.000000000000
         H           -1.994378946659    -0.605608759578     0.000106293032     1.007825032230
         H            2.049702053341    -0.711764759578    -0.000050706968     1.007825032230

  Basis Set: AUG-CC-PVTZ
    Blend: AUG-CC-PVTZ
  Basis Set: (AUG-CC-PVTZ AUX)
    Blend: AUG-CC-PVTZ-JKFIT
	 Reference Energy          =    -256.8130208267675698 [Eh]
	 Singles Energy            =      -0.0000000000000000 [Eh]
	 Same-Spin Energy          =      -0.2813266840020202 [Eh]
	 Opposite-Spin Energy      =      -0.8035389034756490 [Eh]
	 Correlation Energy        =      -1.0848655874776694 [Eh]
	 Total Energy              =    -257.8978864142452494 [Eh]

	 ================> DF-SCS-MP2 Energies <==================
	-----------------------------------------------------------
	 SCS Same-Spin Scale       =       0.3333333333333333 [-]
	 SCS Opposite-Spin Scale   =       1.2000000000000000 [-]
	 SCS Same-Spin Energy      =      -0.0937755613340067 [Eh]
	 SCS Opposite-Spin Energy  =      -0.9642466841707789 [Eh]
	 SCS Correlation Energy    =      -1.0580222455047856 [Eh]
	 SCS Total Energy          =    -257.8710430722723572 [Eh]
	-----------------------------------------------------------

  Dipole Moment: [D]
     X:    -1.4120      Y:    -2.1527      Z:     0.0002     Total:     2.5745

*** Psi4 exiting successfully. Buy a developer a beer!
