                               Psi4 1.3.2 release

  ==> Input File <==

--------------------------------------------------------------------------
#psi4
#
memory 32 gb

molecule  {
0 1
  N       -0.9921260    -0.3000080     0.0000520
  N       -0.0542333    -1.1046584     0.0000500
  N       -0.6308990     0.9900470    -0.0000160
  N        0.7028190     0.9633360    -0.0000720
  C        1.0536040    -0.3405910    -0.0000270
  H       -1.9683030    -0.5816970     0.0001040
  H        2.0757780    -0.6878530    -0.0000530
units angstrom
no_reorient  #important for SAPT in psi4, default
symmetry c1  #important for SAPT in psi4, default
}

set PROPERTIES_ORIGIN ["COM"]
properties('MP2/aug-cc-pvtz', properties = ['dipole'])
--------------------------------------------------------------------------

    Molecular point group: c1
  Charge       = 0
  Multiplicity = 1
  Basis Set: AUG-CC-PVTZ
    Blend: AUG-CC-PVTZ
  Basis Set: (AUG-CC-PVTZ AUX)
    Blend: AUG-CC-PVTZ-JKFIT

    Orbital Energies [Eh]
    ---------------------

    Doubly Occupied:

       1A    -15.720826     2A    -15.667342     3A    -15.634141
       4A    -15.622955     5A    -11.307452     6A     -1.527480
       7A     -1.283503     8A     -1.178176     9A     -0.928967
      10A     -0.892798    11A     -0.784138    12A     -0.699836
      13A     -0.669760    14A     -0.567428    15A     -0.498272
      16A     -0.483378    17A     -0.460739    18A     -0.402928

  @DF-RHF Final Energy:  -256.84074888417302

   => Energetics <=

    Nuclear Repulsion Energy =            168.3612059017538343
    One-Electron Energy =                -681.7436698397376631
    Two-Electron Energy =                 256.5417150538108331
    Total Energy =                       -256.8407488841730242
  Basis Set: (AUG-CC-PVTZ AUX)
    Blend: AUG-CC-PVTZ-RI
    Molecular point group: c1

    Geometry (in Angstrom), charge = 0, multiplicity = 1:

       Center              X                  Y                   Z               Mass
    ------------   -----------------  -----------------  -----------------  -----------------
         N           -0.979365642380    -0.333096831206     0.000053093248    14.003074004430
         N           -0.041472942380    -1.137747231206     0.000051093248    14.003074004430
         N           -0.618138642380     0.956958168794    -0.000014906752    14.003074004430
         N            0.715579357620     0.930247168794    -0.000070906752    14.003074004430
         C            1.066364357620    -0.373679831206    -0.000025906752    12.000000000000
         H           -1.955542642380    -0.614785831206     0.000105093248     1.007825032230
         H            2.088538357620    -0.720941831206    -0.000051906752     1.007825032230

  Basis Set: AUG-CC-PVTZ
    Blend: AUG-CC-PVTZ
  Basis Set: (AUG-CC-PVTZ AUX)
    Blend: AUG-CC-PVTZ-JKFIT
	 Reference Energy          =    -256.8407488841730242 [Eh]
	 Singles Energy            =      -0.0000000000000000 [Eh]
	 Same-Spin Energy          =      -0.2770816322604244 [Eh]
	 Opposite-Spin Energy      =      -0.7896884044677013 [Eh]
	 Correlation Energy        =      -1.0667700367281256 [Eh]
	 Total Energy              =    -257.9075189209011683 [Eh]

	 ================> DF-SCS-MP2 Energies <==================
	-----------------------------------------------------------
	 SCS Same-Spin Scale       =       0.3333333333333333 [-]
	 SCS Opposite-Spin Scale   =       1.2000000000000000 [-]
	 SCS Same-Spin Energy      =      -0.0923605440868081 [Eh]
	 SCS Opposite-Spin Energy  =      -0.9476260853612415 [Eh]
	 SCS Correlation Energy    =      -1.0399866294480495 [Eh]
	 SCS Total Energy          =    -257.8807355136210617 [Eh]
	-----------------------------------------------------------

  Dipole Moment: [D]
     X:    -1.2576      Y:    -2.1933      Z:     0.0001     Total:     2.5283

*** Psi4 exiting successfully. Buy a developer a beer!
