                               Psi4 1.3.2 release

  ==> Input File <==

--------------------------------------------------------------------------
#psi4
#
memory 32 gb

molecule  {
0 1
  N       -0.9921260    -0.3000080     0.0000520
  N       -0.0731036    -1.1137824     0.0000511
  N       -0.6308990     0.9900470    -0.0000160
  N        0.7028190     0.9633360    -0.0000720
  C        1.0536040    -0.3405910    -0.0000270
  H       -1.9683030    -0.5816970     0.0001040
  H        2.0757780    -0.6878530    -0.0000530
units angstrom
no_reorient  #important for SAPT in psi4, default
symmetry c1  #important for SAPT in psi4, default
}

set PROPERTIES_ORIGIN ["COM"]
properties('MP2/aug-cc-pvtz', properties = ['dipole'])
--------------------------------------------------------------------------

    Molecular point group: c1
  Charge       = 0
  Multiplicity = 1
  Basis Set: AUG-CC-PVTZ
    Blend: AUG-CC-PVTZ
  Basis Set: (AUG-CC-PVTZ AUX)
    Blend: AUG-CC-PVTZ-JKFIT

    Orbital Energies [Eh]
    ---------------------

    Doubly Occupied:

       1A    -15.722820     2A    -15.665290     3A    -15.636829
       4A    -15.624313     5A    -11.309425     6A     -1.529156
       7A     -1.287374     8A     -1.173886     9A     -0.928412
      10A     -0.893208    11A     -0.782840    12A     -0.700708
      13A     -0.667994    14A     -0.568108    15A     -0.498574
      16A     -0.484535    17A     -0.463339    18A     -0.398656

  @DF-RHF Final Energy:  -256.83818675190531

   => Energetics <=

    Nuclear Repulsion Energy =            168.1491344656716649
    One-Electron Energy =                -681.3037061726972752
    Two-Electron Energy =                 256.3163849551203270
    Total Energy =                       -256.8381867519053117
  Basis Set: (AUG-CC-PVTZ AUX)
    Blend: AUG-CC-PVTZ-RI
    Molecular point group: c1

    Geometry (in Angstrom), charge = 0, multiplicity = 1:

       Center              X                  Y                   Z               Mass
    ------------   -----------------  -----------------  -----------------  -----------------
         N           -0.975592260150    -0.331272358915     0.000052873287    14.003074004430
         N           -0.056569860150    -1.145046758915     0.000051973287    14.003074004430
         N           -0.614365260150     0.958782641085    -0.000015126713    14.003074004430
         N            0.719352739850     0.932071641085    -0.000071126713    14.003074004430
         C            1.070137739850    -0.371855358915    -0.000026126713    12.000000000000
         H           -1.951769260150    -0.612961358915     0.000104873287     1.007825032230
         H            2.092311739850    -0.719117358915    -0.000052126713     1.007825032230

  Basis Set: AUG-CC-PVTZ
    Blend: AUG-CC-PVTZ
  Basis Set: (AUG-CC-PVTZ AUX)
    Blend: AUG-CC-PVTZ-JKFIT
	 Reference Energy          =    -256.8381867519053117 [Eh]
	 Singles Energy            =      -0.0000000000000000 [Eh]
	 Same-Spin Energy          =      -0.2773720115355510 [Eh]
	 Opposite-Spin Energy      =      -0.7902574089062190 [Eh]
	 Correlation Energy        =      -1.0676294204417700 [Eh]
	 Total Energy              =    -257.9058161723471017 [Eh]

	 ================> DF-SCS-MP2 Energies <==================
	-----------------------------------------------------------
	 SCS Same-Spin Scale       =       0.3333333333333333 [-]
	 SCS Opposite-Spin Scale   =       1.2000000000000000 [-]
	 SCS Same-Spin Energy      =      -0.0924573371785170 [Eh]
	 SCS Opposite-Spin Energy  =      -0.9483088906874627 [Eh]
	 SCS Correlation Energy    =      -1.0407662278659797 [Eh]
	 SCS Total Energy          =    -257.8789529797712703 [Eh]
	-----------------------------------------------------------

  Dipole Moment: [D]
     X:    -1.2445      Y:    -2.1805      Z:     0.0001     Total:     2.5106

*** Psi4 exiting successfully. Buy a developer a beer!
