                               Psi4 1.3.2 release

  ==> Input File <==

--------------------------------------------------------------------------
#psi4
#
memory 32 gb

molecule  {
0 1
  N       -0.9921260    -0.3000080     0.0000520
  N        0.0017640    -1.1800760     0.0000510
  N       -0.6308990     0.9900470    -0.0000160
  N        0.8027990     0.9613337    -0.0000762
  C        1.0536040    -0.3405910    -0.0000270
  H       -1.9683030    -0.5816970     0.0001040
  H        2.0757780    -0.6878530    -0.0000530
units angstrom
no_reorient  #important for SAPT in psi4, default
symmetry c1  #important for SAPT in psi4, default
}

set PROPERTIES_ORIGIN ["COM"]
properties('MP2/aug-cc-pvtz', properties = ['dipole'])
--------------------------------------------------------------------------

    Molecular point group: c1
  Charge       = 0
  Multiplicity = 1
  Basis Set: AUG-CC-PVTZ
    Blend: AUG-CC-PVTZ
  Basis Set: (AUG-CC-PVTZ AUX)
    Blend: AUG-CC-PVTZ-JKFIT

    Orbital Energies [Eh]
    ---------------------

    Doubly Occupied:

       1A    -15.733191     2A    -15.690252     3A    -15.638190
       4A    -15.629368     5A    -11.313223     6A     -1.487047
       7A     -1.244266     8A     -1.191480     9A     -0.942579
      10A     -0.866285    11A     -0.767824    12A     -0.677561
      13A     -0.650699    14A     -0.562194    15A     -0.514845
      16A     -0.492975    17A     -0.447119    18A     -0.413589

  @DF-RHF Final Energy:  -256.82539008484423

   => Energetics <=

    Nuclear Repulsion Energy =            164.4990375009441834
    One-Electron Energy =                -674.1234832070938410
    Two-Electron Energy =                 252.7990556213054560
    Total Energy =                       -256.8253900848442299
  Basis Set: (AUG-CC-PVTZ AUX)
    Blend: AUG-CC-PVTZ-RI
    Molecular point group: c1

    Geometry (in Angstrom), charge = 0, multiplicity = 1:

       Center              X                  Y                   Z               Mass
    ------------   -----------------  -----------------  -----------------  -----------------
         N           -1.010555500103    -0.317615631916     0.000053733133    14.003074004430
         N           -0.016665500103    -1.197683631916     0.000052733133    14.003074004430
         N           -0.649328500103     0.972439368084    -0.000014266867    14.003074004430
         N            0.784369499897     0.943726068084    -0.000074466867    14.003074004430
         C            1.035174499897    -0.358198631916    -0.000025266867    12.000000000000
         H           -1.986732500103    -0.599304631916     0.000105733133     1.007825032230
         H            2.057348499897    -0.705460631916    -0.000051266867     1.007825032230

  Basis Set: AUG-CC-PVTZ
    Blend: AUG-CC-PVTZ
  Basis Set: (AUG-CC-PVTZ AUX)
    Blend: AUG-CC-PVTZ-JKFIT
	 Reference Energy          =    -256.8253900848442299 [Eh]
	 Singles Energy            =      -0.0000000000000000 [Eh]
	 Same-Spin Energy          =      -0.2802139195563736 [Eh]
	 Opposite-Spin Energy      =      -0.8000648156074734 [Eh]
	 Correlation Energy        =      -1.0802787351638470 [Eh]
	 Total Energy              =    -257.9056688200080885 [Eh]

	 ================> DF-SCS-MP2 Energies <==================
	-----------------------------------------------------------
	 SCS Same-Spin Scale       =       0.3333333333333333 [-]
	 SCS Opposite-Spin Scale   =       1.2000000000000000 [-]
	 SCS Same-Spin Energy      =      -0.0934046398521245 [Eh]
	 SCS Opposite-Spin Energy  =      -0.9600777787289680 [Eh]
	 SCS Correlation Energy    =      -1.0534824185810925 [Eh]
	 SCS Total Energy          =    -257.8788725034253275 [Eh]
	-----------------------------------------------------------

  Dipole Moment: [D]
     X:    -1.3763      Y:    -2.1062      Z:     0.0001     Total:     2.5160

*** Psi4 exiting successfully. Buy a developer a beer!
