                               Psi4 1.3.2 release

  ==> Input File <==

--------------------------------------------------------------------------
#psi4
#
memory 32 gb

molecule  {
0 1
  N       -0.9921260    -0.3000080     0.0000520
  N        0.0766316    -1.2463696     0.0000509
  N       -0.6308990     0.9900470    -0.0000160
  N        0.7028190     0.9633360    -0.0000720
  C        1.0536040    -0.3405910    -0.0000270
  H       -1.9683030    -0.5816970     0.0001040
  H        2.0757780    -0.6878530    -0.0000530
units angstrom
no_reorient  #important for SAPT in psi4, default
symmetry c1  #important for SAPT in psi4, default
}

set PROPERTIES_ORIGIN ["COM"]
properties('MP2/aug-cc-pvtz', properties = ['dipole'])
--------------------------------------------------------------------------

    Molecular point group: c1
  Charge       = 0
  Multiplicity = 1
  Basis Set: AUG-CC-PVTZ
    Blend: AUG-CC-PVTZ
  Basis Set: (AUG-CC-PVTZ AUX)
    Blend: AUG-CC-PVTZ-JKFIT

    Orbital Energies [Eh]
    ---------------------

    Doubly Occupied:

       1A    -15.710233     2A    -15.700816     3A    -15.649117
       4A    -15.622025     5A    -11.317788     6A     -1.479628
       7A     -1.245722     8A     -1.189409     9A     -0.929073
      10A     -0.860922    11A     -0.777524    12A     -0.669483
      13A     -0.630565    14A     -0.584578    15A     -0.518456
      16A     -0.487162    17A     -0.440606    18A     -0.428539

  @DF-RHF Final Energy:  -256.82927367991545

   => Energetics <=

    Nuclear Repulsion Energy =            164.2788214134321265
    One-Electron Energy =                -673.7328957229970001
    Two-Electron Energy =                 252.6248006296494282
    Total Energy =                       -256.8292736799154454
  Basis Set: (AUG-CC-PVTZ AUX)
    Blend: AUG-CC-PVTZ-RI
    Molecular point group: c1

    Geometry (in Angstrom), charge = 0, multiplicity = 1:

       Center              X                  Y                   Z               Mass
    ------------   -----------------  -----------------  -----------------  -----------------
         N           -1.005533922071    -0.304759681084     0.000052913280    14.003074004430
         N            0.063223677929    -1.251121281084     0.000051813280    14.003074004430
         N           -0.644306922071     0.985295318916    -0.000015086720    14.003074004430
         N            0.689411077929     0.958584318916    -0.000071086720    14.003074004430
         C            1.040196077929    -0.345342681084    -0.000026086720    12.000000000000
         H           -1.981710922071    -0.586448681084     0.000104913280     1.007825032230
         H            2.062370077929    -0.692604681084    -0.000052086720     1.007825032230

  Basis Set: AUG-CC-PVTZ
    Blend: AUG-CC-PVTZ
  Basis Set: (AUG-CC-PVTZ AUX)
    Blend: AUG-CC-PVTZ-JKFIT
	 Reference Energy          =    -256.8292736799154454 [Eh]
	 Singles Energy            =      -0.0000000000000000 [Eh]
	 Same-Spin Energy          =      -0.2781900197896896 [Eh]
	 Opposite-Spin Energy      =      -0.7970106299719327 [Eh]
	 Correlation Energy        =      -1.0752006497616224 [Eh]
	 Total Energy              =    -257.9044743296770434 [Eh]

	 ================> DF-SCS-MP2 Energies <==================
	-----------------------------------------------------------
	 SCS Same-Spin Scale       =       0.3333333333333333 [-]
	 SCS Opposite-Spin Scale   =       1.2000000000000000 [-]
	 SCS Same-Spin Energy      =      -0.0927300065965632 [Eh]
	 SCS Opposite-Spin Energy  =      -0.9564127559663193 [Eh]
	 SCS Correlation Energy    =      -1.0491427625628824 [Eh]
	 SCS Total Energy          =    -257.8784164424783398 [Eh]
	-----------------------------------------------------------

  Dipole Moment: [D]
     X:    -1.2252      Y:    -1.9231      Z:     0.0001     Total:     2.2803

*** Psi4 exiting successfully. Buy a developer a beer!
