                               Psi4 1.4a3.dev225

  ==> Input File <==

--------------------------------------------------------------------------
#psi4
#
memory 32 gb

molecule  {
0 1
  N       -0.9921260    -0.3000080     0.0000520
  N        0.0017640    -1.1800760     0.0000510
  N       -0.6308990     0.9900470    -0.0000160
  N        0.7528090     0.9623348    -0.0000741
  C        1.0536040    -0.3405910    -0.0000270
  H       -1.9683030    -0.5816970     0.0001040
  H        2.0757780    -0.6878530    -0.0000530
units angstrom
no_reorient  #important for SAPT in psi4, default
symmetry c1  #important for SAPT in psi4, default
}

set PROPERTIES_ORIGIN ["COM"]
properties('MP2/aug-cc-pvtz', properties = ['dipole'])
--------------------------------------------------------------------------

    Molecular point group: c1
  Charge       = 0
  Multiplicity = 1
  Basis Set: AUG-CC-PVTZ
    Blend: AUG-CC-PVTZ
  Basis Set: (AUG-CC-PVTZ AUX)
    Blend: AUG-CC-PVTZ-JKFIT

    Orbital Energies [Eh]
    ---------------------

    Doubly Occupied:

       1A    -15.725430     2A    -15.687871     3A    -15.640324
       4A    -15.626266     5A    -11.313153     6A     -1.492064
       7A     -1.253841     8A     -1.187461     9A     -0.935174
      10A     -0.871561    11A     -0.774128    12A     -0.679709
      13A     -0.650728    14A     -0.569168    15A     -0.509392
      16A     -0.493319    17A     -0.447282    18A     -0.415269

  @DF-RHF Final Energy:  -256.83551002524575

   => Energetics <=

    Nuclear Repulsion Energy =            165.3002227017082930
    One-Electron Energy =                -675.7271851223549675
    Two-Electron Energy =                 253.5914523954008928
    Total Energy =                       -256.8355100252457532
  Basis Set: (AUG-CC-PVTZ AUX)
    Blend: AUG-CC-PVTZ-RI
    Molecular point group: c1

    Geometry (in Angstrom), charge = 0, multiplicity = 1:

       Center              X                  Y                   Z               Mass
    ------------   -----------------  -----------------  -----------------  -----------------
         N           -1.000559295607    -0.317815815960     0.000053313208    14.003074004430
         N           -0.006669295607    -1.197883815960     0.000052313208    14.003074004430
         N           -0.639332295607     0.972239184040    -0.000014686792    14.003074004430
         N            0.744375704393     0.944526984040    -0.000072786792    14.003074004430
         C            1.045170704393    -0.358398815960    -0.000025686792    12.000000000000
         H           -1.976736295607    -0.599504815960     0.000105313208     1.007825032230
         H            2.067344704393    -0.705660815960    -0.000051686792     1.007825032230

  Basis Set: AUG-CC-PVTZ
    Blend: AUG-CC-PVTZ
  Basis Set: (AUG-CC-PVTZ AUX)
    Blend: AUG-CC-PVTZ-JKFIT
	 Reference Energy          =    -256.8355100252457532 [Eh]
	 Singles Energy            =      -0.0000000000000000 [Eh]
	 Same-Spin Energy          =      -0.2791105439197606 [Eh]
	 Opposite-Spin Energy      =      -0.7968649198398754 [Eh]
	 Correlation Energy        =      -1.0759754637596362 [Eh]
	 Total Energy              =    -257.9114854890053721 [Eh]

	 ================> DF-SCS-MP2 Energies <==================
	-----------------------------------------------------------
	 SCS Same-Spin Scale       =       0.3333333333333333 [-]
	 SCS Opposite-Spin Scale   =       1.2000000000000000 [-]
	 SCS Same-Spin Energy      =      -0.0930368479732535 [Eh]
	 SCS Opposite-Spin Energy  =      -0.9562379038078505 [Eh]
	 SCS Correlation Energy    =      -1.0492747517811041 [Eh]
	 SCS Total Energy          =    -257.8847847770268800 [Eh]
	-----------------------------------------------------------

  Dipole Moment: [D]
     X:    -1.3102      Y:    -2.0710      Z:     0.0001     Total:     2.4507

*** Psi4 exiting successfully. Buy a developer a beer!
