                               Psi4 1.3.2 release

  ==> Input File <==

--------------------------------------------------------------------------
#psi4
#
memory 32 gb

molecule  {
0 1
  N       -0.9921260    -0.3000080     0.0000520
  N        0.0017640    -1.1800760     0.0000510
  N       -0.7677253     1.0207384    -0.0000116
  N        0.7028190     0.9633360    -0.0000720
  C        1.0536040    -0.3405910    -0.0000270
  H       -1.9683030    -0.5816970     0.0001040
  H        2.0757780    -0.6878530    -0.0000530
units angstrom
no_reorient  #important for SAPT in psi4, default
symmetry c1  #important for SAPT in psi4, default
}

set PROPERTIES_ORIGIN ["COM"]
properties('MP2/aug-cc-pvtz', properties = ['dipole'])
--------------------------------------------------------------------------

    Molecular point group: c1
  Charge       = 0
  Multiplicity = 1
  Basis Set: AUG-CC-PVTZ
    Blend: AUG-CC-PVTZ
  Basis Set: (AUG-CC-PVTZ AUX)
    Blend: AUG-CC-PVTZ-JKFIT

    Orbital Energies [Eh]
    ---------------------

    Doubly Occupied:

       1A    -15.734585     2A    -15.698869     3A    -15.643768
       4A    -15.625567     5A    -11.319728     6A     -1.482234
       7A     -1.230779     8A     -1.194581     9A     -0.931459
      10A     -0.868118    11A     -0.760216    12A     -0.674796
      13A     -0.654167    14A     -0.560962    15A     -0.532620
      16A     -0.475159    17A     -0.434863    18A     -0.418263

  @DF-RHF Final Energy:  -256.81100668257574

   => Energetics <=

    Nuclear Repulsion Energy =            163.3954691951697384
    One-Electron Energy =                -671.9314830490638997
    Two-Electron Energy =                 251.7250071713183956
    Total Energy =                       -256.8110066825757372
  Basis Set: (AUG-CC-PVTZ AUX)
    Blend: AUG-CC-PVTZ-RI
    Molecular point group: c1

    Geometry (in Angstrom), charge = 0, multiplicity = 1:

       Center              X                  Y                   Z               Mass
    ------------   -----------------  -----------------  -----------------  -----------------
         N           -0.963202745537    -0.324153197648     0.000052013442    14.003074004430
         N            0.030687254463    -1.204221197648     0.000051013442    14.003074004430
         N           -0.738802045537     0.996593202352    -0.000011586558    14.003074004430
         N            0.731742254463     0.939190802352    -0.000071986558    14.003074004430
         C            1.082527254463    -0.364736197648    -0.000026986558    12.000000000000
         H           -1.939379745537    -0.605842197648     0.000104013442     1.007825032230
         H            2.104701254463    -0.711998197648    -0.000052986558     1.007825032230

  Basis Set: AUG-CC-PVTZ
    Blend: AUG-CC-PVTZ
  Basis Set: (AUG-CC-PVTZ AUX)
    Blend: AUG-CC-PVTZ-JKFIT
	 Reference Energy          =    -256.8110066825757372 [Eh]
	 Singles Energy            =      -0.0000000000000000 [Eh]
	 Same-Spin Energy          =      -0.2821758385975816 [Eh]
	 Opposite-Spin Energy      =      -0.8048414816261045 [Eh]
	 Correlation Energy        =      -1.0870173202236861 [Eh]
	 Total Energy              =    -257.8980240027994455 [Eh]

	 ================> DF-SCS-MP2 Energies <==================
	-----------------------------------------------------------
	 SCS Same-Spin Scale       =       0.3333333333333333 [-]
	 SCS Opposite-Spin Scale   =       1.2000000000000000 [-]
	 SCS Same-Spin Energy      =      -0.0940586128658605 [Eh]
	 SCS Opposite-Spin Energy  =      -0.9658097779513253 [Eh]
	 SCS Correlation Energy    =      -1.0598683908171858 [Eh]
	 SCS Total Energy          =    -257.8708750733929378 [Eh]
	-----------------------------------------------------------

  Dipole Moment: [D]
     X:    -1.1613      Y:    -2.1988      Z:     0.0001     Total:     2.4866

*** Psi4 exiting successfully. Buy a developer a beer!
