                               Psi4 1.4a3.dev225

  ==> Input File <==

--------------------------------------------------------------------------
#psi4
#
memory 32 gb

molecule  {
0 1
  N       -0.9921260    -0.3000080     0.0000520
  N        0.0167375    -1.1933347     0.0000510
  N       -0.6308990     0.9900470    -0.0000160
  N        0.7028190     0.9633360    -0.0000720
  C        1.0536040    -0.3405910    -0.0000270
  H       -1.9683030    -0.5816970     0.0001040
  H        2.0757780    -0.6878530    -0.0000530
units angstrom
no_reorient  #important for SAPT in psi4, default
symmetry c1  #important for SAPT in psi4, default
}

set PROPERTIES_ORIGIN ["COM"]
properties('MP2/aug-cc-pvtz', properties = ['dipole'])
--------------------------------------------------------------------------

    Molecular point group: c1
  Charge       = 0
  Multiplicity = 1
  Basis Set: AUG-CC-PVTZ
    Blend: AUG-CC-PVTZ
  Basis Set: (AUG-CC-PVTZ AUX)
    Blend: AUG-CC-PVTZ-JKFIT

    Orbital Energies [Eh]
    ---------------------

    Doubly Occupied:

       1A    -15.715682     2A    -15.688270     3A    -15.643665
       4A    -15.622824     5A    -11.314115     6A     -1.494053
       7A     -1.260961     8A     -1.184175     9A     -0.927529
      10A     -0.873745    11A     -0.779568    12A     -0.679417
      13A     -0.646623    14A     -0.578345    15A     -0.512529
      16A     -0.485895    17A     -0.448822    18A     -0.417262

  @DF-RHF Final Energy:  -256.84104880781177

   => Energetics <=

    Nuclear Repulsion Energy =            165.7519697087748796
    One-Electron Energy =                -676.6390779694696676
    Two-Electron Energy =                 254.0460594528829859
    Total Energy =                       -256.8410488078118306
  Basis Set: (AUG-CC-PVTZ AUX)
    Blend: AUG-CC-PVTZ-RI
    Molecular point group: c1

    Geometry (in Angstrom), charge = 0, multiplicity = 1:

       Center              X                  Y                   Z               Mass
    ------------   -----------------  -----------------  -----------------  -----------------
         N           -0.993557253304    -0.315364756215     0.000052893284    14.003074004430
         N            0.015306246696    -1.208691456215     0.000051893284    14.003074004430
         N           -0.632330253304     0.974690243785    -0.000015106716    14.003074004430
         N            0.701387746696     0.947979243785    -0.000071106716    14.003074004430
         C            1.052172746696    -0.355947756215    -0.000026106716    12.000000000000
         H           -1.969734253304    -0.597053756215     0.000104893284     1.007825032230
         H            2.074346746696    -0.703209756215    -0.000052106716     1.007825032230

  Basis Set: AUG-CC-PVTZ
    Blend: AUG-CC-PVTZ
  Basis Set: (AUG-CC-PVTZ AUX)
    Blend: AUG-CC-PVTZ-JKFIT
	 Reference Energy          =    -256.8410488078117737 [Eh]
	 Singles Energy            =      -0.0000000000000000 [Eh]
	 Same-Spin Energy          =      -0.2779546082402201 [Eh]
	 Opposite-Spin Energy      =      -0.7943557447994185 [Eh]
	 Correlation Energy        =      -1.0723103530396385 [Eh]
	 Total Energy              =    -257.9133591608514280 [Eh]

	 ================> DF-SCS-MP2 Energies <==================
	-----------------------------------------------------------
	 SCS Same-Spin Scale       =       0.3333333333333333 [-]
	 SCS Opposite-Spin Scale   =       1.2000000000000000 [-]
	 SCS Same-Spin Energy      =      -0.0926515360800733 [Eh]
	 SCS Opposite-Spin Energy  =      -0.9532268937593021 [Eh]
	 SCS Correlation Energy    =      -1.0458784298393755 [Eh]
	 SCS Total Energy          =    -257.8869272376511503 [Eh]
	-----------------------------------------------------------

  Dipole Moment: [D]
     X:    -1.2349      Y:    -2.0013      Z:     0.0001     Total:     2.3516

*** Psi4 exiting successfully. Buy a developer a beer!
