                               Psi4 1.4a3.dev225

  ==> Input File <==

--------------------------------------------------------------------------
#psi4
#
memory 32 gb

molecule  {
0 1
  N       -0.9921260    -0.3000080     0.0000520
  N        0.0017640    -1.1800760     0.0000510
  N       -0.6308990     0.9900470    -0.0000160
  N        0.7028190     0.9633360    -0.0000720
  C        1.0145246    -0.3717807    -0.0000241
  H       -1.9683030    -0.5816970     0.0001040
  H        2.0757780    -0.6878530    -0.0000530
units angstrom
no_reorient  #important for SAPT in psi4, default
symmetry c1  #important for SAPT in psi4, default
}

set PROPERTIES_ORIGIN ["COM"]
properties('MP2/aug-cc-pvtz', properties = ['dipole'])
--------------------------------------------------------------------------

    Molecular point group: c1
  Charge       = 0
  Multiplicity = 1
  Basis Set: AUG-CC-PVTZ
    Blend: AUG-CC-PVTZ
  Basis Set: (AUG-CC-PVTZ AUX)
    Blend: AUG-CC-PVTZ-JKFIT

    Orbital Energies [Eh]
    ---------------------

    Doubly Occupied:

       1A    -15.711981     2A    -15.688374     3A    -15.638807
       4A    -15.623888     5A    -11.311303     6A     -1.503240
       7A     -1.269334     8A     -1.186635     9A     -0.926700
      10A     -0.874128    11A     -0.782123    12A     -0.685813
      13A     -0.646499    14A     -0.569124    15A     -0.515489
      16A     -0.487926    17A     -0.450026    18A     -0.421553

  @DF-RHF Final Energy:  -256.84221405280510

   => Energetics <=

    Nuclear Repulsion Energy =            166.7218469084764649
    One-Electron Energy =                -678.5422331921163277
    Two-Electron Energy =                 254.9781722308347867
    Total Energy =                       -256.8422140528051045
  Basis Set: (AUG-CC-PVTZ AUX)
    Blend: AUG-CC-PVTZ-RI
    Molecular point group: c1

    Geometry (in Angstrom), charge = 0, multiplicity = 1:

       Center              X                  Y                   Z               Mass
    ------------   -----------------  -----------------  -----------------  -----------------
         N           -0.983866438899    -0.312671348037     0.000052396339    14.003074004430
         N            0.010023561101    -1.192739348037     0.000051396339    14.003074004430
         N           -0.622639438899     0.977383651963    -0.000015603661    14.003074004430
         N            0.711078561101     0.950672651963    -0.000071603661    14.003074004430
         C            1.022784161101    -0.384444048037    -0.000023703661    12.000000000000
         H           -1.960043438899    -0.594360348037     0.000104396339     1.007825032230
         H            2.084037561101    -0.700516348037    -0.000052603661     1.007825032230

  Basis Set: AUG-CC-PVTZ
    Blend: AUG-CC-PVTZ
  Basis Set: (AUG-CC-PVTZ AUX)
    Blend: AUG-CC-PVTZ-JKFIT
	 Reference Energy          =    -256.8422140528051045 [Eh]
	 Singles Energy            =      -0.0000000000000000 [Eh]
	 Same-Spin Energy          =      -0.2768875457920036 [Eh]
	 Opposite-Spin Energy      =      -0.7919684169615099 [Eh]
	 Correlation Energy        =      -1.0688559627535135 [Eh]
	 Total Energy              =    -257.9110700155586073 [Eh]

	 ================> DF-SCS-MP2 Energies <==================
	-----------------------------------------------------------
	 SCS Same-Spin Scale       =       0.3333333333333333 [-]
	 SCS Opposite-Spin Scale   =       1.2000000000000000 [-]
	 SCS Same-Spin Energy      =      -0.0922958485973345 [Eh]
	 SCS Opposite-Spin Energy  =      -0.9503621003538119 [Eh]
	 SCS Correlation Energy    =      -1.0426579489511463 [Eh]
	 SCS Total Energy          =    -257.8848720017562641 [Eh]
	-----------------------------------------------------------

  Dipole Moment: [D]
     X:    -1.2749      Y:    -2.0509      Z:     0.0001     Total:     2.4148

*** Psi4 exiting successfully. Buy a developer a beer!
