                               Psi4 1.3.2 release

  ==> Input File <==

--------------------------------------------------------------------------
#psi4
#
memory 32 gb

molecule  {
0 1
  N       -0.9921260    -0.3000080     0.0000520
  N        0.0017640    -1.1800760     0.0000510
  N       -0.4980304     0.9452214    -0.0000197
  N        0.7028190     0.9633360    -0.0000720
  C        1.0536040    -0.3405910    -0.0000270
  H       -1.9683030    -0.5816970     0.0001040
  H        2.0757780    -0.6878530    -0.0000530
units angstrom
no_reorient  #important for SAPT in psi4, default
symmetry c1  #important for SAPT in psi4, default
}

set PROPERTIES_ORIGIN ["COM"]
properties('MP2/aug-cc-pvtz', properties = ['dipole'])
--------------------------------------------------------------------------

    Molecular point group: c1
  Charge       = 0
  Multiplicity = 1
  Basis Set: AUG-CC-PVTZ
    Blend: AUG-CC-PVTZ
  Basis Set: (AUG-CC-PVTZ AUX)
    Blend: AUG-CC-PVTZ-JKFIT

    Orbital Energies [Eh]
    ---------------------

    Doubly Occupied:

       1A    -15.699117     2A    -15.665755     3A    -15.639722
       4A    -15.618238     5A    -11.306909     6A     -1.531192
       7A     -1.309439     8A     -1.165844     9A     -0.924146
      10A     -0.892197    11A     -0.792824    12A     -0.696890
      13A     -0.650654    14A     -0.593595    15A     -0.513595
      16A     -0.480020    17A     -0.455778    18A     -0.403389

  @DF-RHF Final Energy:  -256.83614169400926

   => Energetics <=

    Nuclear Repulsion Energy =            169.3722846169593481
    One-Electron Energy =                -683.7382436074660745
    Two-Electron Energy =                 257.5298172964974128
    Total Energy =                       -256.8361416940092568
  Basis Set: (AUG-CC-PVTZ AUX)
    Blend: AUG-CC-PVTZ-RI
    Molecular point group: c1

    Geometry (in Angstrom), charge = 0, multiplicity = 1:

       Center              X                  Y                   Z               Mass
    ------------   -----------------  -----------------  -----------------  -----------------
         N           -1.017132038834    -0.309052510012     0.000053633151    14.003074004430
         N           -0.023242038834    -1.189120510012     0.000052633151    14.003074004430
         N           -0.523036438834     0.936176889988    -0.000018066849    14.003074004430
         N            0.677812961166     0.954291489988    -0.000070366849    14.003074004430
         C            1.028597961166    -0.349635510012    -0.000025366849    12.000000000000
         H           -1.993309038834    -0.590741510012     0.000105633151     1.007825032230
         H            2.050771961166    -0.696897510012    -0.000051366849     1.007825032230

  Basis Set: AUG-CC-PVTZ
    Blend: AUG-CC-PVTZ
  Basis Set: (AUG-CC-PVTZ AUX)
    Blend: AUG-CC-PVTZ-JKFIT
	 Reference Energy          =    -256.8361416940092568 [Eh]
	 Singles Energy            =      -0.0000000000000000 [Eh]
	 Same-Spin Energy          =      -0.2738745890218213 [Eh]
	 Opposite-Spin Energy      =      -0.7846304152749437 [Eh]
	 Correlation Energy        =      -1.0585050042967650 [Eh]
	 Total Energy              =    -257.8946466983060191 [Eh]

	 ================> DF-SCS-MP2 Energies <==================
	-----------------------------------------------------------
	 SCS Same-Spin Scale       =       0.3333333333333333 [-]
	 SCS Opposite-Spin Scale   =       1.2000000000000000 [-]
	 SCS Same-Spin Energy      =      -0.0912915296739404 [Eh]
	 SCS Opposite-Spin Energy  =      -0.9415564983299324 [Eh]
	 SCS Correlation Energy    =      -1.0328480280038728 [Eh]
	 SCS Total Energy          =    -257.8689897220131115 [Eh]
	-----------------------------------------------------------

  Dipole Moment: [D]
     X:    -1.2687      Y:    -1.7403      Z:     0.0001     Total:     2.1537

*** Psi4 exiting successfully. Buy a developer a beer!
