                               Psi4 1.3.2 release

  ==> Input File <==

--------------------------------------------------------------------------
#psi4
#
memory 32 gb

molecule  {
0 1
  N       -0.8946892    -0.2009393     0.0000438
  N        0.0017640    -1.1800760     0.0000510
  N       -0.6308990     0.9900470    -0.0000160
  N        0.7028190     0.9633360    -0.0000720
  C        1.0536040    -0.3405910    -0.0000270
  H       -1.9683030    -0.5816970     0.0001040
  H        2.0757780    -0.6878530    -0.0000530
units angstrom
no_reorient  #important for SAPT in psi4, default
symmetry c1  #important for SAPT in psi4, default
}

set PROPERTIES_ORIGIN ["COM"]
properties('MP2/aug-cc-pvtz', properties = ['dipole'])
--------------------------------------------------------------------------

    Molecular point group: c1
  Charge       = 0
  Multiplicity = 1
  Basis Set: AUG-CC-PVTZ
    Blend: AUG-CC-PVTZ
  Basis Set: (AUG-CC-PVTZ AUX)
    Blend: AUG-CC-PVTZ-JKFIT

    Orbital Energies [Eh]
    ---------------------

    Doubly Occupied:

       1A    -15.731115     2A    -15.678546     3A    -15.635317
       4A    -15.605496     5A    -11.313422     6A     -1.549202
       7A     -1.269476     8A     -1.201431     9A     -0.902530
      10A     -0.886039    11A     -0.780234    12A     -0.712212
      13A     -0.623189    14A     -0.568548    15A     -0.532056
      16A     -0.474269    17A     -0.438038    18A     -0.431790

  @DF-RHF Final Energy:  -256.81746618313963

   => Energetics <=

    Nuclear Repulsion Energy =            169.0414888960009421
    One-Electron Energy =                -683.0520866042327270
    Two-Electron Energy =                 257.1931315250921557
    Total Energy =                       -256.8174661831396293
  Basis Set: (AUG-CC-PVTZ AUX)
    Blend: AUG-CC-PVTZ-RI
    Molecular point group: c1

    Geometry (in Angstrom), charge = 0, multiplicity = 1:

       Center              X                  Y                   Z               Mass
    ------------   -----------------  -----------------  -----------------  -----------------
         N           -0.912610151448    -0.238757501723     0.000046332989    14.003074004430
         N           -0.016156951448    -1.217894201723     0.000053532989    14.003074004430
         N           -0.648819951448     0.952228798277    -0.000013467011    14.003074004430
         N            0.684898048552     0.925517798277    -0.000069467011    14.003074004430
         C            1.035683048552    -0.378409201723    -0.000024467011    12.000000000000
         H           -1.986223951448    -0.619515201723     0.000106532989     1.007825032230
         H            2.057857048552    -0.725671201723    -0.000050467011     1.007825032230

  Basis Set: AUG-CC-PVTZ
    Blend: AUG-CC-PVTZ
  Basis Set: (AUG-CC-PVTZ AUX)
    Blend: AUG-CC-PVTZ-JKFIT
	 Reference Energy          =    -256.8174661831396293 [Eh]
	 Singles Energy            =      -0.0000000000000000 [Eh]
	 Same-Spin Energy          =      -0.2769449653215862 [Eh]
	 Opposite-Spin Energy      =      -0.7905294780700841 [Eh]
	 Correlation Energy        =      -1.0674744433916703 [Eh]
	 Total Energy              =    -257.8849406265313178 [Eh]

	 ================> DF-SCS-MP2 Energies <==================
	-----------------------------------------------------------
	 SCS Same-Spin Scale       =       0.3333333333333333 [-]
	 SCS Opposite-Spin Scale   =       1.2000000000000000 [-]
	 SCS Same-Spin Energy      =      -0.0923149884405287 [Eh]
	 SCS Opposite-Spin Energy  =      -0.9486353736841009 [Eh]
	 SCS Correlation Energy    =      -1.0409503621246297 [Eh]
	 SCS Total Energy          =    -257.8584165452642765 [Eh]
	-----------------------------------------------------------

  Dipole Moment: [D]
     X:    -1.3956      Y:    -2.0176      Z:     0.0001     Total:     2.4532

*** Psi4 exiting successfully. Buy a developer a beer!
