                               Psi4 1.3.2 release

  ==> Input File <==

--------------------------------------------------------------------------
#psi4
#
memory 32 gb

molecule  {
0 1
  N       -0.9921260    -0.3000080     0.0000520
  N        0.0017640    -1.1800760     0.0000510
  N       -0.6084395     0.9835462    -0.0000167
  N        0.7028190     0.9633360    -0.0000720
  C        1.0536040    -0.3405910    -0.0000270
  H       -1.9683030    -0.5816970     0.0001040
  H        2.0757780    -0.6878530    -0.0000530
units angstrom
no_reorient  #important for SAPT in psi4, default
symmetry c1  #important for SAPT in psi4, default
}

set PROPERTIES_ORIGIN ["COM"]
properties('MP2/aug-cc-pvtz', properties = ['dipole'])
--------------------------------------------------------------------------

    Molecular point group: c1
  Charge       = 0
  Multiplicity = 1
  Basis Set: AUG-CC-PVTZ
    Blend: AUG-CC-PVTZ
  Basis Set: (AUG-CC-PVTZ AUX)
    Blend: AUG-CC-PVTZ-JKFIT

    Orbital Energies [Eh]
    ---------------------

    Doubly Occupied:

       1A    -15.713940     2A    -15.681930     3A    -15.642072
       4A    -15.622422     5A    -11.312206     6A     -1.502637
       7A     -1.272257     8A     -1.180002     9A     -0.926696
      10A     -0.879174    11A     -0.782818    12A     -0.684156
      13A     -0.650123    14A     -0.579478    15A     -0.509181
      16A     -0.483740    17A     -0.455479    18A     -0.412526

  @DF-RHF Final Energy:  -256.84499512093339

   => Energetics <=

    Nuclear Repulsion Energy =            166.6372147632031613
    One-Electron Energy =                -678.3827437156882070
    Two-Electron Energy =                 254.9005338315516553
    Total Energy =                       -256.8449951209333904
  Basis Set: (AUG-CC-PVTZ AUX)
    Blend: AUG-CC-PVTZ-RI
    Molecular point group: c1

    Geometry (in Angstrom), charge = 0, multiplicity = 1:

       Center              X                  Y                   Z               Mass
    ------------   -----------------  -----------------  -----------------  -----------------
         N           -0.995054184427    -0.316716093490     0.000053033258    14.003074004430
         N           -0.001164184427    -1.196784093490     0.000052033258    14.003074004430
         N           -0.611367684427     0.966838106510    -0.000015666742    14.003074004430
         N            0.699890815573     0.946627906510    -0.000070966742    14.003074004430
         C            1.050675815573    -0.357299093490    -0.000025966742    12.000000000000
         H           -1.971231184427    -0.598405093490     0.000105033258     1.007825032230
         H            2.072849815573    -0.704561093490    -0.000051966742     1.007825032230

  Basis Set: AUG-CC-PVTZ
    Blend: AUG-CC-PVTZ
  Basis Set: (AUG-CC-PVTZ AUX)
    Blend: AUG-CC-PVTZ-JKFIT
	 Reference Energy          =    -256.8449951209333904 [Eh]
	 Singles Energy            =      -0.0000000000000000 [Eh]
	 Same-Spin Energy          =      -0.2771794896207569 [Eh]
	 Opposite-Spin Energy      =      -0.7920006992260177 [Eh]
	 Correlation Energy        =      -1.0691801888467747 [Eh]
	 Total Energy              =    -257.9141753097801484 [Eh]

	 ================> DF-SCS-MP2 Energies <==================
	-----------------------------------------------------------
	 SCS Same-Spin Scale       =       0.3333333333333333 [-]
	 SCS Opposite-Spin Scale   =       1.2000000000000000 [-]
	 SCS Same-Spin Energy      =      -0.0923931632069190 [Eh]
	 SCS Opposite-Spin Energy  =      -0.9504008390712212 [Eh]
	 SCS Correlation Energy    =      -1.0427940022781401 [Eh]
	 SCS Total Energy          =    -257.8877891232115189 [Eh]
	-----------------------------------------------------------

  Dipole Moment: [D]
     X:    -1.2456      Y:    -1.9850      Z:     0.0001     Total:     2.3435

*** Psi4 exiting successfully. Buy a developer a beer!
