                               Psi4 1.4a3.dev225

  ==> Input File <==

--------------------------------------------------------------------------
#psi4
#
memory 32 gb

molecule  {
0 1
  N       -0.9921260    -0.3000080     0.0000520
  N        0.0017640    -1.1800760     0.0000510
  N       -0.6362918     0.9707878    -0.0000150
  N        0.7028190     0.9633360    -0.0000720
  C        1.0536040    -0.3405910    -0.0000270
  H       -1.9683030    -0.5816970     0.0001040
  H        2.0757780    -0.6878530    -0.0000530
units angstrom
no_reorient  #important for SAPT in psi4, default
symmetry c1  #important for SAPT in psi4, default
}

set PROPERTIES_ORIGIN ["COM"]
properties('MP2/aug-cc-pvtz', properties = ['dipole'])
--------------------------------------------------------------------------

    Molecular point group: c1
  Charge       = 0
  Multiplicity = 1
  Basis Set: AUG-CC-PVTZ
    Blend: AUG-CC-PVTZ
  Basis Set: (AUG-CC-PVTZ AUX)
    Blend: AUG-CC-PVTZ-JKFIT

    Orbital Energies [Eh]
    ---------------------

    Doubly Occupied:

       1A    -15.719078     2A    -15.682701     3A    -15.639571
       4A    -15.621746     5A    -11.313559     6A     -1.504129
       7A     -1.262306     8A     -1.188222     9A     -0.927802
      10A     -0.879586    11A     -0.780894    12A     -0.685765
      13A     -0.650386    14A     -0.575803    15A     -0.509088
      16A     -0.485963    17A     -0.448722    18A     -0.416895

  @DF-RHF Final Energy:  -256.84423087855134

   => Energetics <=

    Nuclear Repulsion Energy =            166.4940814531145747
    One-Electron Energy =                -678.0921936366595446
    Two-Electron Energy =                 254.7538813049935982
    Total Energy =                       -256.8442308785513433
  Basis Set: (AUG-CC-PVTZ AUX)
    Blend: AUG-CC-PVTZ-RI
    Molecular point group: c1

    Geometry (in Angstrom), charge = 0, multiplicity = 1:

       Center              X                  Y                   Z               Mass
    ------------   -----------------  -----------------  -----------------  -----------------
         N           -0.989484724805    -0.314164871737     0.000052693319    14.003074004430
         N            0.004405275195    -1.194232871737     0.000051693319    14.003074004430
         N           -0.633650524805     0.956630928263    -0.000014306681    14.003074004430
         N            0.705460275195     0.949179128263    -0.000071306681    14.003074004430
         C            1.056245275195    -0.354747871737    -0.000026306681    12.000000000000
         H           -1.965661724805    -0.595853871737     0.000104693319     1.007825032230
         H            2.078419275195    -0.702009871737    -0.000052306681     1.007825032230

  Basis Set: AUG-CC-PVTZ
    Blend: AUG-CC-PVTZ
  Basis Set: (AUG-CC-PVTZ AUX)
    Blend: AUG-CC-PVTZ-JKFIT
	 Reference Energy          =    -256.8442308785513433 [Eh]
	 Singles Energy            =      -0.0000000000000000 [Eh]
	 Same-Spin Energy          =      -0.2774386014121716 [Eh]
	 Opposite-Spin Energy      =      -0.7926086609558300 [Eh]
	 Correlation Energy        =      -1.0700472623680017 [Eh]
	 Total Energy              =    -257.9142781409193503 [Eh]

	 ================> DF-SCS-MP2 Energies <==================
	-----------------------------------------------------------
	 SCS Same-Spin Scale       =       0.3333333333333333 [-]
	 SCS Opposite-Spin Scale   =       1.2000000000000000 [-]
	 SCS Same-Spin Energy      =      -0.0924795338040572 [Eh]
	 SCS Opposite-Spin Energy  =      -0.9511303931469960 [Eh]
	 SCS Correlation Energy    =      -1.0436099269510533 [Eh]
	 SCS Total Energy          =    -257.8878408055023783 [Eh]
	-----------------------------------------------------------

  Dipole Moment: [D]
     X:    -1.2617      Y:    -2.0291      Z:     0.0001     Total:     2.3893

*** Psi4 exiting successfully. Buy a developer a beer!
