                               Psi4 1.3.2 release

  ==> Input File <==

--------------------------------------------------------------------------
#psi4
#
memory 32 gb

molecule  {
0 1
  N       -0.9921260    -0.3000080     0.0000520
  N        0.0017640    -1.1800760     0.0000510
  N       -0.6308990     0.9900470    -0.0000160
  N        0.6028390     0.9653383    -0.0000678
  C        1.0536040    -0.3405910    -0.0000270
  H       -1.9683030    -0.5816970     0.0001040
  H        2.0757780    -0.6878530    -0.0000530
units angstrom
no_reorient  #important for SAPT in psi4, default
symmetry c1  #important for SAPT in psi4, default
}

set PROPERTIES_ORIGIN ["COM"]
properties('MP2/aug-cc-pvtz', properties = ['dipole'])
--------------------------------------------------------------------------

    Molecular point group: c1
  Charge       = 0
  Multiplicity = 1
  Basis Set: AUG-CC-PVTZ
    Blend: AUG-CC-PVTZ
  Basis Set: (AUG-CC-PVTZ AUX)
    Blend: AUG-CC-PVTZ-JKFIT

    Orbital Energies [Eh]
    ---------------------

    Doubly Occupied:

       1A    -15.698482     2A    -15.676264     3A    -15.646558
       4A    -15.615655     5A    -11.313839     6A     -1.518561
       7A     -1.291598     8A     -1.171278     9A     -0.911995
      10A     -0.886518    11A     -0.790860    12A     -0.690070
      13A     -0.649372    14A     -0.593169    15A     -0.518376
      16A     -0.467316    17A     -0.460680    18A     -0.406724

  @DF-RHF Final Energy:  -256.84301785505824

   => Energetics <=

    Nuclear Repulsion Energy =            167.9289935532173388
    One-Electron Energy =                -680.9293956803751371
    Two-Electron Energy =                 256.1573842720995913
    Total Energy =                       -256.8430178550582355
  Basis Set: (AUG-CC-PVTZ AUX)
    Blend: AUG-CC-PVTZ-RI
    Molecular point group: c1

    Geometry (in Angstrom), charge = 0, multiplicity = 1:

       Center              X                  Y                   Z               Mass
    ------------   -----------------  -----------------  -----------------  -----------------
         N           -0.970570682118    -0.318416408082     0.000052053434    14.003074004430
         N            0.023319317882    -1.198484408082     0.000051053434    14.003074004430
         N           -0.609343682118     0.971638591918    -0.000015946566    14.003074004430
         N            0.624394317882     0.946929891918    -0.000067746566    14.003074004430
         C            1.075159317882    -0.358999408082    -0.000026946566    12.000000000000
         H           -1.946747682118    -0.600105408082     0.000104053434     1.007825032230
         H            2.097333317882    -0.706261408082    -0.000052946566     1.007825032230

  Basis Set: AUG-CC-PVTZ
    Blend: AUG-CC-PVTZ
  Basis Set: (AUG-CC-PVTZ AUX)
    Blend: AUG-CC-PVTZ-JKFIT
	 Reference Energy          =    -256.8430178550582355 [Eh]
	 Singles Energy            =      -0.0000000000000000 [Eh]
	 Same-Spin Energy          =      -0.2751870950051268 [Eh]
	 Opposite-Spin Energy      =      -0.7876685811690232 [Eh]
	 Correlation Energy        =      -1.0628556761741499 [Eh]
	 Total Energy              =    -257.9058735312323734 [Eh]

	 ================> DF-SCS-MP2 Energies <==================
	-----------------------------------------------------------
	 SCS Same-Spin Scale       =       0.3333333333333333 [-]
	 SCS Opposite-Spin Scale   =       1.2000000000000000 [-]
	 SCS Same-Spin Energy      =      -0.0917290316683756 [Eh]
	 SCS Opposite-Spin Energy  =      -0.9452022974028278 [Eh]
	 SCS Correlation Energy    =      -1.0369313290712034 [Eh]
	 SCS Total Energy          =    -257.8799491841294298 [Eh]
	-----------------------------------------------------------

  Dipole Moment: [D]
     X:    -1.0586      Y:    -1.8831      Z:     0.0001     Total:     2.1603

*** Psi4 exiting successfully. Buy a developer a beer!
