                               Psi4 1.3.2 release

  ==> Input File <==

--------------------------------------------------------------------------
#psi4
#
memory 32 gb

molecule  {
0 1
  N       -0.9921260    -0.3000080     0.0000520
  N        0.0628857    -1.2514037     0.0000519
  N       -0.6308990     0.9900470    -0.0000160
  N        0.7028190     0.9633360    -0.0000720
  C        1.0536040    -0.3405910    -0.0000270
  H       -1.9683030    -0.5816970     0.0001040
  H        2.0757780    -0.6878530    -0.0000530
units angstrom
no_reorient  #important for SAPT in psi4, default
symmetry c1  #important for SAPT in psi4, default
}

set PROPERTIES_ORIGIN ["COM"]
properties('MP2/aug-cc-pvtz', properties = ['dipole'])
--------------------------------------------------------------------------

    Molecular point group: c1
  Charge       = 0
  Multiplicity = 1
  Basis Set: AUG-CC-PVTZ
    Blend: AUG-CC-PVTZ
  Basis Set: (AUG-CC-PVTZ AUX)
    Blend: AUG-CC-PVTZ-JKFIT

    Orbital Energies [Eh]
    ---------------------

    Doubly Occupied:

       1A    -15.711677     2A    -15.699805     3A    -15.650513
       4A    -15.622831     5A    -11.319311     6A     -1.479885
       7A     -1.246856     8A     -1.186693     9A     -0.928466
      10A     -0.862133    11A     -0.776853    12A     -0.669650
      13A     -0.629515    14A     -0.585398    15A     -0.518544
      16A     -0.487616    17A     -0.441936    18A     -0.425301

  @DF-RHF Final Energy:  -256.82884105153283

   => Energetics <=

    Nuclear Repulsion Energy =            164.1507418002539680
    One-Electron Energy =                -673.4731994597043467
    Two-Electron Energy =                 252.4936166079175450
    Total Energy =                       -256.8288410515328337
  Basis Set: (AUG-CC-PVTZ AUX)
    Blend: AUG-CC-PVTZ-RI
    Molecular point group: c1

    Geometry (in Angstrom), charge = 0, multiplicity = 1:

       Center              X                  Y                   Z               Mass
    ------------   -----------------  -----------------  -----------------  -----------------
         N           -1.002785235787    -0.303753041895     0.000052713316    14.003074004430
         N            0.052226464213    -1.255148741895     0.000052613316    14.003074004430
         N           -0.641558235787     0.986301958105    -0.000015286684    14.003074004430
         N            0.692159764213     0.959590958105    -0.000071286684    14.003074004430
         C            1.042944764213    -0.344336041895    -0.000026286684    12.000000000000
         H           -1.978962235787    -0.585442041895     0.000104713316     1.007825032230
         H            2.065118764213    -0.691598041895    -0.000052286684     1.007825032230

  Basis Set: AUG-CC-PVTZ
    Blend: AUG-CC-PVTZ
  Basis Set: (AUG-CC-PVTZ AUX)
    Blend: AUG-CC-PVTZ-JKFIT
	 Reference Energy          =    -256.8288410515328337 [Eh]
	 Singles Energy            =      -0.0000000000000000 [Eh]
	 Same-Spin Energy          =      -0.2785803816150510 [Eh]
	 Opposite-Spin Energy      =      -0.7976385348342303 [Eh]
	 Correlation Energy        =      -1.0762189164492812 [Eh]
	 Total Energy              =    -257.9050599679821403 [Eh]

	 ================> DF-SCS-MP2 Energies <==================
	-----------------------------------------------------------
	 SCS Same-Spin Scale       =       0.3333333333333333 [-]
	 SCS Opposite-Spin Scale   =       1.2000000000000000 [-]
	 SCS Same-Spin Energy      =      -0.0928601272050170 [Eh]
	 SCS Opposite-Spin Energy  =      -0.9571662418010763 [Eh]
	 SCS Correlation Energy    =      -1.0500263690060934 [Eh]
	 SCS Total Energy          =    -257.8788674205389384 [Eh]
	-----------------------------------------------------------

  Dipole Moment: [D]
     X:    -1.2224      Y:    -1.9192      Z:     0.0001     Total:     2.2754

*** Psi4 exiting successfully. Buy a developer a beer!
