                               Psi4 1.3.2 release

  ==> Input File <==

--------------------------------------------------------------------------
#psi4
#
memory 32 gb

molecule  {
0 1
  N       -0.9921260    -0.3000080     0.0000520
  N        0.0165752    -1.1983053     0.0000512
  N       -0.6308990     0.9900470    -0.0000160
  N        0.7028190     0.9633360    -0.0000720
  C        1.0536040    -0.3405910    -0.0000270
  H       -1.9683030    -0.5816970     0.0001040
  H        2.0757780    -0.6878530    -0.0000530
units angstrom
no_reorient  #important for SAPT in psi4, default
symmetry c1  #important for SAPT in psi4, default
}

set PROPERTIES_ORIGIN ["COM"]
properties('MP2/aug-cc-pvtz', properties = ['dipole'])
--------------------------------------------------------------------------

    Molecular point group: c1
  Charge       = 0
  Multiplicity = 1
  Basis Set: AUG-CC-PVTZ
    Blend: AUG-CC-PVTZ
  Basis Set: (AUG-CC-PVTZ AUX)
    Blend: AUG-CC-PVTZ-JKFIT

    Orbital Energies [Eh]
    ---------------------

    Doubly Occupied:

       1A    -15.715774     2A    -15.688780     3A    -15.644464
       4A    -15.623020     5A    -11.314769     6A     -1.493101
       7A     -1.260485     8A     -1.183694     9A     -0.927422
      10A     -0.873193    11A     -0.779215    12A     -0.678788
      13A     -0.645321    14A     -0.578954    15A     -0.512999
      16A     -0.486143    17A     -0.448717    18A     -0.417067

  @DF-RHF Final Energy:  -256.84030649276764

   => Energetics <=

    Nuclear Repulsion Energy =            165.6162689622030371
    One-Electron Energy =                -676.3693434291570838
    Two-Electron Energy =                 253.9127679741864085
    Total Energy =                       -256.8403064927676382
  Basis Set: (AUG-CC-PVTZ AUX)
    Blend: AUG-CC-PVTZ-RI
    Molecular point group: c1

    Geometry (in Angstrom), charge = 0, multiplicity = 1:

       Center              X                  Y                   Z               Mass
    ------------   -----------------  -----------------  -----------------  -----------------
         N           -0.993524799133    -0.314370814746     0.000052853291    14.003074004430
         N            0.015176400867    -1.212668114746     0.000052053291    14.003074004430
         N           -0.632297799133     0.975684185254    -0.000015146709    14.003074004430
         N            0.701420200867     0.948973185254    -0.000071146709    14.003074004430
         C            1.052205200867    -0.354953814746    -0.000026146709    12.000000000000
         H           -1.969701799133    -0.596059814746     0.000104853291     1.007825032230
         H            2.074379200867    -0.702215814746    -0.000052146709     1.007825032230

  Basis Set: AUG-CC-PVTZ
    Blend: AUG-CC-PVTZ
  Basis Set: (AUG-CC-PVTZ AUX)
    Blend: AUG-CC-PVTZ-JKFIT
	 Reference Energy          =    -256.8403064927676382 [Eh]
	 Singles Energy            =      -0.0000000000000000 [Eh]
	 Same-Spin Energy          =      -0.2780731929492251 [Eh]
	 Opposite-Spin Energy      =      -0.7946933904548668 [Eh]
	 Correlation Energy        =      -1.0727665834040918 [Eh]
	 Total Energy              =    -257.9130730761717132 [Eh]

	 ================> DF-SCS-MP2 Energies <==================
	-----------------------------------------------------------
	 SCS Same-Spin Scale       =       0.3333333333333333 [-]
	 SCS Opposite-Spin Scale   =       1.2000000000000000 [-]
	 SCS Same-Spin Energy      =      -0.0926910643164084 [Eh]
	 SCS Opposite-Spin Energy  =      -0.9536320685458400 [Eh]
	 SCS Correlation Energy    =      -1.0463231328622484 [Eh]
	 SCS Total Energy          =    -257.8866296256298938 [Eh]
	-----------------------------------------------------------

  Dipole Moment: [D]
     X:    -1.2327      Y:    -1.9937      Z:     0.0001     Total:     2.3440

*** Psi4 exiting successfully. Buy a developer a beer!
