                               Psi4 1.3.2 release

  ==> Input File <==

--------------------------------------------------------------------------
#psi4
#
memory 32 gb

molecule  {
0 1
  N       -0.9921260    -0.3000080     0.0000520
  N        0.0017640    -1.1800760     0.0000510
  N       -0.6308990     0.9900470    -0.0000160
  N        0.9027789     0.9593313    -0.0000804
  C        1.0536040    -0.3405910    -0.0000270
  H       -1.9683030    -0.5816970     0.0001040
  H        2.0757780    -0.6878530    -0.0000530
units angstrom
no_reorient  #important for SAPT in psi4, default
symmetry c1  #important for SAPT in psi4, default
}

set PROPERTIES_ORIGIN ["COM"]
properties('MP2/aug-cc-pvtz', properties = ['dipole'])
--------------------------------------------------------------------------

    Molecular point group: c1
  Charge       = 0
  Multiplicity = 1
  Basis Set: AUG-CC-PVTZ
    Blend: AUG-CC-PVTZ
  Basis Set: (AUG-CC-PVTZ AUX)
    Blend: AUG-CC-PVTZ-JKFIT

    Orbital Energies [Eh]
    ---------------------

    Doubly Occupied:

       1A    -15.746226     2A    -15.693095     3A    -15.635812
       4A    -15.633837     5A    -11.314282     6A     -1.479955
       7A     -1.231127     8A     -1.196224     9A     -0.955703
      10A     -0.857001    11A     -0.754654    12A     -0.674096
      13A     -0.649964    14A     -0.551030    15A     -0.531453
      16A     -0.481748    17A     -0.453437    18A     -0.405950

  @DF-RHF Final Energy:  -256.79917896302436

   => Energetics <=

    Nuclear Repulsion Energy =            162.9692204007899932
    One-Electron Energy =                -671.0456127700153957
    Two-Electron Energy =                 251.2772134062010139
    Total Energy =                       -256.7991789630243602
  Basis Set: (AUG-CC-PVTZ AUX)
    Blend: AUG-CC-PVTZ-RI
    Molecular point group: c1

    Geometry (in Angstrom), charge = 0, multiplicity = 1:

       Center              X                  Y                   Z               Mass
    ------------   -----------------  -----------------  -----------------  -----------------
         N           -1.030547889099    -0.317215223837     0.000054572982    14.003074004430
         N           -0.036657889099    -1.197283223837     0.000053572982    14.003074004430
         N           -0.669320889099     0.972839776163    -0.000013427018    14.003074004430
         N            0.864357010901     0.942124076163    -0.000077827018    14.003074004430
         C            1.015182110901    -0.357798223837    -0.000024427018    12.000000000000
         H           -2.006724889099    -0.598904223837     0.000106572982     1.007825032230
         H            2.037356110901    -0.705060223837    -0.000050427018     1.007825032230

  Basis Set: AUG-CC-PVTZ
    Blend: AUG-CC-PVTZ
  Basis Set: (AUG-CC-PVTZ AUX)
    Blend: AUG-CC-PVTZ-JKFIT
	 Reference Energy          =    -256.7991789630243602 [Eh]
	 Singles Energy            =      -0.0000000000000000 [Eh]
	 Same-Spin Energy          =      -0.2820533046248160 [Eh]
	 Opposite-Spin Energy      =      -0.8063619851678376 [Eh]
	 Correlation Energy        =      -1.0884152897926538 [Eh]
	 Total Energy              =    -257.8875942528169958 [Eh]

	 ================> DF-SCS-MP2 Energies <==================
	-----------------------------------------------------------
	 SCS Same-Spin Scale       =       0.3333333333333333 [-]
	 SCS Opposite-Spin Scale   =       1.2000000000000000 [-]
	 SCS Same-Spin Energy      =      -0.0940177682082720 [Eh]
	 SCS Opposite-Spin Energy  =      -0.9676343822014051 [Eh]
	 SCS Correlation Energy    =      -1.0616521504096772 [Eh]
	 SCS Total Energy          =    -257.8608311134340170 [Eh]
	-----------------------------------------------------------

  Dipole Moment: [D]
     X:    -1.5090      Y:    -2.1616      Z:     0.0002     Total:     2.6362

*** Psi4 exiting successfully. Buy a developer a beer!
