                               Psi4 1.3.2 release

  ==> Input File <==

--------------------------------------------------------------------------
#psi4
#
memory 32 gb

molecule  {
0 1
  N       -0.9921260    -0.3000080     0.0000520
  N        0.0017640    -1.1800760     0.0000510
  N       -0.6308990     0.9900470    -0.0000160
  N        0.7028190     0.9633360    -0.0000720
  C        0.8972863    -0.4653499    -0.0000154
  H       -1.9683030    -0.5816970     0.0001040
  H        2.0757780    -0.6878530    -0.0000530
units angstrom
no_reorient  #important for SAPT in psi4, default
symmetry c1  #important for SAPT in psi4, default
}

set PROPERTIES_ORIGIN ["COM"]
properties('MP2/aug-cc-pvtz', properties = ['dipole'])
--------------------------------------------------------------------------

    Molecular point group: c1
  Charge       = 0
  Multiplicity = 1
  Basis Set: AUG-CC-PVTZ
    Blend: AUG-CC-PVTZ
  Basis Set: (AUG-CC-PVTZ AUX)
    Blend: AUG-CC-PVTZ-JKFIT

    Orbital Energies [Eh]
    ---------------------

    Doubly Occupied:

       1A    -15.698367     2A    -15.697487     3A    -15.626842
       4A    -15.624299     5A    -11.304290     6A     -1.523502
       7A     -1.298417     8A     -1.190873     9A     -0.931504
      10A     -0.856221    11A     -0.793153    12A     -0.701331
      13A     -0.638668    14A     -0.547419    15A     -0.527057
      16A     -0.479454    17A     -0.473859    18A     -0.424780

  @DF-RHF Final Energy:  -256.78786255527012

   => Energetics <=

    Nuclear Repulsion Energy =            168.7717372358871444
    One-Electron Energy =                -682.4441562399230179
    Two-Electron Energy =                 256.8845564487657498
    Total Energy =                       -256.7878625552701237
  Basis Set: (AUG-CC-PVTZ AUX)
    Blend: AUG-CC-PVTZ-RI
    Molecular point group: c1

    Geometry (in Angstrom), charge = 0, multiplicity = 1:

       Center              X                  Y                   Z               Mass
    ------------   -----------------  -----------------  -----------------  -----------------
         N           -0.963776465128    -0.296637315014     0.000050905506    14.003074004430
         N            0.030113534872    -1.176705315014     0.000049905506    14.003074004430
         N           -0.602549465128     0.993417684986    -0.000017094494    14.003074004430
         N            0.731168534872     0.966706684986    -0.000073094494    14.003074004430
         C            0.925635834872    -0.461979215014    -0.000016494494    12.000000000000
         H           -1.939953465128    -0.578326315014     0.000102905506     1.007825032230
         H            2.104127534872    -0.684482315014    -0.000054094494     1.007825032230

  Basis Set: AUG-CC-PVTZ
    Blend: AUG-CC-PVTZ
  Basis Set: (AUG-CC-PVTZ AUX)
    Blend: AUG-CC-PVTZ-JKFIT
	 Reference Energy          =    -256.7878625552701237 [Eh]
	 Singles Energy            =      -0.0000000000000000 [Eh]
	 Same-Spin Energy          =      -0.2742509180896692 [Eh]
	 Opposite-Spin Energy      =      -0.7883736541886626 [Eh]
	 Correlation Energy        =      -1.0626245722783318 [Eh]
	 Total Energy              =    -257.8504871275484334 [Eh]

	 ================> DF-SCS-MP2 Energies <==================
	-----------------------------------------------------------
	 SCS Same-Spin Scale       =       0.3333333333333333 [-]
	 SCS Opposite-Spin Scale   =       1.2000000000000000 [-]
	 SCS Same-Spin Energy      =      -0.0914169726965564 [Eh]
	 SCS Opposite-Spin Energy  =      -0.9460483850263950 [Eh]
	 SCS Correlation Energy    =      -1.0374653577229513 [Eh]
	 SCS Total Energy          =    -257.8253279129930888 [Eh]
	-----------------------------------------------------------

  Dipole Moment: [D]
     X:    -1.3730      Y:    -2.1073      Z:     0.0001     Total:     2.5151

*** Psi4 exiting successfully. Buy a developer a beer!
