                               Psi4 1.3.2 release

  ==> Input File <==

--------------------------------------------------------------------------
#psi4
#
memory 32 gb

molecule  {
0 1
  S        1.4017960     0.0318670    -0.2267910
  C        0.3439980    -1.2907520     0.4304430
  C       -1.0366050    -1.1980160    -0.1526860
  C       -1.6877140    -0.0149620    -0.1717330
  C       -0.9858231     1.2050948     0.1875141
  C        0.3208110     1.3651600     0.1119950
  H        0.3192380    -1.2040060     1.5241050
  H        0.8310050    -2.2339400     0.1718380
  H       -1.5205060    -2.1086570    -0.4970330
  H       -2.7141090     0.0333350    -0.5285000
  H       -1.6282610     2.1139460     0.3806850
  H        0.8050420     2.3317560     0.2174670
units angstrom
no_reorient  #important for SAPT in psi4, default
symmetry c1  #important for SAPT in psi4, default
}

set PROPERTIES_ORIGIN ["COM"]
properties('MP2/aug-cc-pvtz', properties = ['dipole'])
--------------------------------------------------------------------------

    Molecular point group: c1
  Charge       = 0
  Multiplicity = 1
  Basis Set: AUG-CC-PVTZ
    Blend: AUG-CC-PVTZ
  Basis Set: (AUG-CC-PVTZ AUX)
    Blend: AUG-CC-PVTZ-JKFIT

    Orbital Energies [Eh]
    ---------------------

    Doubly Occupied:

       1A    -91.959794     2A    -11.267694     3A    -11.262945
       4A    -11.244052     5A    -11.240043     6A    -11.239183
       7A     -8.960487     8A     -6.641725     9A     -6.640806
      10A     -6.639910    11A     -1.145844    12A     -1.031371
      13A     -1.017907    14A     -0.859543    15A     -0.816612
      16A     -0.697118    17A     -0.674243    18A     -0.612711
      19A     -0.596587    20A     -0.583813    21A     -0.537498
      22A     -0.479313    23A     -0.462817    24A     -0.452440
      25A     -0.363467    26A     -0.301597

  @DF-RHF Final Energy:  -590.40384014110805

   => Energetics <=

    Nuclear Repulsion Energy =            273.0250667983440849
    One-Electron Energy =               -1351.3987702956876547
    Two-Electron Energy =                 487.9698633562354075
    Total Energy =                       -590.4038401411080486
  Basis Set: (AUG-CC-PVTZ AUX)
    Blend: AUG-CC-PVTZ-RI
    Molecular point group: c1

    Geometry (in Angstrom), charge = 0, multiplicity = 1:

       Center              X                  Y                   Z               Mass
    ------------   -----------------  -----------------  -----------------  -----------------
         S            1.357558093949     0.024304877430    -0.215506534600    31.972071174400
         C            0.299760093949    -1.298314122570     0.441727465400    12.000000000000
         C           -1.080842906051    -1.205578122570    -0.141401534600    12.000000000000
         C           -1.731951906051    -0.022524122570    -0.160448534600    12.000000000000
         C           -1.030061006051     1.197532677430     0.198798565400    12.000000000000
         C            0.276573093949     1.357597877430     0.123279465400    12.000000000000
         H            0.275000093949    -1.211568122570     1.535389465400     1.007825032230
         H            0.786767093949    -2.241502122570     0.183122465400     1.007825032230
         H           -1.564743906051    -2.116219122570    -0.485748534600     1.007825032230
         H           -2.758346906051     0.025772877430    -0.517215534600     1.007825032230
         H           -1.672498906051     2.106383877430     0.391969465400     1.007825032230
         H            0.760804093949     2.324193877430     0.228751465400     1.007825032230

  Basis Set: AUG-CC-PVTZ
    Blend: AUG-CC-PVTZ
  Basis Set: (AUG-CC-PVTZ AUX)
    Blend: AUG-CC-PVTZ-JKFIT
	 Reference Energy          =    -590.4038401411080486 [Eh]
	 Singles Energy            =      -0.0000000000000000 [Eh]
	 Same-Spin Energy          =      -0.2674477933115984 [Eh]
	 Opposite-Spin Energy      =      -0.8618151104327616 [Eh]
	 Correlation Energy        =      -1.1292629037443600 [Eh]
	 Total Energy              =    -591.5331030448523961 [Eh]

	 ================> DF-SCS-MP2 Energies <==================
	-----------------------------------------------------------
	 SCS Same-Spin Scale       =       0.3333333333333333 [-]
	 SCS Opposite-Spin Scale   =       1.2000000000000000 [-]
	 SCS Same-Spin Energy      =      -0.0891492644371995 [Eh]
	 SCS Opposite-Spin Energy  =      -1.0341781325193138 [Eh]
	 SCS Correlation Energy    =      -1.1233273969565132 [Eh]
	 SCS Total Energy          =    -591.5271675380645320 [Eh]
	-----------------------------------------------------------

  Dipole Moment: [D]
     X:    -0.9149      Y:    -0.3592      Z:     0.4793     Total:     1.0935

*** Psi4 exiting successfully. Buy a developer a beer!
