                               Psi4 1.3.2 release

  ==> Input File <==

--------------------------------------------------------------------------
#psi4
#
memory 32 gb

molecule  {
0 1
  S        1.3041180    -0.0414146    -0.2280489
  C        0.3439980    -1.2907520     0.4304430
  C       -1.0366050    -1.1980160    -0.1526860
  C       -1.6877140    -0.0149620    -0.1717330
  C       -1.0273490     1.2315180     0.1753310
  C        0.3208110     1.3651600     0.1119950
  H        0.3192380    -1.2040060     1.5241050
  H        0.8310050    -2.2339400     0.1718380
  H       -1.5205060    -2.1086570    -0.4970330
  H       -2.7141090     0.0333350    -0.5285000
  H       -1.6282610     2.1139460     0.3806850
  H        0.8050420     2.3317560     0.2174670
units angstrom
no_reorient  #important for SAPT in psi4, default
symmetry c1  #important for SAPT in psi4, default
}

set PROPERTIES_ORIGIN ["COM"]
properties('MP2/aug-cc-pvtz', properties = ['dipole'])
--------------------------------------------------------------------------

    Molecular point group: c1
  Charge       = 0
  Multiplicity = 1
  Basis Set: AUG-CC-PVTZ
    Blend: AUG-CC-PVTZ
  Basis Set: (AUG-CC-PVTZ AUX)
    Blend: AUG-CC-PVTZ-JKFIT

    Orbital Energies [Eh]
    ---------------------

    Doubly Occupied:

       1A    -91.955458     2A    -11.267339     3A    -11.259949
       4A    -11.244128     5A    -11.241355     6A    -11.238758
       7A     -8.958328     8A     -6.639747     9A     -6.638802
      10A     -6.637793    11A     -1.153740    12A     -1.035996
      13A     -1.022181    14A     -0.853881    15A     -0.821960
      16A     -0.697534    17A     -0.681123    18A     -0.610424
      19A     -0.603322    20A     -0.593725    21A     -0.541519
      22A     -0.494968    23A     -0.458256    24A     -0.447020
      25A     -0.356975    26A     -0.299605

  @DF-RHF Final Energy:  -590.39916417060942

   => Energetics <=

    Nuclear Repulsion Energy =            276.0887868267436147
    One-Electron Energy =               -1357.4681310406301691
    Two-Electron Energy =                 490.9801800432770733
    Total Energy =                       -590.3991641706094242
  Basis Set: (AUG-CC-PVTZ AUX)
    Blend: AUG-CC-PVTZ-RI
    Molecular point group: c1

    Geometry (in Angstrom), charge = 0, multiplicity = 1:

       Center              X                  Y                   Z               Mass
    ------------   -----------------  -----------------  -----------------  -----------------
         S            1.296824747320    -0.028308426736    -0.214862611201    31.972071174400
         C            0.336704747320    -1.277645826736     0.443629288799    12.000000000000
         C           -1.043898252680    -1.184909826736    -0.139499711201    12.000000000000
         C           -1.695007252680    -0.001855826736    -0.158546711201    12.000000000000
         C           -1.034642252680     1.244624173264     0.188517288799    12.000000000000
         C            0.313517747320     1.378266173264     0.125181288799    12.000000000000
         H            0.311944747320    -1.190899826736     1.537291288799     1.007825032230
         H            0.823711747320    -2.220833826736     0.185024288799     1.007825032230
         H           -1.527799252680    -2.095550826736    -0.483846711201     1.007825032230
         H           -2.721402252680     0.046441173264    -0.515313711201     1.007825032230
         H           -1.635554252680     2.127052173264     0.393871288799     1.007825032230
         H            0.797748747320     2.344862173264     0.230653288799     1.007825032230

  Basis Set: AUG-CC-PVTZ
    Blend: AUG-CC-PVTZ
  Basis Set: (AUG-CC-PVTZ AUX)
    Blend: AUG-CC-PVTZ-JKFIT
	 Reference Energy          =    -590.3991641706094242 [Eh]
	 Singles Energy            =      -0.0000000000000000 [Eh]
	 Same-Spin Energy          =      -0.2690207043994379 [Eh]
	 Opposite-Spin Energy      =      -0.8626594160051883 [Eh]
	 Correlation Energy        =      -1.1316801204046261 [Eh]
	 Total Energy              =    -591.5308442910140911 [Eh]

	 ================> DF-SCS-MP2 Energies <==================
	-----------------------------------------------------------
	 SCS Same-Spin Scale       =       0.3333333333333333 [-]
	 SCS Opposite-Spin Scale   =       1.2000000000000000 [-]
	 SCS Same-Spin Energy      =      -0.0896735681331460 [Eh]
	 SCS Opposite-Spin Energy  =      -1.0351912992062258 [Eh]
	 SCS Correlation Energy    =      -1.1248648673393717 [Eh]
	 SCS Total Energy          =    -591.5240290379488215 [Eh]
	-----------------------------------------------------------

  Dipole Moment: [D]
     X:    -0.8724      Y:    -0.3425      Z:     0.5198     Total:     1.0717

*** Psi4 exiting successfully. Buy a developer a beer!
