                               Psi4 1.3.2 release

  ==> Input File <==

--------------------------------------------------------------------------
#psi4
#
memory 32 gb

molecule  {
0 1
  S        1.4017960     0.0318670    -0.2267910
  C        0.3439980    -1.2907520     0.4304430
  C       -1.0366050    -1.1980160    -0.1526860
  C       -1.7254261    -0.0369430    -0.1895319
  C       -1.0273490     1.2315180     0.1753310
  C        0.3208110     1.3651600     0.1119950
  H        0.3192380    -1.2040060     1.5241050
  H        0.8310050    -2.2339400     0.1718380
  H       -1.5205060    -2.1086570    -0.4970330
  H       -2.7141090     0.0333350    -0.5285000
  H       -1.6282610     2.1139460     0.3806850
  H        0.8050420     2.3317560     0.2174670
units angstrom
no_reorient  #important for SAPT in psi4, default
symmetry c1  #important for SAPT in psi4, default
}

set PROPERTIES_ORIGIN ["COM"]
properties('MP2/aug-cc-pvtz', properties = ['dipole'])
--------------------------------------------------------------------------

    Molecular point group: c1
  Charge       = 0
  Multiplicity = 1
  Basis Set: AUG-CC-PVTZ
    Blend: AUG-CC-PVTZ
  Basis Set: (AUG-CC-PVTZ AUX)
    Blend: AUG-CC-PVTZ-JKFIT

    Orbital Energies [Eh]
    ---------------------

    Doubly Occupied:

       1A    -91.961335     2A    -11.269143     3A    -11.267656
       4A    -11.244644     5A    -11.243242     6A    -11.239536
       7A     -8.961880     8A     -6.643128     9A     -6.642182
      10A     -6.641306    11A     -1.138122    12A     -1.026107
      13A     -1.017176    14A     -0.861458    15A     -0.814022
      16A     -0.700077    17A     -0.678290    18A     -0.609800
      19A     -0.596884    20A     -0.583691    21A     -0.541795
      22A     -0.478664    23A     -0.462764    24A     -0.448956
      25A     -0.363542    26A     -0.299233

  @DF-RHF Final Energy:  -590.40392964597117

   => Energetics <=

    Nuclear Repulsion Energy =            271.5174147585432252
    One-Electron Energy =               -1348.3734215526724256
    Two-Electron Energy =                 486.4520771481579686
    Total Energy =                       -590.4039296459711750
  Basis Set: (AUG-CC-PVTZ AUX)
    Blend: AUG-CC-PVTZ-RI
    Molecular point group: c1

    Geometry (in Angstrom), charge = 0, multiplicity = 1:

       Center              X                  Y                   Z               Mass
    ------------   -----------------  -----------------  -----------------  -----------------
         S            1.367258823325     0.023761040129    -0.211835981732    31.972071174400
         C            0.309460823325    -1.298857959871     0.445398018268    12.000000000000
         C           -1.071142176675    -1.206121959871    -0.137730981732    12.000000000000
         C           -1.759963276675    -0.045048959871    -0.174576881732    12.000000000000
         C           -1.061886176675     1.223412040129     0.190286018268    12.000000000000
         C            0.286273823325     1.357054040129     0.126950018268    12.000000000000
         H            0.284700823325    -1.212111959871     1.539060018268     1.007825032230
         H            0.796467823325    -2.242045959871     0.186793018268     1.007825032230
         H           -1.555043176675    -2.116762959871    -0.482077981732     1.007825032230
         H           -2.748646176675     0.025229040129    -0.513544981732     1.007825032230
         H           -1.662798176675     2.105840040129     0.395640018268     1.007825032230
         H            0.770504823325     2.323650040129     0.232422018268     1.007825032230

  Basis Set: AUG-CC-PVTZ
    Blend: AUG-CC-PVTZ
  Basis Set: (AUG-CC-PVTZ AUX)
    Blend: AUG-CC-PVTZ-JKFIT
	 Reference Energy          =    -590.4039296459711750 [Eh]
	 Singles Energy            =      -0.0000000000000000 [Eh]
	 Same-Spin Energy          =      -0.2670849849822026 [Eh]
	 Opposite-Spin Energy      =      -0.8621532240702521 [Eh]
	 Correlation Energy        =      -1.1292382090524546 [Eh]
	 Total Energy              =    -591.5331678550236347 [Eh]

	 ================> DF-SCS-MP2 Energies <==================
	-----------------------------------------------------------
	 SCS Same-Spin Scale       =       0.3333333333333333 [-]
	 SCS Opposite-Spin Scale   =       1.2000000000000000 [-]
	 SCS Same-Spin Energy      =      -0.0890283283274008 [Eh]
	 SCS Opposite-Spin Energy  =      -1.0345838688843025 [Eh]
	 SCS Correlation Energy    =      -1.1236121972117035 [Eh]
	 SCS Total Energy          =    -591.5275418431829166 [Eh]
	-----------------------------------------------------------

  Dipole Moment: [D]
     X:    -0.8996      Y:    -0.3801      Z:     0.4861     Total:     1.0909

*** Psi4 exiting successfully. Buy a developer a beer!
