                               Psi4 1.3.2 release

  ==> Input File <==

--------------------------------------------------------------------------
#psi4
#
memory 32 gb

molecule  {
0 1
  S        1.4258572     0.0209534    -0.2092631
  C        0.3439980    -1.2907520     0.4304430
  C       -1.0366050    -1.1980160    -0.1526860
  C       -1.6877140    -0.0149620    -0.1717330
  C       -1.0273490     1.2315180     0.1753310
  C        0.3208110     1.3651600     0.1119950
  H        0.3192380    -1.2040060     1.5241050
  H        0.8310050    -2.2339400     0.1718380
  H       -1.5205060    -2.1086570    -0.4970330
  H       -2.7141090     0.0333350    -0.5285000
  H       -1.6282610     2.1139460     0.3806850
  H        0.8050420     2.3317560     0.2174670
units angstrom
no_reorient  #important for SAPT in psi4, default
symmetry c1  #important for SAPT in psi4, default
}

set PROPERTIES_ORIGIN ["COM"]
properties('MP2/aug-cc-pvtz', properties = ['dipole'])
--------------------------------------------------------------------------

    Molecular point group: c1
  Charge       = 0
  Multiplicity = 1
  Basis Set: AUG-CC-PVTZ
    Blend: AUG-CC-PVTZ
  Basis Set: (AUG-CC-PVTZ AUX)
    Blend: AUG-CC-PVTZ-JKFIT

    Orbital Energies [Eh]
    ---------------------

    Doubly Occupied:

       1A    -91.962905     2A    -11.270315     3A    -11.267613
       4A    -11.243689     5A    -11.241797     6A    -11.239859
       7A     -8.962977     8A     -6.644184     9A     -6.643239
      10A     -6.642389    11A     -1.139871    12A     -1.025591
      13A     -1.018166    14A     -0.858380    15A     -0.817810
      16A     -0.693524    17A     -0.680477    18A     -0.609072
      19A     -0.599925    20A     -0.582706    21A     -0.534443
      22A     -0.481625    23A     -0.462268    24A     -0.450704
      25A     -0.364978    26A     -0.298306

  @DF-RHF Final Energy:  -590.40521587151386

   => Energetics <=

    Nuclear Repulsion Energy =            271.4512886549870814
    One-Electron Energy =               -1348.2393826540055670
    Two-Electron Energy =                 486.3828781275045117
    Total Energy =                       -590.4052158715139740
  Basis Set: (AUG-CC-PVTZ AUX)
    Blend: AUG-CC-PVTZ-RI
    Molecular point group: c1

    Geometry (in Angstrom), charge = 0, multiplicity = 1:

       Center              X                  Y                   Z               Mass
    ------------   -----------------  -----------------  -----------------  -----------------
         S            1.378854773398     0.013716234724    -0.202204406910    31.972071174400
         C            0.296995573398    -1.297989165276     0.437501693090    12.000000000000
         C           -1.083607426602    -1.205253165276    -0.145627306910    12.000000000000
         C           -1.734716426602    -0.022199165276    -0.164674306910    12.000000000000
         C           -1.074351426602     1.224280834724     0.182389693090    12.000000000000
         C            0.273808573398     1.357922834724     0.119053693090    12.000000000000
         H            0.272235573398    -1.211243165276     1.531163693090     1.007825032230
         H            0.784002573398    -2.241177165276     0.178896693090     1.007825032230
         H           -1.567508426602    -2.115894165276    -0.489974306910     1.007825032230
         H           -2.761111426602     0.026097834724    -0.521441306910     1.007825032230
         H           -1.675263426602     2.106708834724     0.387743693090     1.007825032230
         H            0.758039573398     2.324518834724     0.224525693090     1.007825032230

  Basis Set: AUG-CC-PVTZ
    Blend: AUG-CC-PVTZ
  Basis Set: (AUG-CC-PVTZ AUX)
    Blend: AUG-CC-PVTZ-JKFIT
	 Reference Energy          =    -590.4052158715138603 [Eh]
	 Singles Energy            =      -0.0000000000000000 [Eh]
	 Same-Spin Energy          =      -0.2675245738883869 [Eh]
	 Opposite-Spin Energy      =      -0.8626287936064536 [Eh]
	 Correlation Energy        =      -1.1301533674948405 [Eh]
	 Total Energy              =    -591.5353692390086735 [Eh]

	 ================> DF-SCS-MP2 Energies <==================
	-----------------------------------------------------------
	 SCS Same-Spin Scale       =       0.3333333333333333 [-]
	 SCS Opposite-Spin Scale   =       1.2000000000000000 [-]
	 SCS Same-Spin Energy      =      -0.0891748579627956 [Eh]
	 SCS Opposite-Spin Energy  =      -1.0351545523277443 [Eh]
	 SCS Correlation Energy    =      -1.1243294102905399 [Eh]
	 SCS Total Energy          =    -591.5295452818044168 [Eh]
	-----------------------------------------------------------

  Dipole Moment: [D]
     X:    -0.8948      Y:    -0.3443      Z:     0.4908     Total:     1.0771

*** Psi4 exiting successfully. Buy a developer a beer!
