                               Psi4 1.3.2 release

  ==> Input File <==

--------------------------------------------------------------------------
#psi4
#
memory 32 gb

molecule  {
0 1
  S        1.4486888     0.0709673    -0.2255424
  C        0.3439980    -1.2907520     0.4304430
  C       -1.0366050    -1.1980160    -0.1526860
  C       -1.6877140    -0.0149620    -0.1717330
  C       -1.0273490     1.2315180     0.1753310
  C        0.3208110     1.3651600     0.1119950
  H        0.3192380    -1.2040060     1.5241050
  H        0.8310050    -2.2339400     0.1718380
  H       -1.5205060    -2.1086570    -0.4970330
  H       -2.7141090     0.0333350    -0.5285000
  H       -1.6282610     2.1139460     0.3806850
  H        0.8050420     2.3317560     0.2174670
units angstrom
no_reorient  #important for SAPT in psi4, default
symmetry c1  #important for SAPT in psi4, default
}

set PROPERTIES_ORIGIN ["COM"]
properties('MP2/aug-cc-pvtz', properties = ['dipole'])
--------------------------------------------------------------------------

    Molecular point group: c1
  Charge       = 0
  Multiplicity = 1
  Basis Set: AUG-CC-PVTZ
    Blend: AUG-CC-PVTZ
  Basis Set: (AUG-CC-PVTZ AUX)
    Blend: AUG-CC-PVTZ-JKFIT

    Orbital Energies [Eh]
    ---------------------

    Doubly Occupied:

       1A    -91.964616     2A    -11.271982     3A    -11.269363
       4A    -11.243396     5A    -11.240900     6A    -11.239857
       7A     -8.964235     8A     -6.645415     9A     -6.644414
      10A     -6.643617    11A     -1.137338    12A     -1.026368
      13A     -1.013458    14A     -0.862565    15A     -0.814581
      16A     -0.693040    17A     -0.680145    18A     -0.608678
      19A     -0.598653    20A     -0.579846    21A     -0.532271
      22A     -0.478467    23A     -0.465102    24A     -0.451217
      25A     -0.366289    26A     -0.296889

  @DF-RHF Final Energy:  -590.40365710753213

   => Energetics <=

    Nuclear Repulsion Energy =            270.3976611057867103
    One-Electron Energy =               -1346.1372318455280492
    Two-Electron Energy =                 485.3359136322092127
    Total Energy =                       -590.4036571075321262
  Basis Set: (AUG-CC-PVTZ AUX)
    Blend: AUG-CC-PVTZ-RI
    Molecular point group: c1

    Geometry (in Angstrom), charge = 0, multiplicity = 1:

       Center              X                  Y                   Z               Mass
    ------------   -----------------  -----------------  -----------------  -----------------
         S            1.394239109285     0.047416485106    -0.213173687171    31.972071174400
         C            0.289548309285    -1.314302814894     0.442811712829    12.000000000000
         C           -1.091054690715    -1.221566814894    -0.140317287171    12.000000000000
         C           -1.742163690715    -0.038512814894    -0.159364287171    12.000000000000
         C           -1.081798690715     1.207967185106     0.187699712829    12.000000000000
         C            0.266361309285     1.341609185106     0.124363712829    12.000000000000
         H            0.264788309285    -1.227556814894     1.536473712829     1.007825032230
         H            0.776555309285    -2.257490814894     0.184206712829     1.007825032230
         H           -1.574955690715    -2.132207814894    -0.484664287171     1.007825032230
         H           -2.768558690715     0.009784185106    -0.516131287171     1.007825032230
         H           -1.682710690715     2.090395185106     0.393053712829     1.007825032230
         H            0.750592309285     2.308205185106     0.229835712829     1.007825032230

  Basis Set: AUG-CC-PVTZ
    Blend: AUG-CC-PVTZ
  Basis Set: (AUG-CC-PVTZ AUX)
    Blend: AUG-CC-PVTZ-JKFIT
	 Reference Energy          =    -590.4036571075321262 [Eh]
	 Singles Energy            =      -0.0000000000000000 [Eh]
	 Same-Spin Energy          =      -0.2674573505182999 [Eh]
	 Opposite-Spin Energy      =      -0.8629207010370019 [Eh]
	 Correlation Energy        =      -1.1303780515553017 [Eh]
	 Total Energy              =    -591.5340351590874661 [Eh]

	 ================> DF-SCS-MP2 Energies <==================
	-----------------------------------------------------------
	 SCS Same-Spin Scale       =       0.3333333333333333 [-]
	 SCS Opposite-Spin Scale   =       1.2000000000000000 [-]
	 SCS Same-Spin Energy      =      -0.0891524501727666 [Eh]
	 SCS Opposite-Spin Energy  =      -1.0355048412444023 [Eh]
	 SCS Correlation Energy    =      -1.1246572914171691 [Eh]
	 SCS Total Energy          =    -591.5283143989493055 [Eh]
	-----------------------------------------------------------

  Dipole Moment: [D]
     X:    -0.8622      Y:    -0.3767      Z:     0.4871     Total:     1.0594

*** Psi4 exiting successfully. Buy a developer a beer!
