                               Psi4 1.3.2 release

  ==> Input File <==

--------------------------------------------------------------------------
#psi4
#
memory 32 gb

molecule  {
0 1
  S        1.4017960     0.0318670    -0.2267910
  C        0.3439980    -1.2907520     0.4304430
  C       -1.0366050    -1.1980160    -0.1526860
  C       -1.6421934    -0.0369437    -0.1756948
  C       -1.0273490     1.2315180     0.1753310
  C        0.3208110     1.3651600     0.1119950
  H        0.3192380    -1.2040060     1.5241050
  H        0.8310050    -2.2339400     0.1718380
  H       -1.5205060    -2.1086570    -0.4970330
  H       -2.7141090     0.0333350    -0.5285000
  H       -1.6282610     2.1139460     0.3806850
  H        0.8050420     2.3317560     0.2174670
units angstrom
no_reorient  #important for SAPT in psi4, default
symmetry c1  #important for SAPT in psi4, default
}

set PROPERTIES_ORIGIN ["COM"]
properties('MP2/aug-cc-pvtz', properties = ['dipole'])
--------------------------------------------------------------------------

    Molecular point group: c1
  Charge       = 0
  Multiplicity = 1
  Basis Set: AUG-CC-PVTZ
    Blend: AUG-CC-PVTZ
  Basis Set: (AUG-CC-PVTZ AUX)
    Blend: AUG-CC-PVTZ-JKFIT

    Orbital Energies [Eh]
    ---------------------

    Doubly Occupied:

       1A    -91.961764     2A    -11.268671     3A    -11.266597
       4A    -11.240795     5A    -11.238000     6A    -11.235823
       7A     -8.962299     8A     -6.643542     9A     -6.642592
      10A     -6.641733    11A     -1.145879    12A     -1.030311
      13A     -1.018947    14A     -0.861269    15A     -0.815002
      16A     -0.689907    17A     -0.680197    18A     -0.608455
      19A     -0.603609    20A     -0.587523    21A     -0.522898
      22A     -0.485391    23A     -0.463334    24A     -0.451876
      25A     -0.367167    26A     -0.300789

  @DF-RHF Final Energy:  -590.40366029589791

   => Energetics <=

    Nuclear Repulsion Energy =            273.0425296450233645
    One-Electron Energy =               -1351.4236459746650780
    Two-Electron Energy =                 487.9774560337439198
    Total Energy =                       -590.4036602958979074
  Basis Set: (AUG-CC-PVTZ AUX)
    Blend: AUG-CC-PVTZ-RI
    Molecular point group: c1

    Geometry (in Angstrom), charge = 0, multiplicity = 1:

       Center              X                  Y                   Z               Mass
    ------------   -----------------  -----------------  -----------------  -----------------
         S            1.357069041933     0.023761125827    -0.213529991708    31.972071174400
         C            0.299271041933    -1.298857874173     0.443704008292    12.000000000000
         C           -1.081331958067    -1.206121874173    -0.139424991708    12.000000000000
         C           -1.686920358067    -0.045049574173    -0.162433791708    12.000000000000
         C           -1.072075958067     1.223412125827     0.188592008292    12.000000000000
         C            0.276084041933     1.357054125827     0.125256008292    12.000000000000
         H            0.274511041933    -1.212111874173     1.537366008292     1.007825032230
         H            0.786278041933    -2.242045874173     0.185099008292     1.007825032230
         H           -1.565232958067    -2.116762874173    -0.483771991708     1.007825032230
         H           -2.758835958067     0.025229125827    -0.515238991708     1.007825032230
         H           -1.672987958067     2.105840125827     0.393946008292     1.007825032230
         H            0.760315041933     2.323650125827     0.230728008292     1.007825032230

  Basis Set: AUG-CC-PVTZ
    Blend: AUG-CC-PVTZ
  Basis Set: (AUG-CC-PVTZ AUX)
    Blend: AUG-CC-PVTZ-JKFIT
	 Reference Energy          =    -590.4036602958979074 [Eh]
	 Singles Energy            =      -0.0000000000000000 [Eh]
	 Same-Spin Energy          =      -0.2674454319051567 [Eh]
	 Opposite-Spin Energy      =      -0.8617633521556098 [Eh]
	 Correlation Energy        =      -1.1292087840607665 [Eh]
	 Total Energy              =    -591.5328690799586866 [Eh]

	 ================> DF-SCS-MP2 Energies <==================
	-----------------------------------------------------------
	 SCS Same-Spin Scale       =       0.3333333333333333 [-]
	 SCS Opposite-Spin Scale   =       1.2000000000000000 [-]
	 SCS Same-Spin Energy      =      -0.0891484773017189 [Eh]
	 SCS Opposite-Spin Energy  =      -1.0341160225867319 [Eh]
	 SCS Correlation Energy    =      -1.1232644998884507 [Eh]
	 SCS Total Energy          =    -591.5269247957863854 [Eh]
	-----------------------------------------------------------

  Dipole Moment: [D]
     X:    -0.8610      Y:    -0.3504      Z:     0.5112     Total:     1.0609

*** Psi4 exiting successfully. Buy a developer a beer!
