                               Psi4 1.4a3.dev225

  ==> Input File <==

--------------------------------------------------------------------------
#psi4
#
memory 32 gb

molecule  {
0 1
  S        1.4017960     0.0318670    -0.2267910
  C        0.3439980    -1.2907520     0.4304430
  C       -1.0366050    -1.1980160    -0.1526860
  C       -1.6877140    -0.0149620    -0.1717330
  C       -1.0273490     1.2315180     0.1753310
  C        0.3208110     1.3651600     0.1119950
  H        0.3192380    -1.2040060     1.5241050
  H        0.8310050    -2.2339400     0.1718380
  H       -1.5205060    -2.1086570    -0.4970330
  H       -2.7141090     0.0333350    -0.5285000
  H       -1.6393156     2.1301794     0.3844628
  H        0.8050420     2.3317560     0.2174670
units angstrom
no_reorient  #important for SAPT in psi4, default
symmetry c1  #important for SAPT in psi4, default
}

set PROPERTIES_ORIGIN ["COM"]
properties('MP2/aug-cc-pvtz', properties = ['dipole'])
--------------------------------------------------------------------------

    Molecular point group: c1
  Charge       = 0
  Multiplicity = 1
  Basis Set: AUG-CC-PVTZ
    Blend: AUG-CC-PVTZ
  Basis Set: (AUG-CC-PVTZ AUX)
    Blend: AUG-CC-PVTZ-JKFIT

    Orbital Energies [Eh]
    ---------------------

    Doubly Occupied:

       1A    -91.962170     2A    -11.268798     3A    -11.267934
       4A    -11.243664     5A    -11.243257     6A    -11.239694
       7A     -8.962670     8A     -6.643909     9A     -6.642963
      10A     -6.642101    11A     -1.141668    12A     -1.026119
      13A     -1.018851    14A     -0.858953    15A     -0.816916
      16A     -0.694160    17A     -0.678129    18A     -0.607677
      19A     -0.599335    20A     -0.583962    21A     -0.535024
      22A     -0.483266    23A     -0.463212    24A     -0.450645
      25A     -0.364015    26A     -0.297799

  @DF-RHF Final Energy:  -590.40484925903775

   => Energetics <=

    Nuclear Repulsion Energy =            272.1061290094254446
    One-Electron Energy =               -1349.5481763549719290
    Two-Electron Energy =                 487.0371980865088517
    Total Energy =                       -590.4048492590377464
  Basis Set: (AUG-CC-PVTZ AUX)
    Blend: AUG-CC-PVTZ-RI
    Molecular point group: c1

    Geometry (in Angstrom), charge = 0, multiplicity = 1:

       Center              X                  Y                   Z               Mass
    ------------   -----------------  -----------------  -----------------  -----------------
         S            1.362755573943     0.020903100691    -0.214053859021    31.972071174400
         C            0.304957573943    -1.301715899309     0.443180140979    12.000000000000
         C           -1.075645426057    -1.208979899309    -0.139948859021    12.000000000000
         C           -1.726754426057    -0.025925899309    -0.158995859021    12.000000000000
         C           -1.066389426057     1.220554100691     0.188068140979    12.000000000000
         C            0.281770573943     1.354196100691     0.124732140979    12.000000000000
         H            0.280197573943    -1.214969899309     1.536842140979     1.007825032230
         H            0.791964573943    -2.244903899309     0.184575140979     1.007825032230
         H           -1.559546426057    -2.119620899309    -0.484295859021     1.007825032230
         H           -2.753149426057     0.022371100691    -0.515762859021     1.007825032230
         H           -1.678356026057     2.119215500691     0.397199940979     1.007825032230
         H            0.766001573943     2.320792100691     0.230204140979     1.007825032230

  Basis Set: AUG-CC-PVTZ
    Blend: AUG-CC-PVTZ
  Basis Set: (AUG-CC-PVTZ AUX)
    Blend: AUG-CC-PVTZ-JKFIT
	 Reference Energy          =    -590.4048492590377464 [Eh]
	 Singles Energy            =      -0.0000000000000000 [Eh]
	 Same-Spin Energy          =      -0.2678360135793114 [Eh]
	 Opposite-Spin Energy      =      -0.8627290079198144 [Eh]
	 Correlation Energy        =      -1.1305650214991259 [Eh]
	 Total Energy              =    -591.5354142805368838 [Eh]

	 ================> DF-SCS-MP2 Energies <==================
	-----------------------------------------------------------
	 SCS Same-Spin Scale       =       0.3333333333333333 [-]
	 SCS Opposite-Spin Scale   =       1.2000000000000000 [-]
	 SCS Same-Spin Energy      =      -0.0892786711931038 [Eh]
	 SCS Opposite-Spin Energy  =      -1.0352748095037774 [Eh]
	 SCS Correlation Energy    =      -1.1245534806968811 [Eh]
	 SCS Total Energy          =    -591.5294027397346781 [Eh]
	-----------------------------------------------------------

  Dipole Moment: [D]
     X:    -0.8564      Y:    -0.3646      Z:     0.4943     Total:     1.0539

*** Psi4 exiting successfully. Buy a developer a beer!
