                               Psi4 1.3.2 release

  ==> Input File <==

--------------------------------------------------------------------------
#psi4
#
memory 32 gb

molecule  {
0 1
  S        1.4017960     0.0318670    -0.2267910
  C        0.3439980    -1.2907520     0.4304430
  C       -1.0366050    -1.1980160    -0.1526860
  C       -1.6877140    -0.0149620    -0.1717330
  C       -0.9818903     1.3173242     0.1992225
  C        0.3208110     1.3651600     0.1119950
  H        0.3192380    -1.2040060     1.5241050
  H        0.8310050    -2.2339400     0.1718380
  H       -1.5205060    -2.1086570    -0.4970330
  H       -2.7141090     0.0333350    -0.5285000
  H       -1.6282610     2.1139460     0.3806850
  H        0.8050420     2.3317560     0.2174670
units angstrom
no_reorient  #important for SAPT in psi4, default
symmetry c1  #important for SAPT in psi4, default
}

set PROPERTIES_ORIGIN ["COM"]
properties('MP2/aug-cc-pvtz', properties = ['dipole'])
--------------------------------------------------------------------------

    Molecular point group: c1
  Charge       = 0
  Multiplicity = 1
  Basis Set: AUG-CC-PVTZ
    Blend: AUG-CC-PVTZ
  Basis Set: (AUG-CC-PVTZ AUX)
    Blend: AUG-CC-PVTZ-JKFIT

    Orbital Energies [Eh]
    ---------------------

    Doubly Occupied:

       1A    -91.962231     2A    -11.267357     3A    -11.260897
       4A    -11.244653     5A    -11.241688     6A    -11.237538
       7A     -8.962714     8A     -6.643987     9A     -6.642974
      10A     -6.642096    11A     -1.138137    12A     -1.035121
      13A     -1.009864    14A     -0.865254    15A     -0.807362
      16A     -0.690478    17A     -0.686559    18A     -0.621930
      19A     -0.590403    20A     -0.584604    21A     -0.528287
      22A     -0.472418    23A     -0.468432    24A     -0.450807
      25A     -0.360447    26A     -0.308628

  @DF-RHF Final Energy:  -590.39909899103782

   => Energetics <=

    Nuclear Repulsion Energy =            271.5683082222686267
    One-Electron Energy =               -1348.4850837484425483
    Two-Electron Energy =                 486.5176765351361610
    Total Energy =                       -590.3990989910378175
  Basis Set: (AUG-CC-PVTZ AUX)
    Blend: AUG-CC-PVTZ-RI
    Molecular point group: c1

    Geometry (in Angstrom), charge = 0, multiplicity = 1:

       Center              X                  Y                   Z               Mass
    ------------   -----------------  -----------------  -----------------  -----------------
         S            1.357076620054     0.010565168737    -0.216939938015    31.972071174400
         C            0.299278620054    -1.312053831263     0.440294061985    12.000000000000
         C           -1.081324379946    -1.219317831263    -0.142834938015    12.000000000000
         C           -1.732433379946    -0.036263831263    -0.161881938015    12.000000000000
         C           -1.026609679946     1.296022368737     0.209073561985    12.000000000000
         C            0.276091620054     1.343858168737     0.121846061985    12.000000000000
         H            0.274518620054    -1.225307831263     1.533956061985     1.007825032230
         H            0.786285620054    -2.255241831263     0.181689061985     1.007825032230
         H           -1.565225379946    -2.129958831263    -0.487181938015     1.007825032230
         H           -2.758828379946     0.012033168737    -0.518648938015     1.007825032230
         H           -1.672980379946     2.092644168737     0.390536061985     1.007825032230
         H            0.760322620054     2.310454168737     0.227318061985     1.007825032230

  Basis Set: AUG-CC-PVTZ
    Blend: AUG-CC-PVTZ
  Basis Set: (AUG-CC-PVTZ AUX)
    Blend: AUG-CC-PVTZ-JKFIT
	 Reference Energy          =    -590.3990989910378175 [Eh]
	 Singles Energy            =      -0.0000000000000000 [Eh]
	 Same-Spin Energy          =      -0.2657685758036021 [Eh]
	 Opposite-Spin Energy      =      -0.8606861001462914 [Eh]
	 Correlation Energy        =      -1.1264546759498937 [Eh]
	 Total Energy              =    -591.5255536669876619 [Eh]

	 ================> DF-SCS-MP2 Energies <==================
	-----------------------------------------------------------
	 SCS Same-Spin Scale       =       0.3333333333333333 [-]
	 SCS Opposite-Spin Scale   =       1.2000000000000000 [-]
	 SCS Same-Spin Energy      =      -0.0885895252678674 [Eh]
	 SCS Opposite-Spin Energy  =      -1.0328233201755497 [Eh]
	 SCS Correlation Energy    =      -1.1214128454434171 [Eh]
	 SCS Total Energy          =    -591.5205118364812051 [Eh]
	-----------------------------------------------------------

  Dipole Moment: [D]
     X:    -0.9103      Y:    -0.3584      Z:     0.4938     Total:     1.0958

*** Psi4 exiting successfully. Buy a developer a beer!
