                               Psi4 1.3.2 release

  ==> Input File <==

--------------------------------------------------------------------------
#psi4
#
memory 32 gb

molecule  {
0 1
  S        1.3962370     0.0213318    -0.2561744
  C        0.3439980    -1.2907520     0.4304430
  C       -1.0366050    -1.1980160    -0.1526860
  C       -1.6877140    -0.0149620    -0.1717330
  C       -1.0273490     1.2315180     0.1753310
  C        0.3208110     1.3651600     0.1119950
  H        0.3192380    -1.2040060     1.5241050
  H        0.8310050    -2.2339400     0.1718380
  H       -1.5205060    -2.1086570    -0.4970330
  H       -2.7141090     0.0333350    -0.5285000
  H       -1.6282610     2.1139460     0.3806850
  H        0.8050420     2.3317560     0.2174670
units angstrom
no_reorient  #important for SAPT in psi4, default
symmetry c1  #important for SAPT in psi4, default
}

set PROPERTIES_ORIGIN ["COM"]
properties('MP2/aug-cc-pvtz', properties = ['dipole'])
--------------------------------------------------------------------------

    Molecular point group: c1
  Charge       = 0
  Multiplicity = 1
  Basis Set: AUG-CC-PVTZ
    Blend: AUG-CC-PVTZ
  Basis Set: (AUG-CC-PVTZ AUX)
    Blend: AUG-CC-PVTZ-JKFIT

    Orbital Energies [Eh]
    ---------------------

    Doubly Occupied:

       1A    -91.962193     2A    -11.268959     3A    -11.267787
       4A    -11.243760     5A    -11.241628     6A    -11.239277
       7A     -8.962455     8A     -6.643671     9A     -6.642745
      10A     -6.641881    11A     -1.141152    12A     -1.026089
      13A     -1.017892    14A     -0.858859    15A     -0.816947
      16A     -0.694072    17A     -0.681042    18A     -0.608735
      19A     -0.598591    20A     -0.584179    21A     -0.534881
      22A     -0.483155    23A     -0.462889    24A     -0.450379
      25A     -0.362087    26A     -0.299412

  @DF-RHF Final Energy:  -590.40521414251930

   => Energetics <=

    Nuclear Repulsion Energy =            272.0663230941933080
    One-Electron Energy =               -1349.4736374984527174
    Two-Electron Energy =                 487.0021002617402246
    Total Energy =                       -590.4052141425192985
  Basis Set: (AUG-CC-PVTZ AUX)
    Blend: AUG-CC-PVTZ-RI
    Molecular point group: c1

    Geometry (in Angstrom), charge = 0, multiplicity = 1:

       Center              X                  Y                   Z               Mass
    ------------   -----------------  -----------------  -----------------  -----------------
         S            1.358896158766     0.013971207337    -0.233814070538    31.972071174400
         C            0.306657158766    -1.298112592663     0.452803329462    12.000000000000
         C           -1.073945841234    -1.205376592663    -0.130325670538    12.000000000000
         C           -1.725054841234    -0.022322592663    -0.149372670538    12.000000000000
         C           -1.064689841234     1.224157407337     0.197691329462    12.000000000000
         C            0.283470158766     1.357799407337     0.134355329462    12.000000000000
         H            0.281897158766    -1.211366592663     1.546465329462     1.007825032230
         H            0.793664158766    -2.241300592663     0.194198329462     1.007825032230
         H           -1.557846841234    -2.116017592663    -0.474672670538     1.007825032230
         H           -2.751449841234     0.025974407337    -0.506139670538     1.007825032230
         H           -1.665601841234     2.106585407337     0.403045329462     1.007825032230
         H            0.767701158766     2.324395407337     0.239827329462     1.007825032230

  Basis Set: AUG-CC-PVTZ
    Blend: AUG-CC-PVTZ
  Basis Set: (AUG-CC-PVTZ AUX)
    Blend: AUG-CC-PVTZ-JKFIT
	 Reference Energy          =    -590.4052141425192985 [Eh]
	 Singles Energy            =      -0.0000000000000000 [Eh]
	 Same-Spin Energy          =      -0.2677520206796430 [Eh]
	 Opposite-Spin Energy      =      -0.8627006368922239 [Eh]
	 Correlation Energy        =      -1.1304526575718667 [Eh]
	 Total Energy              =    -591.5356668000911213 [Eh]

	 ================> DF-SCS-MP2 Energies <==================
	-----------------------------------------------------------
	 SCS Same-Spin Scale       =       0.3333333333333333 [-]
	 SCS Opposite-Spin Scale   =       1.2000000000000000 [-]
	 SCS Same-Spin Energy      =      -0.0892506735598810 [Eh]
	 SCS Opposite-Spin Energy  =      -1.0352407642706687 [Eh]
	 SCS Correlation Energy    =      -1.1244914378305497 [Eh]
	 SCS Total Energy          =    -591.5297055803498552 [Eh]
	-----------------------------------------------------------

  Dipole Moment: [D]
     X:    -0.8771      Y:    -0.3461      Z:     0.5003     Total:     1.0674

*** Psi4 exiting successfully. Buy a developer a beer!
