                               Psi4 1.3.2 release

  ==> Input File <==

--------------------------------------------------------------------------
#psi4
#
memory 32 gb

molecule  {
0 1
  S        1.4017960     0.0318670    -0.2267910
  C        0.3439980    -1.2907520     0.4304430
  C       -0.9256431    -1.1276612    -0.1005234
  C       -1.6877140    -0.0149620    -0.1717330
  C       -1.0273490     1.2315180     0.1753310
  C        0.3208110     1.3651600     0.1119950
  H        0.3192380    -1.2040060     1.5241050
  H        0.8310050    -2.2339400     0.1718380
  H       -1.5205060    -2.1086570    -0.4970330
  H       -2.7141090     0.0333350    -0.5285000
  H       -1.6282610     2.1139460     0.3806850
  H        0.8050420     2.3317560     0.2174670
units angstrom
no_reorient  #important for SAPT in psi4, default
symmetry c1  #important for SAPT in psi4, default
}

set PROPERTIES_ORIGIN ["COM"]
properties('MP2/aug-cc-pvtz', properties = ['dipole'])
--------------------------------------------------------------------------

    Molecular point group: c1
  Charge       = 0
  Multiplicity = 1
  Basis Set: AUG-CC-PVTZ
    Blend: AUG-CC-PVTZ
  Basis Set: (AUG-CC-PVTZ AUX)
    Blend: AUG-CC-PVTZ-JKFIT

    Orbital Energies [Eh]
    ---------------------

    Doubly Occupied:

       1A    -91.962390     2A    -11.266054     3A    -11.264830
       4A    -11.249725     5A    -11.239752     6A    -11.238879
       7A     -8.963122     8A     -6.644301     9A     -6.643435
      10A     -6.642498    11A     -1.156174    12A     -1.039362
      13A     -1.018366    14A     -0.866582    15A     -0.809643
      16A     -0.702343    17A     -0.668610    18A     -0.622702
      19A     -0.608230    20A     -0.571296    21A     -0.554513
      22A     -0.467129    23A     -0.463845    24A     -0.450130
      25A     -0.360879    26A     -0.295831

  @DF-RHF Final Energy:  -590.38090724740630

   => Energetics <=

    Nuclear Repulsion Energy =            274.5176933005142246
    One-Electron Energy =               -1354.2559624100792917
    Two-Electron Energy =                 489.3573618621586547
    Total Energy =                       -590.3809072474062987
  Basis Set: (AUG-CC-PVTZ AUX)
    Blend: AUG-CC-PVTZ-RI
    Molecular point group: c1

    Geometry (in Angstrom), charge = 0, multiplicity = 1:

       Center              X                  Y                   Z               Mass
    ------------   -----------------  -----------------  -----------------  -----------------
         S            1.349057376554     0.012456809741    -0.220401033579    31.972071174400
         C            0.291259376554    -1.310162190259     0.436832966421    12.000000000000
         C           -0.978381723446    -1.147071390259    -0.094133433579    12.000000000000
         C           -1.740452623446    -0.034372190259    -0.165343033579    12.000000000000
         C           -1.080087623446     1.212107809741     0.181720966421    12.000000000000
         C            0.268072376554     1.345749809741     0.118384966421    12.000000000000
         H            0.266499376554    -1.223416190259     1.530494966421     1.007825032230
         H            0.778266376554    -2.253350190259     0.178227966421     1.007825032230
         H           -1.573244623446    -2.128067190259    -0.490643033579     1.007825032230
         H           -2.766847623446     0.013924809741    -0.522110033579     1.007825032230
         H           -1.680999623446     2.094535809741     0.387074966421     1.007825032230
         H            0.752303376554     2.312345809741     0.223856966421     1.007825032230

  Basis Set: AUG-CC-PVTZ
    Blend: AUG-CC-PVTZ
  Basis Set: (AUG-CC-PVTZ AUX)
    Blend: AUG-CC-PVTZ-JKFIT
	 Reference Energy          =    -590.3809072474062987 [Eh]
	 Singles Energy            =      -0.0000000000000000 [Eh]
	 Same-Spin Energy          =      -0.2698876380790191 [Eh]
	 Opposite-Spin Energy      =      -0.8649568374281041 [Eh]
	 Correlation Energy        =      -1.1348444755071232 [Eh]
	 Total Energy              =    -591.5157517229134783 [Eh]

	 ================> DF-SCS-MP2 Energies <==================
	-----------------------------------------------------------
	 SCS Same-Spin Scale       =       0.3333333333333333 [-]
	 SCS Opposite-Spin Scale   =       1.2000000000000000 [-]
	 SCS Same-Spin Energy      =      -0.0899625460263397 [Eh]
	 SCS Opposite-Spin Energy  =      -1.0379482049137250 [Eh]
	 SCS Correlation Energy    =      -1.1279107509400648 [Eh]
	 SCS Total Energy          =    -591.5088179983463306 [Eh]
	-----------------------------------------------------------

  Dipole Moment: [D]
     X:    -0.8039      Y:    -0.3251      Z:     0.5420     Total:     1.0226

*** Psi4 exiting successfully. Buy a developer a beer!
