                               Psi4 1.3.2 release

  ==> Input File <==

--------------------------------------------------------------------------
#psi4
#
memory 32 gb

molecule  {
0 1
  S        1.4017960     0.0318670    -0.2267910
  C        0.2857700    -1.3635574     0.4666214
  C       -1.0366050    -1.1980160    -0.1526860
  C       -1.6877140    -0.0149620    -0.1717330
  C       -1.0273490     1.2315180     0.1753310
  C        0.3208110     1.3651600     0.1119950
  H        0.3192380    -1.2040060     1.5241050
  H        0.8310050    -2.2339400     0.1718380
  H       -1.5205060    -2.1086570    -0.4970330
  H       -2.7141090     0.0333350    -0.5285000
  H       -1.6282610     2.1139460     0.3806850
  H        0.8050420     2.3317560     0.2174670
units angstrom
no_reorient  #important for SAPT in psi4, default
symmetry c1  #important for SAPT in psi4, default
}

set PROPERTIES_ORIGIN ["COM"]
properties('MP2/aug-cc-pvtz', properties = ['dipole'])
--------------------------------------------------------------------------

    Molecular point group: c1
  Charge       = 0
  Multiplicity = 1
  Basis Set: AUG-CC-PVTZ
    Blend: AUG-CC-PVTZ
  Basis Set: (AUG-CC-PVTZ AUX)
    Blend: AUG-CC-PVTZ-JKFIT

    Orbital Energies [Eh]
    ---------------------

    Doubly Occupied:

       1A    -91.960116     2A    -11.270548     3A    -11.268919
       4A    -11.242935     5A    -11.241266     6A    -11.239331
       7A     -8.959712     8A     -6.640821     9A     -6.639889
      10A     -6.639100    11A     -1.138927    12A     -1.031665
      13A     -1.010383    14A     -0.865277    15A     -0.814820
      16A     -0.696546    17A     -0.683777    18A     -0.617525
      19A     -0.603827    20A     -0.583195    21A     -0.536394
      22A     -0.477294    23A     -0.460550    24A     -0.449970
      25A     -0.358986    26A     -0.296821

  @DF-RHF Final Energy:  -590.39949179313260

   => Energetics <=

    Nuclear Repulsion Energy =            270.8841479171121591
    One-Electron Energy =               -1347.1100880609965316
    Two-Electron Energy =                 485.8264483507517184
    Total Energy =                       -590.3994917931327109
  Basis Set: (AUG-CC-PVTZ AUX)
    Blend: AUG-CC-PVTZ-RI
    Molecular point group: c1

    Geometry (in Angstrom), charge = 0, multiplicity = 1:

       Center              X                  Y                   Z               Mass
    ------------   -----------------  -----------------  -----------------  -----------------
         S            1.369770486843     0.029983228349    -0.218444164419    31.972071174400
         C            0.253744486843    -1.365441171651     0.474968235581    12.000000000000
         C           -1.068630513157    -1.199899771651    -0.144339164419    12.000000000000
         C           -1.719739513157    -0.016845771651    -0.163386164419    12.000000000000
         C           -1.059374513157     1.229634228349     0.183677835581    12.000000000000
         C            0.288785486843     1.363276228349     0.120341835581    12.000000000000
         H            0.287212486843    -1.205889771651     1.532451835581     1.007825032230
         H            0.798979486843    -2.235823771651     0.180184835581     1.007825032230
         H           -1.552531513157    -2.110540771651    -0.488686164419     1.007825032230
         H           -2.746134513157     0.031451228349    -0.520153164419     1.007825032230
         H           -1.660286513157     2.112062228349     0.389031835581     1.007825032230
         H            0.773016486843     2.329872228349     0.225813835581     1.007825032230

  Basis Set: AUG-CC-PVTZ
    Blend: AUG-CC-PVTZ
  Basis Set: (AUG-CC-PVTZ AUX)
    Blend: AUG-CC-PVTZ-JKFIT
	 Reference Energy          =    -590.3994917931325972 [Eh]
	 Singles Energy            =      -0.0000000000000000 [Eh]
	 Same-Spin Energy          =      -0.2680192661465834 [Eh]
	 Opposite-Spin Energy      =      -0.8632188728503776 [Eh]
	 Correlation Energy        =      -1.1312381389969610 [Eh]
	 Total Energy              =    -591.5307299321295886 [Eh]

	 ================> DF-SCS-MP2 Energies <==================
	-----------------------------------------------------------
	 SCS Same-Spin Scale       =       0.3333333333333333 [-]
	 SCS Opposite-Spin Scale   =       1.2000000000000000 [-]
	 SCS Same-Spin Energy      =      -0.0893397553821945 [Eh]
	 SCS Opposite-Spin Energy  =      -1.0358626474204531 [Eh]
	 SCS Correlation Energy    =      -1.1252024028026475 [Eh]
	 SCS Total Energy          =    -591.5246941959352398 [Eh]
	-----------------------------------------------------------

  Dipole Moment: [D]
     X:    -0.8915      Y:    -0.4330      Z:     0.5654     Total:     1.1410

*** Psi4 exiting successfully. Buy a developer a beer!
