                               Psi4 1.4a3.dev225

  ==> Input File <==

--------------------------------------------------------------------------
#psi4
#
memory 32 gb

molecule  {
0 1
  S        1.4017960     0.0318670    -0.2267910
  C        0.3439980    -1.2907520     0.4304430
  C       -1.0366050    -1.1980160    -0.1526860
  C       -1.6877140    -0.0149620    -0.1717330
  C       -1.0500784     1.1886149     0.1633853
  C        0.3208110     1.3651600     0.1119950
  H        0.3192380    -1.2040060     1.5241050
  H        0.8310050    -2.2339400     0.1718380
  H       -1.5205060    -2.1086570    -0.4970330
  H       -2.7141090     0.0333350    -0.5285000
  H       -1.6282610     2.1139460     0.3806850
  H        0.8050420     2.3317560     0.2174670
units angstrom
no_reorient  #important for SAPT in psi4, default
symmetry c1  #important for SAPT in psi4, default
}

set PROPERTIES_ORIGIN ["COM"]
properties('MP2/aug-cc-pvtz', properties = ['dipole'])
--------------------------------------------------------------------------

    Molecular point group: c1
  Charge       = 0
  Multiplicity = 1
  Basis Set: AUG-CC-PVTZ
    Blend: AUG-CC-PVTZ
  Basis Set: (AUG-CC-PVTZ AUX)
    Blend: AUG-CC-PVTZ-JKFIT

    Orbital Energies [Eh]
    ---------------------

    Doubly Occupied:

       1A    -91.962355     2A    -11.273035     3A    -11.268151
       4A    -11.244116     5A    -11.242908     6A    -11.236223
       7A     -8.962835     8A     -6.644052     9A     -6.643143
      10A     -6.642294    11A     -1.144684    12A     -1.024691
      13A     -1.022189    14A     -0.856565    15A     -0.822668
      16A     -0.696486    17A     -0.677891    18A     -0.606469
      19A     -0.601513    20A     -0.582951    21A     -0.538714
      22A     -0.486930    23A     -0.461692    24A     -0.449347
      25A     -0.365833    26A     -0.291730

  @DF-RHF Final Energy:  -590.39973676846819

   => Energetics <=

    Nuclear Repulsion Energy =            272.5590591179473563
    One-Electron Energy =               -1350.4186612754674570
    Two-Electron Energy =                 487.4598653890519131
    Total Energy =                       -590.3997367684683013
  Basis Set: (AUG-CC-PVTZ AUX)
    Blend: AUG-CC-PVTZ-RI
    Molecular point group: c1

    Geometry (in Angstrom), charge = 0, multiplicity = 1:

       Center              X                  Y                   Z               Mass
    ------------   -----------------  -----------------  -----------------  -----------------
         S            1.365424563020     0.026322432770    -0.212552561014    31.972071174400
         C            0.307626563020    -1.296296567230     0.444681438986    12.000000000000
         C           -1.072976436980    -1.203560567230    -0.138447561014    12.000000000000
         C           -1.724085436980    -0.020506567230    -0.157494561014    12.000000000000
         C           -1.086449836980     1.183070332770     0.177623738986    12.000000000000
         C            0.284439563020     1.359615432770     0.126233438986    12.000000000000
         H            0.282866563020    -1.209550567230     1.538343438986     1.007825032230
         H            0.794633563020    -2.239484567230     0.186076438986     1.007825032230
         H           -1.556877436980    -2.114201567230    -0.482794561014     1.007825032230
         H           -2.750480436980     0.027790432770    -0.514261561014     1.007825032230
         H           -1.664632436980     2.108401432770     0.394923438986     1.007825032230
         H            0.768670563020     2.326211432770     0.231705438986     1.007825032230

  Basis Set: AUG-CC-PVTZ
    Blend: AUG-CC-PVTZ
  Basis Set: (AUG-CC-PVTZ AUX)
    Blend: AUG-CC-PVTZ-JKFIT
	 Reference Energy          =    -590.3997367684681876 [Eh]
	 Singles Energy            =      -0.0000000000000000 [Eh]
	 Same-Spin Energy          =      -0.2692820799808258 [Eh]
	 Opposite-Spin Energy      =      -0.8642593818689736 [Eh]
	 Correlation Energy        =      -1.1335414618497994 [Eh]
	 Total Energy              =    -591.5332782303179329 [Eh]

	 ================> DF-SCS-MP2 Energies <==================
	-----------------------------------------------------------
	 SCS Same-Spin Scale       =       0.3333333333333333 [-]
	 SCS Opposite-Spin Scale   =       1.2000000000000000 [-]
	 SCS Same-Spin Energy      =      -0.0897606933269419 [Eh]
	 SCS Opposite-Spin Energy  =      -1.0371112582427682 [Eh]
	 SCS Correlation Energy    =      -1.1268719515697101 [Eh]
	 SCS Total Energy          =    -591.5266087200378706 [Eh]
	-----------------------------------------------------------

  Dipole Moment: [D]
     X:    -0.8249      Y:    -0.3532      Z:     0.4972     Total:     1.0259

*** Psi4 exiting successfully. Buy a developer a beer!
