                               Psi4 1.3.2 release

  ==> Input File <==

--------------------------------------------------------------------------
#psi4
#
memory 32 gb

molecule  {
0 1
  S        1.4017960     0.0318670    -0.2267910
  C        0.2583617    -1.2018191     0.4593511
  C       -1.0366050    -1.1980160    -0.1526860
  C       -1.6877140    -0.0149620    -0.1717330
  C       -1.0273490     1.2315180     0.1753310
  C        0.3208110     1.3651600     0.1119950
  H        0.3192380    -1.2040060     1.5241050
  H        0.8310050    -2.2339400     0.1718380
  H       -1.5205060    -2.1086570    -0.4970330
  H       -2.7141090     0.0333350    -0.5285000
  H       -1.6282610     2.1139460     0.3806850
  H        0.8050420     2.3317560     0.2174670
units angstrom
no_reorient  #important for SAPT in psi4, default
symmetry c1  #important for SAPT in psi4, default
}

set PROPERTIES_ORIGIN ["COM"]
properties('MP2/aug-cc-pvtz', properties = ['dipole'])
--------------------------------------------------------------------------

    Molecular point group: c1
  Charge       = 0
  Multiplicity = 1
  Basis Set: AUG-CC-PVTZ
    Blend: AUG-CC-PVTZ
  Basis Set: (AUG-CC-PVTZ AUX)
    Blend: AUG-CC-PVTZ-JKFIT

    Orbital Energies [Eh]
    ---------------------

    Doubly Occupied:

       1A    -91.964187     2A    -11.270202     3A    -11.268994
       4A    -11.241049     5A    -11.239997     6A    -11.237632
       7A     -8.964556     8A     -6.645761     9A     -6.644708
      10A     -6.643878    11A     -1.150012    12A     -1.032644
      13A     -1.016902    14A     -0.857009    15A     -0.818307
      16A     -0.695339    17A     -0.685437    18A     -0.614322
      19A     -0.594418    20A     -0.584067    21A     -0.528540
      22A     -0.478978    23A     -0.462049    24A     -0.448462
      25A     -0.365003    26A     -0.299349

  @DF-RHF Final Energy:  -590.38731868518346

   => Energetics <=

    Nuclear Repulsion Energy =            273.5541638334151457
    One-Electron Energy =               -1352.3793648499495248
    Two-Electron Energy =                 488.4378823313508065
    Total Energy =                       -590.3873186851834589
  Basis Set: (AUG-CC-PVTZ AUX)
    Blend: AUG-CC-PVTZ-RI
    Molecular point group: c1

    Geometry (in Angstrom), charge = 0, multiplicity = 1:

       Center              X                  Y                   Z               Mass
    ------------   -----------------  -----------------  -----------------  -----------------
         S            1.373125953929     0.010182381810    -0.217554096361    31.972071174400
         C            0.229691653929    -1.223503718190     0.468588003639    12.000000000000
         C           -1.065275046071    -1.219700618190    -0.143449096361    12.000000000000
         C           -1.716384046071    -0.036646618190    -0.162496096361    12.000000000000
         C           -1.056019046071     1.209833381810     0.184567903639    12.000000000000
         C            0.292140953929     1.343475381810     0.121231903639    12.000000000000
         H            0.290567953929    -1.225690618190     1.533341903639     1.007825032230
         H            0.802334953929    -2.255624618190     0.181074903639     1.007825032230
         H           -1.549176046071    -2.130341618190    -0.487796096361     1.007825032230
         H           -2.742779046071     0.011650381810    -0.519263096361     1.007825032230
         H           -1.656931046071     2.092261381810     0.389921903639     1.007825032230
         H            0.776371953929     2.310071381810     0.226703903639     1.007825032230

  Basis Set: AUG-CC-PVTZ
    Blend: AUG-CC-PVTZ
  Basis Set: (AUG-CC-PVTZ AUX)
    Blend: AUG-CC-PVTZ-JKFIT
	 Reference Energy          =    -590.3873186851834589 [Eh]
	 Singles Energy            =      -0.0000000000000000 [Eh]
	 Same-Spin Energy          =      -0.2694284135831248 [Eh]
	 Opposite-Spin Energy      =      -0.8650587163193528 [Eh]
	 Correlation Energy        =      -1.1344871299024777 [Eh]
	 Total Energy              =    -591.5218058150859406 [Eh]

	 ================> DF-SCS-MP2 Energies <==================
	-----------------------------------------------------------
	 SCS Same-Spin Scale       =       0.3333333333333333 [-]
	 SCS Opposite-Spin Scale   =       1.2000000000000000 [-]
	 SCS Same-Spin Energy      =      -0.0898094711943749 [Eh]
	 SCS Opposite-Spin Energy  =      -1.0380704595832233 [Eh]
	 SCS Correlation Energy    =      -1.1278799307775982 [Eh]
	 SCS Total Energy          =    -591.5151986159610260 [Eh]
	-----------------------------------------------------------

  Dipole Moment: [D]
     X:    -0.8570      Y:    -0.2597      Z:     0.4966     Total:     1.0239

*** Psi4 exiting successfully. Buy a developer a beer!
