                               Psi4 1.3.2 release

  ==> Input File <==

--------------------------------------------------------------------------
#psi4
#
memory 32 gb

molecule  {
0 1
  S        1.4017960     0.0318670    -0.2267910
  C        0.3439980    -1.2907520     0.4304430
  C       -1.0366050    -1.1980160    -0.1526860
  C       -1.7324300     0.0085383    -0.1673484
  C       -1.0273490     1.2315180     0.1753310
  C        0.3208110     1.3651600     0.1119950
  H        0.3192380    -1.2040060     1.5241050
  H        0.8310050    -2.2339400     0.1718380
  H       -1.5205060    -2.1086570    -0.4970330
  H       -2.7141090     0.0333350    -0.5285000
  H       -1.6282610     2.1139460     0.3806850
  H        0.8050420     2.3317560     0.2174670
units angstrom
no_reorient  #important for SAPT in psi4, default
symmetry c1  #important for SAPT in psi4, default
}

set PROPERTIES_ORIGIN ["COM"]
properties('MP2/aug-cc-pvtz', properties = ['dipole'])
--------------------------------------------------------------------------

    Molecular point group: c1
  Charge       = 0
  Multiplicity = 1
  Basis Set: AUG-CC-PVTZ
    Blend: AUG-CC-PVTZ
  Basis Set: (AUG-CC-PVTZ AUX)
    Blend: AUG-CC-PVTZ-JKFIT

    Orbital Energies [Eh]
    ---------------------

    Doubly Occupied:

       1A    -91.962456     2A    -11.269253     3A    -11.268758
       4A    -11.250533     5A    -11.242296     6A    -11.241266
       7A     -8.962929     8A     -6.644162     9A     -6.643223
      10A     -6.642360    11A     -1.138227    12A     -1.024981
      13A     -1.017279    14A     -0.858947    15A     -0.818732
      16A     -0.700725    17A     -0.678795    18A     -0.610879
      19A     -0.597077    20A     -0.579073    21A     -0.546126
      22A     -0.481638    23A     -0.463210    24A     -0.449271
      25A     -0.360946    26A     -0.294430

  @DF-RHF Final Energy:  -590.40010483642766

   => Energetics <=

    Nuclear Repulsion Energy =            271.4019277091526305
    One-Electron Energy =               -1348.1089201654917815
    Two-Electron Energy =                 486.3068876199114356
    Total Energy =                       -590.4001048364276585
  Basis Set: (AUG-CC-PVTZ AUX)
    Blend: AUG-CC-PVTZ-RI
    Molecular point group: c1

    Geometry (in Angstrom), charge = 0, multiplicity = 1:

       Center              X                  Y                   Z               Mass
    ------------   -----------------  -----------------  -----------------  -----------------
         S            1.368116277305     0.018192982089    -0.214551801542    31.972071174400
         C            0.310318277305    -1.304426017911     0.442682198458    12.000000000000
         C           -1.070284722695    -1.211690017911    -0.140446801542    12.000000000000
         C           -1.766109722695    -0.005135717911    -0.155109201542    12.000000000000
         C           -1.061028722695     1.217843982089     0.187570198458    12.000000000000
         C            0.287131277305     1.351485982089     0.124234198458    12.000000000000
         H            0.285558277305    -1.217680017911     1.536344198458     1.007825032230
         H            0.797325277305    -2.247614017911     0.184077198458     1.007825032230
         H           -1.554185722695    -2.122331017911    -0.484793801542     1.007825032230
         H           -2.747788722695     0.019660982089    -0.516260801542     1.007825032230
         H           -1.661940722695     2.100271982089     0.392924198458     1.007825032230
         H            0.771362277305     2.318081982089     0.229706198458     1.007825032230

  Basis Set: AUG-CC-PVTZ
    Blend: AUG-CC-PVTZ
  Basis Set: (AUG-CC-PVTZ AUX)
    Blend: AUG-CC-PVTZ-JKFIT
	 Reference Energy          =    -590.4001048364276585 [Eh]
	 Singles Energy            =      -0.0000000000000000 [Eh]
	 Same-Spin Energy          =      -0.2683541202614373 [Eh]
	 Opposite-Spin Energy      =      -0.8638741332085598 [Eh]
	 Correlation Energy        =      -1.1322282534699970 [Eh]
	 Total Energy              =    -591.5323330898976337 [Eh]

	 ================> DF-SCS-MP2 Energies <==================
	-----------------------------------------------------------
	 SCS Same-Spin Scale       =       0.3333333333333333 [-]
	 SCS Opposite-Spin Scale   =       1.2000000000000000 [-]
	 SCS Same-Spin Energy      =      -0.0894513734204791 [Eh]
	 SCS Opposite-Spin Energy  =      -1.0366489598502717 [Eh]
	 SCS Correlation Energy    =      -1.1261003332707509 [Eh]
	 SCS Total Energy          =    -591.5262051696984145 [Eh]
	-----------------------------------------------------------

  Dipole Moment: [D]
     X:    -0.8459      Y:    -0.3633      Z:     0.4828     Total:     1.0395

*** Psi4 exiting successfully. Buy a developer a beer!
