                               Psi4 1.4a3.dev225

  ==> Input File <==

--------------------------------------------------------------------------
#psi4
#
memory 32 gb

molecule  {
0 1
  S        1.4017960     0.0318670    -0.2267910
  C        0.3439980    -1.2907520     0.4304430
  C       -1.0366050    -1.1980160    -0.1526860
  C       -1.6780717    -0.0324819    -0.1714509
  C       -1.0273490     1.2315180     0.1753310
  C        0.3208110     1.3651600     0.1119950
  H        0.3192380    -1.2040060     1.5241050
  H        0.8310050    -2.2339400     0.1718380
  H       -1.5205060    -2.1086570    -0.4970330
  H       -2.7141090     0.0333350    -0.5285000
  H       -1.6282610     2.1139460     0.3806850
  H        0.8050420     2.3317560     0.2174670
units angstrom
no_reorient  #important for SAPT in psi4, default
symmetry c1  #important for SAPT in psi4, default
}

set PROPERTIES_ORIGIN ["COM"]
properties('MP2/aug-cc-pvtz', properties = ['dipole'])
--------------------------------------------------------------------------

    Molecular point group: c1
  Charge       = 0
  Multiplicity = 1
  Basis Set: AUG-CC-PVTZ
    Blend: AUG-CC-PVTZ
  Basis Set: (AUG-CC-PVTZ AUX)
    Blend: AUG-CC-PVTZ-JKFIT

    Orbital Energies [Eh]
    ---------------------

    Doubly Occupied:

       1A    -91.961695     2A    -11.268379     3A    -11.267539
       4A    -11.241489     5A    -11.240580     6A    -11.238131
       7A     -8.962223     8A     -6.643467     9A     -6.642519
      10A     -6.641655    11A     -1.142566    12A     -1.028012
      13A     -1.018554    14A     -0.860684    15A     -0.815242
      16A     -0.692759    17A     -0.680308    18A     -0.608649
      19A     -0.600574    20A     -0.585660    21A     -0.531421
      22A     -0.483431    23A     -0.463074    24A     -0.450877
      25A     -0.365438    26A     -0.299632

  @DF-RHF Final Energy:  -590.40600998803313

   => Energetics <=

    Nuclear Repulsion Energy =            272.4021081766372276
    One-Electron Energy =               -1350.1471196647764828
    Two-Electron Energy =                 487.3390015001061215
    Total Energy =                       -590.4060099880330199
  Basis Set: (AUG-CC-PVTZ AUX)
    Blend: AUG-CC-PVTZ-RI
    Molecular point group: c1

    Geometry (in Angstrom), charge = 0, multiplicity = 1:

       Center              X                  Y                   Z               Mass
    ------------   -----------------  -----------------  -----------------  -----------------
         S            1.361461450610     0.023214888992    -0.214049552088    31.972071174400
         C            0.303663450610    -1.299404111008     0.443184447912    12.000000000000
         C           -1.076939549390    -1.206668111008    -0.139944552088    12.000000000000
         C           -1.718406249390    -0.041134011008    -0.158709452088    12.000000000000
         C           -1.067683549390     1.222865888992     0.188072447912    12.000000000000
         C            0.280476450610     1.356507888992     0.124736447912    12.000000000000
         H            0.278903450610    -1.212658111008     1.536846447912     1.007825032230
         H            0.790670450610    -2.242592111008     0.184579447912     1.007825032230
         H           -1.560840549390    -2.117309111008    -0.484291552088     1.007825032230
         H           -2.754443549390     0.024682888992    -0.515758552088     1.007825032230
         H           -1.668595549390     2.105293888992     0.393426447912     1.007825032230
         H            0.764707450610     2.323103888992     0.230208447912     1.007825032230

  Basis Set: AUG-CC-PVTZ
    Blend: AUG-CC-PVTZ
  Basis Set: (AUG-CC-PVTZ AUX)
    Blend: AUG-CC-PVTZ-JKFIT
	 Reference Energy          =    -590.4060099880331336 [Eh]
	 Singles Energy            =      -0.0000000000000000 [Eh]
	 Same-Spin Energy          =      -0.2673917489919404 [Eh]
	 Opposite-Spin Energy      =      -0.8619693647142512 [Eh]
	 Correlation Energy        =      -1.1293611137061916 [Eh]
	 Total Energy              =    -591.5353711017393152 [Eh]

	 ================> DF-SCS-MP2 Energies <==================
	-----------------------------------------------------------
	 SCS Same-Spin Scale       =       0.3333333333333333 [-]
	 SCS Opposite-Spin Scale   =       1.2000000000000000 [-]
	 SCS Same-Spin Energy      =      -0.0891305829973135 [Eh]
	 SCS Opposite-Spin Energy  =      -1.0343632376571015 [Eh]
	 SCS Correlation Energy    =      -1.1234938206544149 [Eh]
	 SCS Total Energy          =    -591.5295038086875365 [Eh]
	-----------------------------------------------------------

  Dipole Moment: [D]
     X:    -0.8709      Y:    -0.3603      Z:     0.4954     Total:     1.0647

*** Psi4 exiting successfully. Buy a developer a beer!
