                               Psi4 1.4a3.dev225

  ==> Input File <==

--------------------------------------------------------------------------
#psi4
#
memory 32 gb

molecule  {
0 1
  S        1.4017960     0.0318670    -0.2267910
  C        0.3439980    -1.2907520     0.4304430
  C       -1.0366050    -1.1980160    -0.1526860
  C       -1.6877140    -0.0149620    -0.1717330
  C       -1.0273490     1.2315180     0.1753310
  C        0.2899180     1.4032636     0.1216770
  H        0.3192380    -1.2040060     1.5241050
  H        0.8310050    -2.2339400     0.1718380
  H       -1.5205060    -2.1086570    -0.4970330
  H       -2.7141090     0.0333350    -0.5285000
  H       -1.6282610     2.1139460     0.3806850
  H        0.8050420     2.3317560     0.2174670
units angstrom
no_reorient  #important for SAPT in psi4, default
symmetry c1  #important for SAPT in psi4, default
}

set PROPERTIES_ORIGIN ["COM"]
properties('MP2/aug-cc-pvtz', properties = ['dipole'])
--------------------------------------------------------------------------

    Molecular point group: c1
  Charge       = 0
  Multiplicity = 1
  Basis Set: AUG-CC-PVTZ
    Blend: AUG-CC-PVTZ
  Basis Set: (AUG-CC-PVTZ AUX)
    Blend: AUG-CC-PVTZ-JKFIT

    Orbital Energies [Eh]
    ---------------------

    Doubly Occupied:

       1A    -91.959432     2A    -11.267070     3A    -11.266235
       4A    -11.245377     5A    -11.240703     6A    -11.239411
       7A     -8.959234     8A     -6.640397     9A     -6.639518
      10A     -6.638652    11A     -1.140768    12A     -1.031138
      13A     -1.013950    14A     -0.857268    15A     -0.819807
      16A     -0.698434    17A     -0.680902    18A     -0.612527
      19A     -0.601517    20A     -0.583379    21A     -0.535139
      22A     -0.480353    23A     -0.457840    24A     -0.450288
      25A     -0.361176    26A     -0.303676

  @DF-RHF Final Energy:  -590.40526564559605

   => Energetics <=

    Nuclear Repulsion Energy =            271.6096817907140917
    One-Electron Energy =               -1348.5815142331002789
    Two-Electron Energy =                 486.5665667967900276
    Total Energy =                       -590.4052656455960459
  Basis Set: (AUG-CC-PVTZ AUX)
    Blend: AUG-CC-PVTZ-RI
    Molecular point group: c1

    Geometry (in Angstrom), charge = 0, multiplicity = 1:

       Center              X                  Y                   Z               Mass
    ------------   -----------------  -----------------  -----------------  -----------------
         S            1.366423993525     0.016405169912    -0.215200336889    31.972071174400
         C            0.308625993525    -1.306213830088     0.442033663111    12.000000000000
         C           -1.071977006475    -1.213477830088    -0.141095336889    12.000000000000
         C           -1.723086006475    -0.030423830088    -0.160142336889    12.000000000000
         C           -1.062721006475     1.216056169912     0.186921663111    12.000000000000
         C            0.254545993525     1.387801769912     0.133267663111    12.000000000000
         H            0.283865993525    -1.219467830088     1.535695663111     1.007825032230
         H            0.795632993525    -2.249401830088     0.183428663111     1.007825032230
         H           -1.555878006475    -2.124118830088    -0.485442336889     1.007825032230
         H           -2.749481006475     0.017873169912    -0.516909336889     1.007825032230
         H           -1.663633006475     2.098484169912     0.392275663111     1.007825032230
         H            0.769669993525     2.316294169912     0.229057663111     1.007825032230

  Basis Set: AUG-CC-PVTZ
    Blend: AUG-CC-PVTZ
  Basis Set: (AUG-CC-PVTZ AUX)
    Blend: AUG-CC-PVTZ-JKFIT
	 Reference Energy          =    -590.4052656455960459 [Eh]
	 Singles Energy            =      -0.0000000000000000 [Eh]
	 Same-Spin Energy          =      -0.2668675417042122 [Eh]
	 Opposite-Spin Energy      =      -0.8617045382109794 [Eh]
	 Correlation Energy        =      -1.1285720799151915 [Eh]
	 Total Energy              =    -591.5338377255112619 [Eh]

	 ================> DF-SCS-MP2 Energies <==================
	-----------------------------------------------------------
	 SCS Same-Spin Scale       =       0.3333333333333333 [-]
	 SCS Opposite-Spin Scale   =       1.2000000000000000 [-]
	 SCS Same-Spin Energy      =      -0.0889558472347374 [Eh]
	 SCS Opposite-Spin Energy  =      -1.0340454458531751 [Eh]
	 SCS Correlation Energy    =      -1.1230012930879125 [Eh]
	 SCS Total Energy          =    -591.5282669386839416 [Eh]
	-----------------------------------------------------------

  Dipole Moment: [D]
     X:    -0.9961      Y:    -0.3052      Z:     0.5092     Total:     1.1596

*** Psi4 exiting successfully. Buy a developer a beer!
