                               Psi4 1.3.2 release

  ==> Input File <==

--------------------------------------------------------------------------
#psi4
#
memory 32 gb

molecule  {
0 1
  S        1.4017960     0.0318670    -0.2267910
  C        0.3439980    -1.2907520     0.4304430
  C       -1.0366050    -1.1980160    -0.1526860
  C       -1.6877140    -0.0149620    -0.1717330
  C       -1.0273490     1.2315180     0.1753310
  C        0.3259051     1.2257948     0.0854559
  H        0.3192380    -1.2040060     1.5241050
  H        0.8310050    -2.2339400     0.1718380
  H       -1.5205060    -2.1086570    -0.4970330
  H       -2.7141090     0.0333350    -0.5285000
  H       -1.6282610     2.1139460     0.3806850
  H        0.8050420     2.3317560     0.2174670
units angstrom
no_reorient  #important for SAPT in psi4, default
symmetry c1  #important for SAPT in psi4, default
}

set PROPERTIES_ORIGIN ["COM"]
properties('MP2/aug-cc-pvtz', properties = ['dipole'])
--------------------------------------------------------------------------

    Molecular point group: c1
  Charge       = 0
  Multiplicity = 1
  Basis Set: AUG-CC-PVTZ
    Blend: AUG-CC-PVTZ
  Basis Set: (AUG-CC-PVTZ AUX)
    Blend: AUG-CC-PVTZ-JKFIT

    Orbital Energies [Eh]
    ---------------------

    Doubly Occupied:

       1A    -91.966975     2A    -11.273090     3A    -11.268146
       4A    -11.237774     5A    -11.236621     6A    -11.235789
       7A     -8.969932     8A     -6.651443     9A     -6.650028
      10A     -6.649209    11A     -1.154024    12A     -1.033677
      13A     -1.021104    14A     -0.869010    15A     -0.804881
      16A     -0.688604    17A     -0.671106    18A     -0.614036
      19A     -0.600114    20A     -0.569889    21A     -0.534028
      22A     -0.489113    23A     -0.476518    24A     -0.447044
      25A     -0.368372    26A     -0.290720

  @DF-RHF Final Energy:  -590.38289667653135

   => Energetics <=

    Nuclear Repulsion Energy =            274.8722807628260512
    One-Electron Energy =               -1354.9678611211622865
    Two-Electron Energy =                 489.7126836818050037
    Total Energy =                       -590.3828966765313453
  Basis Set: (AUG-CC-PVTZ AUX)
    Blend: AUG-CC-PVTZ-RI
    Molecular point group: c1

    Geometry (in Angstrom), charge = 0, multiplicity = 1:

       Center              X                  Y                   Z               Mass
    ------------   -----------------  -----------------  -----------------  -----------------
         S            1.362018264984     0.038131826333    -0.210765960847    31.972071174400
         C            0.304220264984    -1.284487173667     0.446468039153    12.000000000000
         C           -1.076382735016    -1.191751173667    -0.136660960847    12.000000000000
         C           -1.727491735016    -0.008697173667    -0.155707960847    12.000000000000
         C           -1.067126735016     1.237782826333     0.191356039153    12.000000000000
         C            0.286127364984     1.232059626333     0.101480939153    12.000000000000
         H            0.279460264984    -1.197741173667     1.540130039153     1.007825032230
         H            0.791227264984    -2.227675173667     0.187863039153     1.007825032230
         H           -1.560283735016    -2.102392173667    -0.481007960847     1.007825032230
         H           -2.753886735016     0.039599826333    -0.512474960847     1.007825032230
         H           -1.668038735016     2.120210826333     0.396710039153     1.007825032230
         H            0.765264264984     2.338020826333     0.233492039153     1.007825032230

  Basis Set: AUG-CC-PVTZ
    Blend: AUG-CC-PVTZ
  Basis Set: (AUG-CC-PVTZ AUX)
    Blend: AUG-CC-PVTZ-JKFIT
	 Reference Energy          =    -590.3828966765313453 [Eh]
	 Singles Energy            =      -0.0000000000000000 [Eh]
	 Same-Spin Energy          =      -0.2702396209992350 [Eh]
	 Opposite-Spin Energy      =      -0.8649926817843445 [Eh]
	 Correlation Energy        =      -1.1352323027835796 [Eh]
	 Total Energy              =    -591.5181289793149517 [Eh]

	 ================> DF-SCS-MP2 Energies <==================
	-----------------------------------------------------------
	 SCS Same-Spin Scale       =       0.3333333333333333 [-]
	 SCS Opposite-Spin Scale   =       1.2000000000000000 [-]
	 SCS Same-Spin Energy      =      -0.0900798736664117 [Eh]
	 SCS Opposite-Spin Energy  =      -1.0379912181412134 [Eh]
	 SCS Correlation Energy    =      -1.1280710918076251 [Eh]
	 SCS Total Energy          =    -591.5109677683390146 [Eh]
	-----------------------------------------------------------

  Dipole Moment: [D]
     X:    -0.5502      Y:    -0.4598      Z:     0.4642     Total:     0.8542

*** Psi4 exiting successfully. Buy a developer a beer!
