                               Psi4 1.3.2 release

  ==> Input File <==

--------------------------------------------------------------------------
#psi4
#
memory 32 gb

molecule  {
0 1
  S        1.4017960     0.0318670    -0.2267910
  C        0.3439980    -1.2907520     0.4304430
  C       -1.0366050    -1.1980160    -0.1526860
  C       -1.6877140    -0.0149620    -0.1717330
  C       -1.0328603     1.3719637     0.1952701
  C        0.3208110     1.3651600     0.1119950
  H        0.3192380    -1.2040060     1.5241050
  H        0.8310050    -2.2339400     0.1718380
  H       -1.5205060    -2.1086570    -0.4970330
  H       -2.7141090     0.0333350    -0.5285000
  H       -1.6282610     2.1139460     0.3806850
  H        0.8050420     2.3317560     0.2174670
units angstrom
no_reorient  #important for SAPT in psi4, default
symmetry c1  #important for SAPT in psi4, default
}

set PROPERTIES_ORIGIN ["COM"]
properties('MP2/aug-cc-pvtz', properties = ['dipole'])
--------------------------------------------------------------------------

    Molecular point group: c1
  Charge       = 0
  Multiplicity = 1
  Basis Set: AUG-CC-PVTZ
    Blend: AUG-CC-PVTZ
  Basis Set: (AUG-CC-PVTZ AUX)
    Blend: AUG-CC-PVTZ-JKFIT

    Orbital Energies [Eh]
    ---------------------

    Doubly Occupied:

       1A    -91.966030     2A    -11.270001     3A    -11.267844
       4A    -11.246150     5A    -11.241023     6A    -11.240277
       7A     -8.966251     8A     -6.647524     9A     -6.646465
      10A     -6.645628    11A     -1.132151    12A     -1.029582
      13A     -1.010100    14A     -0.868603    15A     -0.807798
      16A     -0.702584    17A     -0.684905    18A     -0.625063
      19A     -0.587493    20A     -0.583489    21A     -0.524015
      22A     -0.479732    23A     -0.466746    24A     -0.443176
      25A     -0.360745    26A     -0.305227

  @DF-RHF Final Energy:  -590.38408835244320

   => Energetics <=

    Nuclear Repulsion Energy =            270.2497640942409021
    One-Electron Energy =               -1345.7705025021884921
    Two-Electron Energy =                 485.1366500555044468
    Total Energy =                       -590.3840883524432002
  Basis Set: (AUG-CC-PVTZ AUX)
    Blend: AUG-CC-PVTZ-RI
    Molecular point group: c1

    Geometry (in Angstrom), charge = 0, multiplicity = 1:

       Center              X                  Y                   Z               Mass
    ------------   -----------------  -----------------  -----------------  -----------------
         S            1.363316633385     0.003875916071    -0.216456064586    31.972071174400
         C            0.305518633385    -1.318743083929     0.440777935414    12.000000000000
         C           -1.075084366615    -1.226007083929    -0.142351064586    12.000000000000
         C           -1.726193366615    -0.042953083929    -0.161398064586    12.000000000000
         C           -1.071339666615     1.343972616071     0.205605035414    12.000000000000
         C            0.282331633385     1.337168916071     0.122329935414    12.000000000000
         H            0.280758633385    -1.231997083929     1.534439935414     1.007825032230
         H            0.792525633385    -2.261931083929     0.182172935414     1.007825032230
         H           -1.558985366615    -2.136648083929    -0.486698064586     1.007825032230
         H           -2.752588366615     0.005343916071    -0.518165064586     1.007825032230
         H           -1.666740366615     2.085954916071     0.391019935414     1.007825032230
         H            0.766562633385     2.303764916071     0.227801935414     1.007825032230

  Basis Set: AUG-CC-PVTZ
    Blend: AUG-CC-PVTZ
  Basis Set: (AUG-CC-PVTZ AUX)
    Blend: AUG-CC-PVTZ-JKFIT
	 Reference Energy          =    -590.3840883524432002 [Eh]
	 Singles Energy            =      -0.0000000000000000 [Eh]
	 Same-Spin Energy          =      -0.2661454344132344 [Eh]
	 Opposite-Spin Energy      =      -0.8624551419844586 [Eh]
	 Correlation Energy        =      -1.1286005763976930 [Eh]
	 Total Energy              =    -591.5126889288409302 [Eh]

	 ================> DF-SCS-MP2 Energies <==================
	-----------------------------------------------------------
	 SCS Same-Spin Scale       =       0.3333333333333333 [-]
	 SCS Opposite-Spin Scale   =       1.2000000000000000 [-]
	 SCS Same-Spin Energy      =      -0.0887151448044115 [Eh]
	 SCS Opposite-Spin Energy  =      -1.0349461703813503 [Eh]
	 SCS Correlation Energy    =      -1.1236613151857617 [Eh]
	 SCS Total Energy          =    -591.5077496676290139 [Eh]
	-----------------------------------------------------------

  Dipole Moment: [D]
     X:    -0.8147      Y:    -0.3895      Z:     0.5023     Total:     1.0334

*** Psi4 exiting successfully. Buy a developer a beer!
