                               Psi4 1.3.2 release

  ==> Input File <==

--------------------------------------------------------------------------
#psi4
#
memory 32 gb

molecule  {
0 1
  S        1.4017960     0.0318670    -0.2267910
  C        0.3439980    -1.2907520     0.4304430
  C       -1.0264213    -1.2008792    -0.1766631
  C       -1.6877140    -0.0149620    -0.1717330
  C       -1.0273490     1.2315180     0.1753310
  C        0.3208110     1.3651600     0.1119950
  H        0.3192380    -1.2040060     1.5241050
  H        0.8310050    -2.2339400     0.1718380
  H       -1.5205060    -2.1086570    -0.4970330
  H       -2.7141090     0.0333350    -0.5285000
  H       -1.6282610     2.1139460     0.3806850
  H        0.8050420     2.3317560     0.2174670
units angstrom
no_reorient  #important for SAPT in psi4, default
symmetry c1  #important for SAPT in psi4, default
}

set PROPERTIES_ORIGIN ["COM"]
properties('MP2/aug-cc-pvtz', properties = ['dipole'])
--------------------------------------------------------------------------

    Molecular point group: c1
  Charge       = 0
  Multiplicity = 1
  Basis Set: AUG-CC-PVTZ
    Blend: AUG-CC-PVTZ
  Basis Set: (AUG-CC-PVTZ AUX)
    Blend: AUG-CC-PVTZ-JKFIT

    Orbital Energies [Eh]
    ---------------------

    Doubly Occupied:

       1A    -91.962146     2A    -11.268795     3A    -11.267960
       4A    -11.243945     5A    -11.241315     6A    -11.240428
       7A     -8.962638     8A     -6.643870     9A     -6.642933
      10A     -6.642075    11A     -1.141306    12A     -1.026308
      13A     -1.018269    14A     -0.859021    15A     -0.817591
      16A     -0.694216    17A     -0.680961    18A     -0.607964
      19A     -0.599921    20A     -0.584406    21A     -0.535047
      22A     -0.484022    23A     -0.462869    24A     -0.450840
      25A     -0.362860    26A     -0.297540

  @DF-RHF Final Energy:  -590.40462702078730

   => Energetics <=

    Nuclear Repulsion Energy =            272.1697485730148287
    One-Electron Energy =               -1349.6702599782463494
    Two-Electron Energy =                 487.0958843844441617
    Total Energy =                       -590.4046270207873022
  Basis Set: (AUG-CC-PVTZ AUX)
    Blend: AUG-CC-PVTZ-RI
    Molecular point group: c1

    Geometry (in Angstrom), charge = 0, multiplicity = 1:

       Center              X                  Y                   Z               Mass
    ------------   -----------------  -----------------  -----------------  -----------------
         S            1.361395169598     0.021420539308    -0.211079614254    31.972071174400
         C            0.303597169598    -1.301198460692     0.446154385746    12.000000000000
         C           -1.066822130402    -1.211325660692    -0.160951714254    12.000000000000
         C           -1.728114830402    -0.025408460692    -0.156021614254    12.000000000000
         C           -1.067749830402     1.221071539308     0.191042385746    12.000000000000
         C            0.280410169598     1.354713539308     0.127706385746    12.000000000000
         H            0.278837169598    -1.214452460692     1.539816385746     1.007825032230
         H            0.790604169598    -2.244386460692     0.187549385746     1.007825032230
         H           -1.560906830402    -2.119103460692    -0.481321614254     1.007825032230
         H           -2.754509830402     0.022888539308    -0.512788614254     1.007825032230
         H           -1.668661830402     2.103499539308     0.396396385746     1.007825032230
         H            0.764641169598     2.321309539308     0.233178385746     1.007825032230

  Basis Set: AUG-CC-PVTZ
    Blend: AUG-CC-PVTZ
  Basis Set: (AUG-CC-PVTZ AUX)
    Blend: AUG-CC-PVTZ-JKFIT
	 Reference Energy          =    -590.4046270207873022 [Eh]
	 Singles Energy            =      -0.0000000000000000 [Eh]
	 Same-Spin Energy          =      -0.2680196683410323 [Eh]
	 Opposite-Spin Energy      =      -0.8629463062026650 [Eh]
	 Correlation Energy        =      -1.1309659745436973 [Eh]
	 Total Energy              =    -591.5355929953309442 [Eh]

	 ================> DF-SCS-MP2 Energies <==================
	-----------------------------------------------------------
	 SCS Same-Spin Scale       =       0.3333333333333333 [-]
	 SCS Opposite-Spin Scale   =       1.2000000000000000 [-]
	 SCS Same-Spin Energy      =      -0.0893398894470108 [Eh]
	 SCS Opposite-Spin Energy  =      -1.0355355674431979 [Eh]
	 SCS Correlation Energy    =      -1.1248754568902086 [Eh]
	 SCS Total Energy          =    -591.5295024776775108 [Eh]
	-----------------------------------------------------------

  Dipole Moment: [D]
     X:    -0.8616      Y:    -0.3577      Z:     0.5189     Total:     1.0675

*** Psi4 exiting successfully. Buy a developer a beer!
