                               Psi4 1.4a3.dev225

  ==> Input File <==

--------------------------------------------------------------------------
#psi4
#
memory 32 gb

molecule  {
0 1
  S        1.4017960     0.0318670    -0.2267910
  C        0.3439980    -1.2907520     0.4304430
  C       -1.0366050    -1.1980160    -0.1526860
  C       -1.6877140    -0.0149620    -0.1717330
  C       -1.0273490     1.2315180     0.1753310
  C        0.3208110     1.3651600     0.1119950
  H        0.3192380    -1.2040060     1.5241050
  H        0.8310050    -2.2339400     0.1718380
  H       -1.5205060    -2.1086570    -0.4970330
  H       -2.7141090     0.0333350    -0.5285000
  H       -1.6282610     2.1139460     0.3806850
  H        0.7827526     2.2872632     0.2126121
units angstrom
no_reorient  #important for SAPT in psi4, default
symmetry c1  #important for SAPT in psi4, default
}

set PROPERTIES_ORIGIN ["COM"]
properties('MP2/aug-cc-pvtz', properties = ['dipole'])
--------------------------------------------------------------------------

    Molecular point group: c1
  Charge       = 0
  Multiplicity = 1
  Basis Set: AUG-CC-PVTZ
    Blend: AUG-CC-PVTZ
  Basis Set: (AUG-CC-PVTZ AUX)
    Blend: AUG-CC-PVTZ-JKFIT

    Orbital Energies [Eh]
    ---------------------

    Doubly Occupied:

       1A    -91.961649     2A    -11.267707     3A    -11.263095
       4A    -11.243435     5A    -11.240904     6A    -11.239212
       7A     -8.962183     8A     -6.643428     9A     -6.642483
      10A     -6.641626    11A     -1.142023    12A     -1.028202
      13A     -1.018931    14A     -0.859505    15A     -0.821377
      16A     -0.699975    17A     -0.680897    18A     -0.609705
      19A     -0.600234    20A     -0.586203    21A     -0.534823
      22A     -0.485586    23A     -0.463145    24A     -0.450545
      25A     -0.363875    26A     -0.297601

  @DF-RHF Final Energy:  -590.40464897750030

   => Energetics <=

    Nuclear Repulsion Energy =            272.4719699435141251
    One-Electron Energy =               -1350.2565419276152170
    Two-Electron Energy =                 487.3799230066007908
    Total Energy =                       -590.4046489775003010
  Basis Set: (AUG-CC-PVTZ AUX)
    Blend: AUG-CC-PVTZ-RI
    Molecular point group: c1

    Geometry (in Angstrom), charge = 0, multiplicity = 1:

       Center              X                  Y                   Z               Mass
    ------------   -----------------  -----------------  -----------------  -----------------
         S            1.362871089407     0.021527483424    -0.213965098176    31.972071174400
         C            0.305073089407    -1.301091516576     0.443268901824    12.000000000000
         C           -1.075529910593    -1.208355516576    -0.139860098176    12.000000000000
         C           -1.726638910593    -0.025301516576    -0.158907098176    12.000000000000
         C           -1.066273910593     1.221178483424     0.188156901824    12.000000000000
         C            0.281886089407     1.354820483424     0.124820901824    12.000000000000
         H            0.280313089407    -1.214345516576     1.536930901824     1.007825032230
         H            0.792080089407    -2.244279516576     0.184663901824     1.007825032230
         H           -1.559430910593    -2.118996516576    -0.484207098176     1.007825032230
         H           -2.753033910593     0.022995483424    -0.515674098176     1.007825032230
         H           -1.667185910593     2.103606483424     0.393510901824     1.007825032230
         H            0.743827689407     2.276923683424     0.225438001824     1.007825032230

  Basis Set: AUG-CC-PVTZ
    Blend: AUG-CC-PVTZ
  Basis Set: (AUG-CC-PVTZ AUX)
    Blend: AUG-CC-PVTZ-JKFIT
	 Reference Energy          =    -590.4046489775003010 [Eh]
	 Singles Energy            =      -0.0000000000000000 [Eh]
	 Same-Spin Energy          =      -0.2677055068062184 [Eh]
	 Opposite-Spin Energy      =      -0.8623491021467333 [Eh]
	 Correlation Energy        =      -1.1300546089529517 [Eh]
	 Total Energy              =    -591.5347035864532472 [Eh]

	 ================> DF-SCS-MP2 Energies <==================
	-----------------------------------------------------------
	 SCS Same-Spin Scale       =       0.3333333333333333 [-]
	 SCS Opposite-Spin Scale   =       1.2000000000000000 [-]
	 SCS Same-Spin Energy      =      -0.0892351689354061 [Eh]
	 SCS Opposite-Spin Energy  =      -1.0348189225760800 [Eh]
	 SCS Correlation Energy    =      -1.1240540915114861 [Eh]
	 SCS Total Energy          =    -591.5287030690118399 [Eh]
	-----------------------------------------------------------

  Dipole Moment: [D]
     X:    -0.8641      Y:    -0.3493      Z:     0.4958     Total:     1.0557

*** Psi4 exiting successfully. Buy a developer a beer!
