                               Psi4 1.3.2 release

  ==> Input File <==

--------------------------------------------------------------------------
#psi4
#
memory 32 gb

molecule  {
0 1
  S        1.4017960     0.0318670    -0.2267910
  C        0.3439980    -1.2907520     0.4304430
  C       -1.0366050    -1.1980160    -0.1526860
  C       -1.6877140    -0.0149620    -0.1717330
  C       -1.0273490     1.2315180     0.1753310
  C        0.3208110     1.3651600     0.1119950
  H        0.3192380    -1.2040060     1.5241050
  H        0.8310050    -2.2339400     0.1718380
  H       -1.5205060    -2.1086570    -0.4970330
  H       -2.7141090     0.0333350    -0.5285000
  H       -1.6282610     2.1139460     0.3806850
  H        0.8496207     2.4207417     0.2271768
units angstrom
no_reorient  #important for SAPT in psi4, default
symmetry c1  #important for SAPT in psi4, default
}

set PROPERTIES_ORIGIN ["COM"]
properties('MP2/aug-cc-pvtz', properties = ['dipole'])
--------------------------------------------------------------------------

    Molecular point group: c1
  Charge       = 0
  Multiplicity = 1
  Basis Set: AUG-CC-PVTZ
    Blend: AUG-CC-PVTZ
  Basis Set: (AUG-CC-PVTZ AUX)
    Blend: AUG-CC-PVTZ-JKFIT

    Orbital Energies [Eh]
    ---------------------

    Doubly Occupied:

       1A    -91.963013     2A    -11.279220     3A    -11.268250
       4A    -11.243793     5A    -11.241528     6A    -11.239945
       7A     -8.963438     8A     -6.644663     9A     -6.643721
      10A     -6.642851    11A     -1.141468    12A     -1.024134
      13A     -1.019031    14A     -0.860115    15A     -0.810838
      16A     -0.686893    17A     -0.676313    18A     -0.607961
      19A     -0.599212    20A     -0.578289    21A     -0.535130
      22A     -0.479482    23A     -0.463792    24A     -0.450988
      25A     -0.364052    26A     -0.298062

  @DF-RHF Final Energy:  -590.39814778631592

   => Energetics <=

    Nuclear Repulsion Energy =            271.7146506165264555
    One-Electron Energy =               -1348.7732266851423901
    Two-Electron Energy =                 486.6604282822999039
    Total Energy =                       -590.3981477863159171
  Basis Set: (AUG-CC-PVTZ AUX)
    Blend: AUG-CC-PVTZ-RI
    Molecular point group: c1

    Geometry (in Angstrom), charge = 0, multiplicity = 1:

       Center              X                  Y                   Z               Mass
    ------------   -----------------  -----------------  -----------------  -----------------
         S            1.362183556068     0.020155066401    -0.214114851449    31.972071174400
         C            0.304385556068    -1.302463933599     0.443119148551    12.000000000000
         C           -1.076217443932    -1.209727933599    -0.140009851449    12.000000000000
         C           -1.727326443932    -0.026673933599    -0.159056851449    12.000000000000
         C           -1.066961443932     1.219806066401     0.188007148551    12.000000000000
         C            0.281198556068     1.353448066401     0.124671148551    12.000000000000
         H            0.279625556068    -1.215717933599     1.536781148551     1.007825032230
         H            0.791392556068    -2.245651933599     0.184514148551     1.007825032230
         H           -1.560118443932    -2.120368933599    -0.484356851449     1.007825032230
         H           -2.753721443932     0.021623066401    -0.515823851449     1.007825032230
         H           -1.667873443932     2.102234066401     0.393361148551     1.007825032230
         H            0.810008256068     2.409029766401     0.239852948551     1.007825032230

  Basis Set: AUG-CC-PVTZ
    Blend: AUG-CC-PVTZ
  Basis Set: (AUG-CC-PVTZ AUX)
    Blend: AUG-CC-PVTZ-JKFIT
	 Reference Energy          =    -590.3981477863159171 [Eh]
	 Singles Energy            =      -0.0000000000000000 [Eh]
	 Same-Spin Energy          =      -0.2680521522759176 [Eh]
	 Opposite-Spin Energy      =      -0.8634393041801449 [Eh]
	 Correlation Energy        =      -1.1314914564560625 [Eh]
	 Total Energy              =    -591.5296392427719638 [Eh]

	 ================> DF-SCS-MP2 Energies <==================
	-----------------------------------------------------------
	 SCS Same-Spin Scale       =       0.3333333333333333 [-]
	 SCS Opposite-Spin Scale   =       1.2000000000000000 [-]
	 SCS Same-Spin Energy      =      -0.0893507174253059 [Eh]
	 SCS Opposite-Spin Energy  =      -1.0361271650161739 [Eh]
	 SCS Correlation Energy    =      -1.1254778824414797 [Eh]
	 SCS Total Energy          =    -591.5236256687574041 [Eh]
	-----------------------------------------------------------

  Dipole Moment: [D]
     X:    -0.8557      Y:    -0.3852      Z:     0.4940     Total:     1.0605

*** Psi4 exiting successfully. Buy a developer a beer!
