                               Psi4 1.3.2 release

  ==> Input File <==

--------------------------------------------------------------------------
#psi4
#
memory 32 gb

molecule  {
0 1
  S        1.4017960     0.0318670    -0.2267910
  C        0.3400248    -1.4436718     0.3943493
  C       -1.0366050    -1.1980160    -0.1526860
  C       -1.6877140    -0.0149620    -0.1717330
  C       -1.0273490     1.2315180     0.1753310
  C        0.3208110     1.3651600     0.1119950
  H        0.3192380    -1.2040060     1.5241050
  H        0.8310050    -2.2339400     0.1718380
  H       -1.5205060    -2.1086570    -0.4970330
  H       -2.7141090     0.0333350    -0.5285000
  H       -1.6282610     2.1139460     0.3806850
  H        0.8050420     2.3317560     0.2174670
units angstrom
no_reorient  #important for SAPT in psi4, default
symmetry c1  #important for SAPT in psi4, default
}

set PROPERTIES_ORIGIN ["COM"]
properties('MP2/aug-cc-pvtz', properties = ['dipole'])
--------------------------------------------------------------------------

    Molecular point group: c1
  Charge       = 0
  Multiplicity = 1
  Basis Set: AUG-CC-PVTZ
    Blend: AUG-CC-PVTZ
  Basis Set: (AUG-CC-PVTZ AUX)
    Blend: AUG-CC-PVTZ-JKFIT

    Orbital Energies [Eh]
    ---------------------

    Doubly Occupied:

       1A    -91.959832     2A    -11.272807     3A    -11.270047
       4A    -11.247281     5A    -11.242519     6A    -11.239775
       7A     -8.959391     8A     -6.640498     9A     -6.639674
      10A     -6.638837    11A     -1.135716    12A     -1.031508
      13A     -1.012682    14A     -0.871806    15A     -0.815629
      16A     -0.705463    17A     -0.675741    18A     -0.630629
      19A     -0.598142    20A     -0.579877    21A     -0.540389
      22A     -0.483992    23A     -0.455344    24A     -0.443054
      25A     -0.361204    26A     -0.293670

  @DF-RHF Final Energy:  -590.38031904347235

   => Energetics <=

    Nuclear Repulsion Energy =            270.0534316867110078
    One-Electron Energy =               -1345.3764898593610724
    Two-Electron Energy =                 484.9427391291776530
    Total Energy =                       -590.3803190434723547
  Basis Set: (AUG-CC-PVTZ AUX)
    Blend: AUG-CC-PVTZ-RI
    Molecular point group: c1

    Geometry (in Angstrom), charge = 0, multiplicity = 1:

       Center              X                  Y                   Z               Mass
    ------------   -----------------  -----------------  -----------------  -----------------
         S            1.363128331158     0.039791251185    -0.209596236865    31.972071174400
         C            0.301357131158    -1.435747548815     0.411544063135    12.000000000000
         C           -1.075272668842    -1.190091748815    -0.135491236865    12.000000000000
         C           -1.726381668842    -0.007037748815    -0.154538236865    12.000000000000
         C           -1.066016668842     1.239442251185     0.192525763135    12.000000000000
         C            0.282143331158     1.373084251185     0.129189763135    12.000000000000
         H            0.280570331158    -1.196081748815     1.541299763135     1.007825032230
         H            0.792337331158    -2.226015748815     0.189032763135     1.007825032230
         H           -1.559173668842    -2.100732748815    -0.479838236865     1.007825032230
         H           -2.752776668842     0.041259251185    -0.511305236865     1.007825032230
         H           -1.666928668842     2.121870251185     0.397879763135     1.007825032230
         H            0.766374331158     2.339680251185     0.234661763135     1.007825032230

  Basis Set: AUG-CC-PVTZ
    Blend: AUG-CC-PVTZ
  Basis Set: (AUG-CC-PVTZ AUX)
    Blend: AUG-CC-PVTZ-JKFIT
	 Reference Energy          =    -590.3803190434723547 [Eh]
	 Singles Energy            =      -0.0000000000000000 [Eh]
	 Same-Spin Energy          =      -0.2675352428328979 [Eh]
	 Opposite-Spin Energy      =      -0.8631243067421419 [Eh]
	 Correlation Energy        =      -1.1306595495750398 [Eh]
	 Total Energy              =    -591.5109785930474118 [Eh]

	 ================> DF-SCS-MP2 Energies <==================
	-----------------------------------------------------------
	 SCS Same-Spin Scale       =       0.3333333333333333 [-]
	 SCS Opposite-Spin Scale   =       1.2000000000000000 [-]
	 SCS Same-Spin Energy      =      -0.0891784142776326 [Eh]
	 SCS Opposite-Spin Energy  =      -1.0357491680905702 [Eh]
	 SCS Correlation Energy    =      -1.1249275823682028 [Eh]
	 SCS Total Energy          =    -591.5052466258405275 [Eh]
	-----------------------------------------------------------

  Dipole Moment: [D]
     X:    -0.9053      Y:    -0.4628      Z:     0.5248     Total:     1.1442

*** Psi4 exiting successfully. Buy a developer a beer!
