                               Psi4 1.4a3.dev225

  ==> Input File <==

--------------------------------------------------------------------------
#psi4
#
memory 32 gb

molecule  {
0 1
  S        1.4017960     0.0318670    -0.2267910
  C        0.3731120    -1.2543493     0.4123538
  C       -1.0366050    -1.1980160    -0.1526860
  C       -1.6877140    -0.0149620    -0.1717330
  C       -1.0273490     1.2315180     0.1753310
  C        0.3208110     1.3651600     0.1119950
  H        0.3192380    -1.2040060     1.5241050
  H        0.8310050    -2.2339400     0.1718380
  H       -1.5205060    -2.1086570    -0.4970330
  H       -2.7141090     0.0333350    -0.5285000
  H       -1.6282610     2.1139460     0.3806850
  H        0.8050420     2.3317560     0.2174670
units angstrom
no_reorient  #important for SAPT in psi4, default
symmetry c1  #important for SAPT in psi4, default
}

set PROPERTIES_ORIGIN ["COM"]
properties('MP2/aug-cc-pvtz', properties = ['dipole'])
--------------------------------------------------------------------------

    Molecular point group: c1
  Charge       = 0
  Multiplicity = 1
  Basis Set: AUG-CC-PVTZ
    Blend: AUG-CC-PVTZ
  Basis Set: (AUG-CC-PVTZ AUX)
    Blend: AUG-CC-PVTZ-JKFIT

    Orbital Energies [Eh]
    ---------------------

    Doubly Occupied:

       1A    -91.962300     2A    -11.268571     3A    -11.267760
       4A    -11.244242     5A    -11.241717     6A    -11.238723
       7A     -8.963515     8A     -6.644834     9A     -6.643862
      10A     -6.642948    11A     -1.143883    12A     -1.024729
      13A     -1.023410    14A     -0.856330    15A     -0.818703
      16A     -0.693244    17A     -0.678864    18A     -0.606042
      19A     -0.598073    20A     -0.584089    21A     -0.534285
      22A     -0.489615    23A     -0.462154    24A     -0.448814
      25A     -0.365743    26A     -0.297716

  @DF-RHF Final Energy:  -590.40336153987312

   => Energetics <=

    Nuclear Repulsion Energy =            272.8956410636438932
    One-Electron Energy =               -1351.1096746889736551
    Two-Electron Energy =                 487.8106720854565879
    Total Energy =                       -590.4033615398730035
  Basis Set: (AUG-CC-PVTZ AUX)
    Blend: AUG-CC-PVTZ-RI
    Molecular point group: c1

    Geometry (in Angstrom), charge = 0, multiplicity = 1:

       Center              X                  Y                   Z               Mass
    ------------   -----------------  -----------------  -----------------  -----------------
         S            1.359077623505     0.016613402965    -0.211800441691    31.972071174400
         C            0.330393623505    -1.269602897035     0.427344358309    12.000000000000
         C           -1.079323376495    -1.213269597035    -0.137695441691    12.000000000000
         C           -1.730432376495    -0.030215597035    -0.156742441691    12.000000000000
         C           -1.070067376495     1.216264402965     0.190321558309    12.000000000000
         C            0.278092623505     1.349906402965     0.126985558309    12.000000000000
         H            0.276519623505    -1.219259597035     1.539095558309     1.007825032230
         H            0.788286623505    -2.249193597035     0.186828558309     1.007825032230
         H           -1.563224376495    -2.123910597035    -0.482042441691     1.007825032230
         H           -2.756827376495     0.018081402965    -0.513509441691     1.007825032230
         H           -1.670979376495     2.098692402965     0.395675558309     1.007825032230
         H            0.762323623505     2.316502402965     0.232457558309     1.007825032230

  Basis Set: AUG-CC-PVTZ
    Blend: AUG-CC-PVTZ
  Basis Set: (AUG-CC-PVTZ AUX)
    Blend: AUG-CC-PVTZ-JKFIT
	 Reference Energy          =    -590.4033615398731172 [Eh]
	 Singles Energy            =      -0.0000000000000000 [Eh]
	 Same-Spin Energy          =      -0.2679815068016981 [Eh]
	 Opposite-Spin Energy      =      -0.8627319070301116 [Eh]
	 Correlation Energy        =      -1.1307134138318098 [Eh]
	 Total Energy              =    -591.5340749537049305 [Eh]

	 ================> DF-SCS-MP2 Energies <==================
	-----------------------------------------------------------
	 SCS Same-Spin Scale       =       0.3333333333333333 [-]
	 SCS Opposite-Spin Scale   =       1.2000000000000000 [-]
	 SCS Same-Spin Energy      =      -0.0893271689338994 [Eh]
	 SCS Opposite-Spin Energy  =      -1.0352782884361338 [Eh]
	 SCS Correlation Energy    =      -1.1246054573700330 [Eh]
	 SCS Total Energy          =    -591.5279669972431975 [Eh]
	-----------------------------------------------------------

  Dipole Moment: [D]
     X:    -0.8486      Y:    -0.3221      Z:     0.4587     Total:     1.0170

*** Psi4 exiting successfully. Buy a developer a beer!
