                               Psi4 1.3.2 release

  ==> Input File <==

--------------------------------------------------------------------------
#psi4
#
memory 32 gb

molecule  {
0 1
  S        1.4017960     0.0318670    -0.2267910
  C        0.3439980    -1.2907520     0.4304430
  C       -1.0366050    -1.1980160    -0.1526860
  C       -1.6651115    -0.0252648    -0.1768105
  C       -1.0273490     1.2315180     0.1753310
  C        0.3208110     1.3651600     0.1119950
  H        0.3192380    -1.2040060     1.5241050
  H        0.8310050    -2.2339400     0.1718380
  H       -1.5205060    -2.1086570    -0.4970330
  H       -2.7141090     0.0333350    -0.5285000
  H       -1.6282610     2.1139460     0.3806850
  H        0.8050420     2.3317560     0.2174670
units angstrom
no_reorient  #important for SAPT in psi4, default
symmetry c1  #important for SAPT in psi4, default
}

set PROPERTIES_ORIGIN ["COM"]
properties('MP2/aug-cc-pvtz', properties = ['dipole'])
--------------------------------------------------------------------------

    Molecular point group: c1
  Charge       = 0
  Multiplicity = 1
  Basis Set: AUG-CC-PVTZ
    Blend: AUG-CC-PVTZ
  Basis Set: (AUG-CC-PVTZ AUX)
    Blend: AUG-CC-PVTZ-JKFIT

    Orbital Energies [Eh]
    ---------------------

    Doubly Occupied:

       1A    -91.961890     2A    -11.268667     3A    -11.267228
       4A    -11.240889     5A    -11.240324     6A    -11.238108
       7A     -8.962408     8A     -6.643649     9A     -6.642702
      10A     -6.641843    11A     -1.143621    12A     -1.028045
      13A     -1.019106    14A     -0.860364    15A     -0.816093
      16A     -0.691769    17A     -0.680483    18A     -0.608417
      19A     -0.601632    20A     -0.585976    21A     -0.529163
      22A     -0.484591    23A     -0.463374    24A     -0.451334
      25A     -0.365412    26A     -0.299191

  @DF-RHF Final Energy:  -590.40551496413195

   => Energetics <=

    Nuclear Repulsion Energy =            272.6080190579726263
    One-Electron Energy =               -1350.5545127710888664
    Two-Electron Energy =                 487.5409787489843438
    Total Energy =                       -590.4055149641319531
  Basis Set: (AUG-CC-PVTZ AUX)
    Blend: AUG-CC-PVTZ-RI
    Molecular point group: c1

    Geometry (in Angstrom), charge = 0, multiplicity = 1:

       Center              X                  Y                   Z               Mass
    ------------   -----------------  -----------------  -----------------  -----------------
         S            1.359874795308     0.022331333956    -0.213393401892    31.972071174400
         C            0.302076795308    -1.300287666044     0.443840598108    12.000000000000
         C           -1.078526204692    -1.207551666044    -0.139288401892    12.000000000000
         C           -1.707032704692    -0.034800466044    -0.163412901892    12.000000000000
         C           -1.069270204692     1.221982333956     0.188728598108    12.000000000000
         C            0.278889795308     1.355624333956     0.125392598108    12.000000000000
         H            0.277316795308    -1.213541666044     1.537502598108     1.007825032230
         H            0.789083795308    -2.243475666044     0.185235598108     1.007825032230
         H           -1.562427204692    -2.118192666044    -0.483635401892     1.007825032230
         H           -2.756030204692     0.023799333956    -0.515102401892     1.007825032230
         H           -1.670182204692     2.104410333956     0.394082598108     1.007825032230
         H            0.763120795308     2.322220333956     0.230864598108     1.007825032230

  Basis Set: AUG-CC-PVTZ
    Blend: AUG-CC-PVTZ
  Basis Set: (AUG-CC-PVTZ AUX)
    Blend: AUG-CC-PVTZ-JKFIT
	 Reference Energy          =    -590.4055149641319531 [Eh]
	 Singles Energy            =      -0.0000000000000000 [Eh]
	 Same-Spin Energy          =      -0.2676093912624866 [Eh]
	 Opposite-Spin Energy      =      -0.8621457632385899 [Eh]
	 Correlation Energy        =      -1.1297551545010767 [Eh]
	 Total Energy              =    -591.5352701186329796 [Eh]

	 ================> DF-SCS-MP2 Energies <==================
	-----------------------------------------------------------
	 SCS Same-Spin Scale       =       0.3333333333333333 [-]
	 SCS Opposite-Spin Scale   =       1.2000000000000000 [-]
	 SCS Same-Spin Energy      =      -0.0892031304208289 [Eh]
	 SCS Opposite-Spin Energy  =      -1.0345749158863078 [Eh]
	 SCS Correlation Energy    =      -1.1237780463071367 [Eh]
	 SCS Total Energy          =    -591.5292930104391189 [Eh]
	-----------------------------------------------------------

  Dipole Moment: [D]
     X:    -0.8636      Y:    -0.3539      Z:     0.5045     Total:     1.0609

*** Psi4 exiting successfully. Buy a developer a beer!
