                               Psi4 1.4a3.dev225

  ==> Input File <==

--------------------------------------------------------------------------
#psi4
#
memory 32 gb

molecule  {
0 1
  S        1.4017960     0.0318670    -0.2267910
  C        0.3439980    -1.2907520     0.4304430
  C       -1.0366050    -1.1980160    -0.1526860
  C       -1.6877140    -0.0149620    -0.1717330
  C       -1.0364407     1.2143568     0.1705527
  C        0.3208110     1.3651600     0.1119950
  H        0.3192380    -1.2040060     1.5241050
  H        0.8310050    -2.2339400     0.1718380
  H       -1.5205060    -2.1086570    -0.4970330
  H       -2.7141090     0.0333350    -0.5285000
  H       -1.6282610     2.1139460     0.3806850
  H        0.8050420     2.3317560     0.2174670
units angstrom
no_reorient  #important for SAPT in psi4, default
symmetry c1  #important for SAPT in psi4, default
}

set PROPERTIES_ORIGIN ["COM"]
properties('MP2/aug-cc-pvtz', properties = ['dipole'])
--------------------------------------------------------------------------

    Molecular point group: c1
  Charge       = 0
  Multiplicity = 1
  Basis Set: AUG-CC-PVTZ
    Blend: AUG-CC-PVTZ
  Basis Set: (AUG-CC-PVTZ AUX)
    Blend: AUG-CC-PVTZ-JKFIT

    Orbital Energies [Eh]
    ---------------------

    Doubly Occupied:

       1A    -91.962137     2A    -11.270404     3A    -11.267961
       4A    -11.243734     5A    -11.241761     6A    -11.238249
       7A     -8.962633     8A     -6.643864     9A     -6.642933
      10A     -6.642077    11A     -1.142785    12A     -1.024712
      13A     -1.021171    14A     -0.858437    15A     -0.819295
      16A     -0.695103    17A     -0.679203    18A     -0.606575
      19A     -0.601726    20A     -0.583759    21A     -0.536419
      22A     -0.485215    23A     -0.462521    24A     -0.450315
      25A     -0.364660    26A     -0.295356

  @DF-RHF Final Energy:  -590.40396552543348

   => Energetics <=

    Nuclear Repulsion Energy =            272.3430500813183812
    One-Electron Energy =               -1350.0080197685063013
    Two-Electron Energy =                 487.2610041617545562
    Total Energy =                       -590.4039655254334775
  Basis Set: (AUG-CC-PVTZ AUX)
    Blend: AUG-CC-PVTZ-RI
    Molecular point group: c1

    Geometry (in Angstrom), charge = 0, multiplicity = 1:

       Center              X                  Y                   Z               Mass
    ------------   -----------------  -----------------  -----------------  -----------------
         S            1.363754964633     0.023170975067    -0.213430031518    31.972071174400
         C            0.305956964633    -1.299448024933     0.443803968482    12.000000000000
         C           -1.074646035367    -1.206712024933    -0.139325031518    12.000000000000
         C           -1.725755035367    -0.023658024933    -0.158372031518    12.000000000000
         C           -1.074481735367     1.205660775067     0.183913668482    12.000000000000
         C            0.282769964633     1.356463975067     0.125355968482    12.000000000000
         H            0.281196964633    -1.212702024933     1.537465968482     1.007825032230
         H            0.792963964633    -2.242636024933     0.185198968482     1.007825032230
         H           -1.558547035367    -2.117353024933    -0.483672031518     1.007825032230
         H           -2.752150035367     0.024638975067    -0.515139031518     1.007825032230
         H           -1.666302035367     2.105249975067     0.394045968482     1.007825032230
         H            0.767000964633     2.323059975067     0.230827968482     1.007825032230

  Basis Set: AUG-CC-PVTZ
    Blend: AUG-CC-PVTZ
  Basis Set: (AUG-CC-PVTZ AUX)
    Blend: AUG-CC-PVTZ-JKFIT
	 Reference Energy          =    -590.4039655254334775 [Eh]
	 Singles Energy            =      -0.0000000000000000 [Eh]
	 Same-Spin Energy          =      -0.2683571469939420 [Eh]
	 Opposite-Spin Energy      =      -0.8632047327779233 [Eh]
	 Correlation Energy        =      -1.1315618797718654 [Eh]
	 Total Energy              =    -591.5355274052053574 [Eh]

	 ================> DF-SCS-MP2 Energies <==================
	-----------------------------------------------------------
	 SCS Same-Spin Scale       =       0.3333333333333333 [-]
	 SCS Opposite-Spin Scale   =       1.2000000000000000 [-]
	 SCS Same-Spin Energy      =      -0.0894523823313140 [Eh]
	 SCS Opposite-Spin Energy  =      -1.0358456793335080 [Eh]
	 SCS Correlation Energy    =      -1.1252980616648220 [Eh]
	 SCS Total Energy          =    -591.5292635870982849 [Eh]
	-----------------------------------------------------------

  Dipole Moment: [D]
     X:    -0.8463      Y:    -0.3558      Z:     0.4961     Total:     1.0436

*** Psi4 exiting successfully. Buy a developer a beer!
