                               Psi4 1.3.2 release

  ==> Input File <==

--------------------------------------------------------------------------
#psi4
#
memory 32 gb

molecule  {
0 1
  S        1.3776441    -0.0126585    -0.3430342
  C        0.3439980    -1.2907520     0.4304430
  C       -1.0366050    -1.1980160    -0.1526860
  C       -1.6877140    -0.0149620    -0.1717330
  C       -1.0273490     1.2315180     0.1753310
  C        0.3208110     1.3651600     0.1119950
  H        0.3192380    -1.2040060     1.5241050
  H        0.8310050    -2.2339400     0.1718380
  H       -1.5205060    -2.1086570    -0.4970330
  H       -2.7141090     0.0333350    -0.5285000
  H       -1.6282610     2.1139460     0.3806850
  H        0.8050420     2.3317560     0.2174670
units angstrom
no_reorient  #important for SAPT in psi4, default
symmetry c1  #important for SAPT in psi4, default
}

set PROPERTIES_ORIGIN ["COM"]
properties('MP2/aug-cc-pvtz', properties = ['dipole'])
--------------------------------------------------------------------------

    Molecular point group: c1
  Charge       = 0
  Multiplicity = 1
  Basis Set: AUG-CC-PVTZ
    Blend: AUG-CC-PVTZ
  Basis Set: (AUG-CC-PVTZ AUX)
    Blend: AUG-CC-PVTZ-JKFIT

    Orbital Energies [Eh]
    ---------------------

    Doubly Occupied:

       1A    -91.962784     2A    -11.270003     3A    -11.267554
       4A    -11.244523     5A    -11.243402     6A    -11.238706
       7A     -8.962318     8A     -6.643464     9A     -6.642578
      10A     -6.641706    11A     -1.139548    12A     -1.025955
      13A     -1.013614    14A     -0.856266    15A     -0.816535
      16A     -0.693678    17A     -0.683470    18A     -0.608043
      19A     -0.595085    20A     -0.584246    21A     -0.534720
      22A     -0.481534    23A     -0.460459    24A     -0.449573
      25A     -0.356564    26A     -0.304547

  @DF-RHF Final Energy:  -590.40284981033892

   => Energetics <=

    Nuclear Repulsion Energy =            271.6120588637872402
    One-Electron Energy =               -1348.5880657728007463
    Two-Electron Energy =                 486.5731570986745282
    Total Energy =                       -590.4028498103389211
  Basis Set: (AUG-CC-PVTZ AUX)
    Blend: AUG-CC-PVTZ-RI
    Molecular point group: c1

    Geometry (in Angstrom), charge = 0, multiplicity = 1:

       Center              X                  Y                   Z               Mass
    ------------   -----------------  -----------------  -----------------  -----------------
         S            1.346367933906    -0.008932057966    -0.292341740008    31.972071174400
         C            0.312721833906    -1.287025557966     0.481135459992    12.000000000000
         C           -1.067881166094    -1.194289557966    -0.101993540008    12.000000000000
         C           -1.718990166094    -0.011235557966    -0.121040540008    12.000000000000
         C           -1.058625166094     1.235244442034     0.226023459992    12.000000000000
         C            0.289534833906     1.368886442034     0.162687459992    12.000000000000
         H            0.287961833906    -1.200279557966     1.574797459992     1.007825032230
         H            0.799728833906    -2.230213557966     0.222530459992     1.007825032230
         H           -1.551782166094    -2.104930557966    -0.446340540008     1.007825032230
         H           -2.745385166094     0.037061442034    -0.477807540008     1.007825032230
         H           -1.659537166094     2.117672442034     0.431377459992     1.007825032230
         H            0.773765833906     2.335482442034     0.268159459992     1.007825032230

  Basis Set: AUG-CC-PVTZ
    Blend: AUG-CC-PVTZ
  Basis Set: (AUG-CC-PVTZ AUX)
    Blend: AUG-CC-PVTZ-JKFIT
	 Reference Energy          =    -590.4028498103389211 [Eh]
	 Singles Energy            =      -0.0000000000000000 [Eh]
	 Same-Spin Energy          =      -0.2676380484993564 [Eh]
	 Opposite-Spin Energy      =      -0.8631400409771013 [Eh]
	 Correlation Energy        =      -1.1307780894764576 [Eh]
	 Total Energy              =    -591.5336278998154285 [Eh]

	 ================> DF-SCS-MP2 Energies <==================
	-----------------------------------------------------------
	 SCS Same-Spin Scale       =       0.3333333333333333 [-]
	 SCS Opposite-Spin Scale   =       1.2000000000000000 [-]
	 SCS Same-Spin Energy      =      -0.0892126828331188 [Eh]
	 SCS Opposite-Spin Energy  =      -1.0357680491725214 [Eh]
	 SCS Correlation Energy    =      -1.1249807320056402 [Eh]
	 SCS Total Energy          =    -591.5278305423445318 [Eh]
	-----------------------------------------------------------

  Dipole Moment: [D]
     X:    -0.9281      Y:    -0.3111      Z:     0.5168     Total:     1.1069

*** Psi4 exiting successfully. Buy a developer a beer!
