                               Psi4 1.4a3.dev225

  ==> Input File <==

--------------------------------------------------------------------------
#psi4
#
memory 32 gb

molecule  {
0 1
  S        1.4017960     0.0318670    -0.2267910
  C        0.3439980    -1.2907520     0.4304430
  C       -1.0366050    -1.1980160    -0.1526860
  C       -1.6877140    -0.0149620    -0.1717330
  C       -1.0273490     1.2315180     0.1753310
  C        0.3517040     1.3270564     0.1023130
  H        0.3192380    -1.2040060     1.5241050
  H        0.8310050    -2.2339400     0.1718380
  H       -1.5205060    -2.1086570    -0.4970330
  H       -2.7141090     0.0333350    -0.5285000
  H       -1.6282610     2.1139460     0.3806850
  H        0.8050420     2.3317560     0.2174670
units angstrom
no_reorient  #important for SAPT in psi4, default
symmetry c1  #important for SAPT in psi4, default
}

set PROPERTIES_ORIGIN ["COM"]
properties('MP2/aug-cc-pvtz', properties = ['dipole'])
--------------------------------------------------------------------------

    Molecular point group: c1
  Charge       = 0
  Multiplicity = 1
  Basis Set: AUG-CC-PVTZ
    Blend: AUG-CC-PVTZ
  Basis Set: (AUG-CC-PVTZ AUX)
    Blend: AUG-CC-PVTZ-JKFIT

    Orbital Energies [Eh]
    ---------------------

    Doubly Occupied:

       1A    -91.964473     2A    -11.271763     3A    -11.268599
       4A    -11.242367     5A    -11.241443     6A    -11.238445
       7A     -8.965886     8A     -6.647227     9A     -6.646159
      10A     -6.645316    11A     -1.143670    12A     -1.027459
      13A     -1.019249    14A     -0.862012    15A     -0.813910
      16A     -0.690739    17A     -0.679397    18A     -0.607572
      19A     -0.598346    20A     -0.582781    21A     -0.534881
      22A     -0.488874    23A     -0.468499    24A     -0.448546
      25A     -0.366565    26A     -0.291390

  @DF-RHF Final Energy:  -590.40074763152552

   => Energetics <=

    Nuclear Repulsion Energy =            272.8409519802500540
    One-Electron Energy =               -1350.9722658598077487
    Two-Electron Energy =                 487.7305662480321757
    Total Energy =                       -590.4007476315255190
  Basis Set: (AUG-CC-PVTZ AUX)
    Blend: AUG-CC-PVTZ-RI
    Molecular point group: c1

    Geometry (in Angstrom), charge = 0, multiplicity = 1:

       Center              X                  Y                   Z               Mass
    ------------   -----------------  -----------------  -----------------  -----------------
         S            1.358859829043     0.025734852939    -0.212829694979    31.972071174400
         C            0.301061829043    -1.296884147061     0.444404305021    12.000000000000
         C           -1.079541170957    -1.204148147061    -0.138724694979    12.000000000000
         C           -1.730650170957    -0.021094147061    -0.157771694979    12.000000000000
         C           -1.070285170957     1.225385852939     0.189292305021    12.000000000000
         C            0.308767829043     1.320924252939     0.116274305021    12.000000000000
         H            0.276301829043    -1.210138147061     1.538066305021     1.007825032230
         H            0.788068829043    -2.240072147061     0.185799305021     1.007825032230
         H           -1.563442170957    -2.114789147061    -0.483071694979     1.007825032230
         H           -2.757045170957     0.027202852939    -0.514538694979     1.007825032230
         H           -1.671197170957     2.107813852939     0.394646305021     1.007825032230
         H            0.762105829043     2.325623852939     0.231428305021     1.007825032230

  Basis Set: AUG-CC-PVTZ
    Blend: AUG-CC-PVTZ
  Basis Set: (AUG-CC-PVTZ AUX)
    Blend: AUG-CC-PVTZ-JKFIT
	 Reference Energy          =    -590.4007476315255190 [Eh]
	 Singles Energy            =      -0.0000000000000000 [Eh]
	 Same-Spin Energy          =      -0.2690096379840637 [Eh]
	 Opposite-Spin Energy      =      -0.8638454969090357 [Eh]
	 Correlation Energy        =      -1.1328551348930995 [Eh]
	 Total Energy              =    -591.5336027664186531 [Eh]

	 ================> DF-SCS-MP2 Energies <==================
	-----------------------------------------------------------
	 SCS Same-Spin Scale       =       0.3333333333333333 [-]
	 SCS Opposite-Spin Scale   =       1.2000000000000000 [-]
	 SCS Same-Spin Energy      =      -0.0896698793280212 [Eh]
	 SCS Opposite-Spin Energy  =      -1.0366145962908428 [Eh]
	 SCS Correlation Energy    =      -1.1262844756188641 [Eh]
	 SCS Total Energy          =    -591.5270321071443504 [Eh]
	-----------------------------------------------------------

  Dipole Moment: [D]
     X:    -0.7185      Y:    -0.4035      Z:     0.4828     Total:     0.9550

*** Psi4 exiting successfully. Buy a developer a beer!
