                               Psi4 1.4a3.dev225

  ==> Input File <==

--------------------------------------------------------------------------
#psi4
#
memory 32 gb

molecule  {
0 1
  S        1.4017960     0.0318670    -0.2267910
  C        0.3439980    -1.2907520     0.4304430
  C       -1.0366050    -1.1980160    -0.1526860
  C       -1.6636083    -0.0587617    -0.1710278
  C       -1.0273490     1.2315180     0.1753310
  C        0.3208110     1.3651600     0.1119950
  H        0.3192380    -1.2040060     1.5241050
  H        0.8310050    -2.2339400     0.1718380
  H       -1.5205060    -2.1086570    -0.4970330
  H       -2.7141090     0.0333350    -0.5285000
  H       -1.6282610     2.1139460     0.3806850
  H        0.8050420     2.3317560     0.2174670
units angstrom
no_reorient  #important for SAPT in psi4, default
symmetry c1  #important for SAPT in psi4, default
}

set PROPERTIES_ORIGIN ["COM"]
properties('MP2/aug-cc-pvtz', properties = ['dipole'])
--------------------------------------------------------------------------

    Molecular point group: c1
  Charge       = 0
  Multiplicity = 1
  Basis Set: AUG-CC-PVTZ
    Blend: AUG-CC-PVTZ
  Basis Set: (AUG-CC-PVTZ AUX)
    Blend: AUG-CC-PVTZ-JKFIT

    Orbital Energies [Eh]
    ---------------------

    Doubly Occupied:

       1A    -91.961197     2A    -11.267912     3A    -11.267126
       4A    -11.242203     5A    -11.237313     6A    -11.234898
       7A     -8.961761     8A     -6.643012     9A     -6.642059
      10A     -6.641192    11A     -1.144175    12A     -1.031511
      13A     -1.017118    14A     -0.862307    15A     -0.812254
      16A     -0.690936    17A     -0.680216    18A     -0.608724
      19A     -0.601899    20A     -0.587613    21A     -0.526264
      22A     -0.482330    23A     -0.462696    24A     -0.451217
      25A     -0.368061    26A     -0.302277

  @DF-RHF Final Energy:  -590.40439084019249

   => Energetics <=

    Nuclear Repulsion Energy =            272.7098184165350290
    One-Electron Energy =               -1350.7718766283339846
    Two-Electron Energy =                 487.6576673716064647
    Total Energy =                       -590.4043908401924909
  Basis Set: (AUG-CC-PVTZ AUX)
    Blend: AUG-CC-PVTZ-RI
    Molecular point group: c1

    Geometry (in Angstrom), charge = 0, multiplicity = 1:

       Center              X                  Y                   Z               Mass
    ------------   -----------------  -----------------  -----------------  -----------------
         S            1.359690765721     0.026432199220    -0.214101350197    31.972071174400
         C            0.301892765721    -1.296186800780     0.443132649803    12.000000000000
         C           -1.078710234279    -1.203450800780    -0.139996350197    12.000000000000
         C           -1.705713534279    -0.064196500780    -0.158338150197    12.000000000000
         C           -1.069454234279     1.226083199220     0.188020649803    12.000000000000
         C            0.278705765721     1.359725199220     0.124684649803    12.000000000000
         H            0.277132765721    -1.209440800780     1.536794649803     1.007825032230
         H            0.788899765721    -2.239374800780     0.184527649803     1.007825032230
         H           -1.562611234279    -2.114091800780    -0.484343350197     1.007825032230
         H           -2.756214234279     0.027900199220    -0.515810350197     1.007825032230
         H           -1.670366234279     2.108511199220     0.393374649803     1.007825032230
         H            0.762936765721     2.326321199220     0.230156649803     1.007825032230

  Basis Set: AUG-CC-PVTZ
    Blend: AUG-CC-PVTZ
  Basis Set: (AUG-CC-PVTZ AUX)
    Blend: AUG-CC-PVTZ-JKFIT
	 Reference Energy          =    -590.4043908401924909 [Eh]
	 Singles Energy            =      -0.0000000000000000 [Eh]
	 Same-Spin Energy          =      -0.2668490020565943 [Eh]
	 Opposite-Spin Energy      =      -0.8611468539629035 [Eh]
	 Correlation Energy        =      -1.1279958560194978 [Eh]
	 Total Energy              =    -591.5323866962120292 [Eh]

	 ================> DF-SCS-MP2 Energies <==================
	-----------------------------------------------------------
	 SCS Same-Spin Scale       =       0.3333333333333333 [-]
	 SCS Opposite-Spin Scale   =       1.2000000000000000 [-]
	 SCS Same-Spin Energy      =      -0.0889496673521981 [Eh]
	 SCS Opposite-Spin Energy  =      -1.0333762247554841 [Eh]
	 SCS Correlation Energy    =      -1.1223258921076822 [Eh]
	 SCS Total Energy          =    -591.5267167323002013 [Eh]
	-----------------------------------------------------------

  Dipole Moment: [D]
     X:    -0.8864      Y:    -0.3652      Z:     0.4956     Total:     1.0792

*** Psi4 exiting successfully. Buy a developer a beer!
