                               Psi4 1.3.2 release

  ==> Input File <==

--------------------------------------------------------------------------
#psi4
#
memory 32 gb

molecule  {
0 1
  S        1.4017960     0.0318670    -0.2267910
  C        0.3439980    -1.2907520     0.4304430
  C       -1.0366050    -1.1980160    -0.1526860
  C       -1.6877140    -0.0149620    -0.1717330
  C       -1.0273490     1.2315180     0.1753310
  C        0.3208110     1.3651600     0.1119950
  H        0.3192380    -1.2040060     1.5241050
  H        0.8310050    -2.2339400     0.1718380
  H       -1.5205060    -2.1086570    -0.4970330
  H       -2.7141090     0.0333350    -0.5285000
  H       -1.6835339     2.1951132     0.3995738
  H        0.8050420     2.3317560     0.2174670
units angstrom
no_reorient  #important for SAPT in psi4, default
symmetry c1  #important for SAPT in psi4, default
}

set PROPERTIES_ORIGIN ["COM"]
properties('MP2/aug-cc-pvtz', properties = ['dipole'])
--------------------------------------------------------------------------

    Molecular point group: c1
  Charge       = 0
  Multiplicity = 1
  Basis Set: AUG-CC-PVTZ
    Blend: AUG-CC-PVTZ
  Basis Set: (AUG-CC-PVTZ AUX)
    Blend: AUG-CC-PVTZ-JKFIT

    Orbital Energies [Eh]
    ---------------------

    Doubly Occupied:

       1A    -91.962746     2A    -11.269364     3A    -11.268345
       4A    -11.252068     5A    -11.244293     6A    -11.240687
       7A     -8.963235     8A     -6.644472     9A     -6.643522
      10A     -6.642657    11A     -1.141727    12A     -1.025508
      13A     -1.018325    14A     -0.856756    15A     -0.816447
      16A     -0.694287    17A     -0.671187    18A     -0.604960
      19A     -0.595173    20A     -0.582690    21A     -0.535573
      22A     -0.481135    23A     -0.462565    24A     -0.450414
      25A     -0.364517    26A     -0.298260

  @DF-RHF Final Energy:  -590.39820077023307

   => Energetics <=

    Nuclear Repulsion Energy =            271.7337915757541964
    One-Electron Energy =               -1348.8021580199663276
    Two-Electron Energy =                 486.6701656739791133
    Total Energy =                       -590.3982007702330748
  Basis Set: (AUG-CC-PVTZ AUX)
    Blend: AUG-CC-PVTZ-RI
    Molecular point group: c1

    Geometry (in Angstrom), charge = 0, multiplicity = 1:

       Center              X                  Y                   Z               Mass
    ------------   -----------------  -----------------  -----------------  -----------------
         S            1.363210223551     0.020235455696    -0.214209229314    31.972071174400
         C            0.305412223551    -1.302383544304     0.443024770686    12.000000000000
         C           -1.075190776449    -1.209647544304    -0.140104229314    12.000000000000
         C           -1.726299776449    -0.026593544304    -0.159151229314    12.000000000000
         C           -1.065934776449     1.219886455696     0.187912770686    12.000000000000
         C            0.282225223551     1.353528455696     0.124576770686    12.000000000000
         H            0.280652223551    -1.215637544304     1.536686770686     1.007825032230
         H            0.792419223551    -2.245571544304     0.184419770686     1.007825032230
         H           -1.559091776449    -2.120288544304    -0.484451229314     1.007825032230
         H           -2.752694776449     0.021703455696    -0.515918229314     1.007825032230
         H           -1.722119676449     2.183481655696     0.412155570686     1.007825032230
         H            0.766456223551     2.320124455696     0.230048770686     1.007825032230

  Basis Set: AUG-CC-PVTZ
    Blend: AUG-CC-PVTZ
  Basis Set: (AUG-CC-PVTZ AUX)
    Blend: AUG-CC-PVTZ-JKFIT
	 Reference Energy          =    -590.3982007702330748 [Eh]
	 Singles Energy            =      -0.0000000000000000 [Eh]
	 Same-Spin Energy          =      -0.2679875697505903 [Eh]
	 Opposite-Spin Energy      =      -0.8633983328356857 [Eh]
	 Correlation Energy        =      -1.1313859025862760 [Eh]
	 Total Energy              =    -591.5295866728193914 [Eh]

	 ================> DF-SCS-MP2 Energies <==================
	-----------------------------------------------------------
	 SCS Same-Spin Scale       =       0.3333333333333333 [-]
	 SCS Opposite-Spin Scale   =       1.2000000000000000 [-]
	 SCS Same-Spin Energy      =      -0.0893291899168634 [Eh]
	 SCS Opposite-Spin Energy  =      -1.0360779994028229 [Eh]
	 SCS Correlation Energy    =      -1.1254071893196862 [Eh]
	 SCS Total Energy          =    -591.5236079595528054 [Eh]
	-----------------------------------------------------------

  Dipole Moment: [D]
     X:    -0.8395      Y:    -0.3996      Z:     0.4883     Total:     1.0502

*** Psi4 exiting successfully. Buy a developer a beer!
