                               Psi4 1.4a3.dev225

  ==> Input File <==

--------------------------------------------------------------------------
#psi4
#
memory 32 gb

molecule  {
0 1
  S        1.4017960     0.0318670    -0.2267910
  C        0.3439980    -1.2907520     0.4304430
  C       -1.0366050    -1.1980160    -0.1526860
  C       -1.6877140    -0.0149620    -0.1717330
  C       -1.0273490     1.2315180     0.1753310
  C        0.3208110     1.3651600     0.1119950
  H        0.3192380    -1.2040060     1.5241050
  H        0.8310050    -2.2339400     0.1718380
  H       -1.5427605    -2.1505371    -0.5128694
  H       -2.7141090     0.0333350    -0.5285000
  H       -1.6282610     2.1139460     0.3806850
  H        0.8050420     2.3317560     0.2174670
units angstrom
no_reorient  #important for SAPT in psi4, default
symmetry c1  #important for SAPT in psi4, default
}

set PROPERTIES_ORIGIN ["COM"]
properties('MP2/aug-cc-pvtz', properties = ['dipole'])
--------------------------------------------------------------------------

    Molecular point group: c1
  Charge       = 0
  Multiplicity = 1
  Basis Set: AUG-CC-PVTZ
    Blend: AUG-CC-PVTZ
  Basis Set: (AUG-CC-PVTZ AUX)
    Blend: AUG-CC-PVTZ-JKFIT

    Orbital Energies [Eh]
    ---------------------

    Doubly Occupied:

       1A    -91.962362     2A    -11.268886     3A    -11.268374
       4A    -11.249106     5A    -11.241424     6A    -11.239834
       7A     -8.962862     8A     -6.644099     9A     -6.643154
      10A     -6.642292    11A     -1.141679    12A     -1.025499
      13A     -1.019023    14A     -0.859850    15A     -0.813868
      16A     -0.694269    17A     -0.674698    18A     -0.609134
      19A     -0.600062    20A     -0.580364    21A     -0.534664
      22A     -0.482198    23A     -0.463588    24A     -0.450669
      25A     -0.364114    26A     -0.297952

  @DF-RHF Final Energy:  -590.40306715289421

   => Energetics <=

    Nuclear Repulsion Energy =            271.9630624091885238
    One-Electron Energy =               -1349.2642194156167079
    Two-Electron Energy =                 486.8980898535339747
    Total Energy =                       -590.4030671528942094
  Basis Set: (AUG-CC-PVTZ AUX)
    Blend: AUG-CC-PVTZ-RI
    Molecular point group: c1

    Geometry (in Angstrom), charge = 0, multiplicity = 1:

       Center              X                  Y                   Z               Mass
    ------------   -----------------  -----------------  -----------------  -----------------
         S            1.362870730567     0.021500619817    -0.213852187127    31.972071174400
         C            0.305072730567    -1.301118380183     0.443381812873    12.000000000000
         C           -1.075530269433    -1.208382380183    -0.139747187127    12.000000000000
         C           -1.726639269433    -0.025328380183    -0.158794187127    12.000000000000
         C           -1.066274269433     1.221151619817     0.188269812873    12.000000000000
         C            0.281885730567     1.354793619817     0.124933812873    12.000000000000
         H            0.280312730567    -1.214372380183     1.537043812873     1.007825032230
         H            0.792079730567    -2.244306380183     0.184776812873     1.007825032230
         H           -1.581685769433    -2.160903480183    -0.499930587127     1.007825032230
         H           -2.753034269433     0.022968619817    -0.515561187127     1.007825032230
         H           -1.667186269433     2.103579619817     0.393623812873     1.007825032230
         H            0.766116730567     2.321389619817     0.230405812873     1.007825032230

  Basis Set: AUG-CC-PVTZ
    Blend: AUG-CC-PVTZ
  Basis Set: (AUG-CC-PVTZ AUX)
    Blend: AUG-CC-PVTZ-JKFIT
	 Reference Energy          =    -590.4030671528942094 [Eh]
	 Singles Energy            =      -0.0000000000000000 [Eh]
	 Same-Spin Energy          =      -0.2679021993035535 [Eh]
	 Opposite-Spin Energy      =      -0.8629668262484356 [Eh]
	 Correlation Energy        =      -1.1308690255519891 [Eh]
	 Total Energy              =    -591.5339361784461971 [Eh]

	 ================> DF-SCS-MP2 Energies <==================
	-----------------------------------------------------------
	 SCS Same-Spin Scale       =       0.3333333333333333 [-]
	 SCS Opposite-Spin Scale   =       1.2000000000000000 [-]
	 SCS Same-Spin Energy      =      -0.0893007331011845 [Eh]
	 SCS Opposite-Spin Energy  =      -1.0355601914981227 [Eh]
	 SCS Correlation Energy    =      -1.1248609245993073 [Eh]
	 SCS Total Energy          =    -591.5279280774934705 [Eh]
	-----------------------------------------------------------

  Dipole Moment: [D]
     X:    -0.8439      Y:    -0.3401      Z:     0.5005     Total:     1.0384

*** Psi4 exiting successfully. Buy a developer a beer!
