                               Psi4 1.3.2 release

  ==> Input File <==

--------------------------------------------------------------------------
#psi4
#
memory 32 gb

molecule  {
0 1
  S        1.4017960     0.0318670    -0.2267910
  C        0.3439980    -1.2907520     0.4304430
  C       -0.9221045    -1.1258953    -0.1118017
  C       -1.6877140    -0.0149620    -0.1717330
  C       -1.0273490     1.2315180     0.1753310
  C        0.3208110     1.3651600     0.1119950
  H        0.3192380    -1.2040060     1.5241050
  H        0.8310050    -2.2339400     0.1718380
  H       -1.5205060    -2.1086570    -0.4970330
  H       -2.7141090     0.0333350    -0.5285000
  H       -1.6282610     2.1139460     0.3806850
  H        0.8050420     2.3317560     0.2174670
units angstrom
no_reorient  #important for SAPT in psi4, default
symmetry c1  #important for SAPT in psi4, default
}

set PROPERTIES_ORIGIN ["COM"]
properties('MP2/aug-cc-pvtz', properties = ['dipole'])
--------------------------------------------------------------------------

    Molecular point group: c1
  Charge       = 0
  Multiplicity = 1
  Basis Set: AUG-CC-PVTZ
    Blend: AUG-CC-PVTZ
  Basis Set: (AUG-CC-PVTZ AUX)
    Blend: AUG-CC-PVTZ-JKFIT

    Orbital Energies [Eh]
    ---------------------

    Doubly Occupied:

       1A    -91.962414     2A    -11.266041     3A    -11.264933
       4A    -11.249689     5A    -11.239786     6A    -11.238904
       7A     -8.963143     8A     -6.644318     9A     -6.643458
      10A     -6.642521    11A     -1.156145    12A     -1.039165
      13A     -1.018335    14A     -0.866348    15A     -0.809600
      16A     -0.702462    17A     -0.668850    18A     -0.622091
      19A     -0.608248    20A     -0.571179    21A     -0.554644
      22A     -0.467025    23A     -0.463978    24A     -0.450187
      25A     -0.360574    26A     -0.296065

  @DF-RHF Final Energy:  -590.38105920272596

   => Energetics <=

    Nuclear Repulsion Energy =            274.5410663730962142
    One-Electron Energy =               -1354.3040480851209395
    Two-Electron Energy =                 489.3819225092986471
    Total Energy =                       -590.3810592027259645
  Basis Set: (AUG-CC-PVTZ AUX)
    Blend: AUG-CC-PVTZ-RI
    Molecular point group: c1

    Geometry (in Angstrom), charge = 0, multiplicity = 1:

       Center              X                  Y                   Z               Mass
    ------------   -----------------  -----------------  -----------------  -----------------
         S            1.348624162680     0.012240619050    -0.219020285249    31.972071174400
         C            0.290826162680    -1.310378380950     0.438213714751    12.000000000000
         C           -0.975276337320    -1.145521680950    -0.104030985249    12.000000000000
         C           -1.740885837320    -0.034588380950    -0.163962285249    12.000000000000
         C           -1.080520837320     1.211891619050     0.183101714751    12.000000000000
         C            0.267639162680     1.345533619050     0.119765714751    12.000000000000
         H            0.266066162680    -1.223632380950     1.531875714751     1.007825032230
         H            0.777833162680    -2.253566380950     0.179608714751     1.007825032230
         H           -1.573677837320    -2.128283380950    -0.489262285249     1.007825032230
         H           -2.767280837320     0.013708619050    -0.520729285249     1.007825032230
         H           -1.681432837320     2.094319619050     0.388455714751     1.007825032230
         H            0.751870162680     2.312129619050     0.225237714751     1.007825032230

  Basis Set: AUG-CC-PVTZ
    Blend: AUG-CC-PVTZ
  Basis Set: (AUG-CC-PVTZ AUX)
    Blend: AUG-CC-PVTZ-JKFIT
	 Reference Energy          =    -590.3810592027259645 [Eh]
	 Singles Energy            =      -0.0000000000000000 [Eh]
	 Same-Spin Energy          =      -0.2699356640173746 [Eh]
	 Opposite-Spin Energy      =      -0.8650060466052620 [Eh]
	 Correlation Energy        =      -1.1349417106226367 [Eh]
	 Total Energy              =    -591.5160009133486483 [Eh]

	 ================> DF-SCS-MP2 Energies <==================
	-----------------------------------------------------------
	 SCS Same-Spin Scale       =       0.3333333333333333 [-]
	 SCS Opposite-Spin Scale   =       1.2000000000000000 [-]
	 SCS Same-Spin Energy      =      -0.0899785546724582 [Eh]
	 SCS Opposite-Spin Energy  =      -1.0380072559263145 [Eh]
	 SCS Correlation Energy    =      -1.1279858105987728 [Eh]
	 SCS Total Energy          =    -591.5090450133247941 [Eh]
	-----------------------------------------------------------

  Dipole Moment: [D]
     X:    -0.8047      Y:    -0.3268      Z:     0.5517     Total:     1.0289

*** Psi4 exiting successfully. Buy a developer a beer!
