                               Psi4 1.3.2 release

  ==> Input File <==

--------------------------------------------------------------------------
#psi4
#
memory 32 gb

molecule  {
0 1
  S        1.4017960     0.0318670    -0.2267910
  C        0.3439980    -1.2907520     0.4304430
  C       -1.0463681    -1.1951811    -0.1285313
  C       -1.6877140    -0.0149620    -0.1717330
  C       -1.0273490     1.2315180     0.1753310
  C        0.3208110     1.3651600     0.1119950
  H        0.3192380    -1.2040060     1.5241050
  H        0.8310050    -2.2339400     0.1718380
  H       -1.5205060    -2.1086570    -0.4970330
  H       -2.7141090     0.0333350    -0.5285000
  H       -1.6282610     2.1139460     0.3806850
  H        0.8050420     2.3317560     0.2174670
units angstrom
no_reorient  #important for SAPT in psi4, default
symmetry c1  #important for SAPT in psi4, default
}

set PROPERTIES_ORIGIN ["COM"]
properties('MP2/aug-cc-pvtz', properties = ['dipole'])
--------------------------------------------------------------------------

    Molecular point group: c1
  Charge       = 0
  Multiplicity = 1
  Basis Set: AUG-CC-PVTZ
    Blend: AUG-CC-PVTZ
  Basis Set: (AUG-CC-PVTZ AUX)
    Blend: AUG-CC-PVTZ-JKFIT

    Orbital Energies [Eh]
    ---------------------

    Doubly Occupied:

       1A    -91.961984     2A    -11.268668     3A    -11.267730
       4A    -11.243157     5A    -11.240936     6A    -11.238454
       7A     -8.962496     8A     -6.643742     9A     -6.642789
      10A     -6.641926    11A     -1.142105    12A     -1.026610
      13A     -1.019581    14A     -0.860278    15A     -0.816563
      16A     -0.694247    17A     -0.679246    18A     -0.609953
      19A     -0.599855    20A     -0.583528    21A     -0.534681
      22A     -0.483447    23A     -0.463815    24A     -0.450432
      25A     -0.364913    26A     -0.297880

  @DF-RHF Final Energy:  -590.40576210793540

   => Energetics <=

    Nuclear Repulsion Energy =            272.2313119749665589
    One-Electron Energy =               -1349.7961135418306640
    Two-Electron Energy =                 487.1590394589288167
    Total Energy =                       -590.4057621079352884
  Basis Set: (AUG-CC-PVTZ AUX)
    Blend: AUG-CC-PVTZ-RI
    Molecular point group: c1

    Geometry (in Angstrom), charge = 0, multiplicity = 1:

       Center              X                  Y                   Z               Mass
    ------------   -----------------  -----------------  -----------------  -----------------
         S            1.363837160924     0.020722948177    -0.216972160332    31.972071174400
         C            0.306039160924    -1.301896051823     0.440261839668    12.000000000000
         C           -1.084326939076    -1.206325151823    -0.118712460332    12.000000000000
         C           -1.725672839076    -0.026106051823    -0.161914160332    12.000000000000
         C           -1.065307839076     1.220373948177     0.185149839668    12.000000000000
         C            0.282852160924     1.354015948177     0.121813839668    12.000000000000
         H            0.281279160924    -1.215150051823     1.533923839668     1.007825032230
         H            0.793046160924    -2.245084051823     0.181656839668     1.007825032230
         H           -1.558464839076    -2.119801051823    -0.487214160332     1.007825032230
         H           -2.752067839076     0.022190948177    -0.518681160332     1.007825032230
         H           -1.666219839076     2.102801948177     0.390503839668     1.007825032230
         H            0.767083160924     2.320611948177     0.227285839668     1.007825032230

  Basis Set: AUG-CC-PVTZ
    Blend: AUG-CC-PVTZ
  Basis Set: (AUG-CC-PVTZ AUX)
    Blend: AUG-CC-PVTZ-JKFIT
	 Reference Energy          =    -590.4057621079354021 [Eh]
	 Singles Energy            =      -0.0000000000000000 [Eh]
	 Same-Spin Energy          =      -0.2676280358287009 [Eh]
	 Opposite-Spin Energy      =      -0.8623410631246009 [Eh]
	 Correlation Energy        =      -1.1299690989533018 [Eh]
	 Total Energy              =    -591.5357312068887268 [Eh]

	 ================> DF-SCS-MP2 Energies <==================
	-----------------------------------------------------------
	 SCS Same-Spin Scale       =       0.3333333333333333 [-]
	 SCS Opposite-Spin Scale   =       1.2000000000000000 [-]
	 SCS Same-Spin Energy      =      -0.0892093452762336 [Eh]
	 SCS Opposite-Spin Energy  =      -1.0348092757495211 [Eh]
	 SCS Correlation Energy    =      -1.1240186210257548 [Eh]
	 SCS Total Energy          =    -591.5297807289612138 [Eh]
	-----------------------------------------------------------

  Dipole Moment: [D]
     X:    -0.8565      Y:    -0.3526      Z:     0.4730     Total:     1.0400

*** Psi4 exiting successfully. Buy a developer a beer!
