                               Psi4 1.4a3.dev225

  ==> Input File <==

--------------------------------------------------------------------------
#psi4
#
memory 32 gb

molecule  {
0 1
  S        1.4017960     0.0318670    -0.2267910
  C        0.3439980    -1.2907520     0.4304430
  C       -1.0366050    -1.1980160    -0.1526860
  C       -1.6877140    -0.0149620    -0.1717330
  C       -1.0273490     1.2315180     0.1753310
  C        0.3208110     1.3651600     0.1119950
  H        0.3192380    -1.2040060     1.5241050
  H        0.8310050    -2.2339400     0.1718380
  H       -1.5116042    -2.0919049    -0.4906984
  H       -2.7141090     0.0333350    -0.5285000
  H       -1.6282610     2.1139460     0.3806850
  H        0.8050420     2.3317560     0.2174670
units angstrom
no_reorient  #important for SAPT in psi4, default
symmetry c1  #important for SAPT in psi4, default
}

set PROPERTIES_ORIGIN ["COM"]
properties('MP2/aug-cc-pvtz', properties = ['dipole'])
--------------------------------------------------------------------------

    Molecular point group: c1
  Charge       = 0
  Multiplicity = 1
  Basis Set: AUG-CC-PVTZ
    Blend: AUG-CC-PVTZ
  Basis Set: (AUG-CC-PVTZ AUX)
    Blend: AUG-CC-PVTZ-JKFIT

    Orbital Energies [Eh]
    ---------------------

    Doubly Occupied:

       1A    -91.961937     2A    -11.268625     3A    -11.267649
       4A    -11.241404     5A    -11.240835     6A    -11.239132
       7A     -8.962440     8A     -6.643680     9A     -6.642735
      10A     -6.641875    11A     -1.141750    12A     -1.026893
      13A     -1.018965    14A     -0.859616    15A     -0.818568
      16A     -0.694246    17A     -0.682528    18A     -0.608887
      19A     -0.599746    20A     -0.585492    21A     -0.534976
      22A     -0.484360    23A     -0.463247    24A     -0.450658
      25A     -0.363836    26A     -0.297625

  @DF-RHF Final Energy:  -590.40558637309118

   => Energetics <=

    Nuclear Repulsion Energy =            272.3056086682842079
    One-Electron Energy =               -1349.9389774431372189
    Two-Electron Energy =                 487.2277824017617149
    Total Energy =                       -590.4055863730911824
  Basis Set: (AUG-CC-PVTZ AUX)
    Blend: AUG-CC-PVTZ-RI
    Molecular point group: c1

    Geometry (in Angstrom), charge = 0, multiplicity = 1:

       Center              X                  Y                   Z               Mass
    ------------   -----------------  -----------------  -----------------  -----------------
         S            1.362550383571     0.020897767452    -0.214080147868    31.972071174400
         C            0.304752383571    -1.301721232548     0.443153852132    12.000000000000
         C           -1.075850616429    -1.208985232548    -0.139975147868    12.000000000000
         C           -1.726959616429    -0.025931232548    -0.159022147868    12.000000000000
         C           -1.066594616429     1.220548767452     0.188041852132    12.000000000000
         C            0.281565383571     1.354190767452     0.124705852132    12.000000000000
         H            0.279992383571    -1.214975232548     1.536815852132     1.007825032230
         H            0.791759383571    -2.244909232548     0.184548852132     1.007825032230
         H           -1.550849816429    -2.102874132548    -0.477987547868     1.007825032230
         H           -2.753354616429     0.022365767452    -0.515789147868     1.007825032230
         H           -1.667506616429     2.102976767452     0.393395852132     1.007825032230
         H            0.765796383571     2.320786767452     0.230177852132     1.007825032230

  Basis Set: AUG-CC-PVTZ
    Blend: AUG-CC-PVTZ
  Basis Set: (AUG-CC-PVTZ AUX)
    Blend: AUG-CC-PVTZ-JKFIT
	 Reference Energy          =    -590.4055863730911824 [Eh]
	 Singles Energy            =      -0.0000000000000000 [Eh]
	 Same-Spin Energy          =      -0.2677690481032242 [Eh]
	 Opposite-Spin Energy      =      -0.8624843787383958 [Eh]
	 Correlation Energy        =      -1.1302534268416200 [Eh]
	 Total Energy              =    -591.5358397999327735 [Eh]

	 ================> DF-SCS-MP2 Energies <==================
	-----------------------------------------------------------
	 SCS Same-Spin Scale       =       0.3333333333333333 [-]
	 SCS Opposite-Spin Scale   =       1.2000000000000000 [-]
	 SCS Same-Spin Energy      =      -0.0892563493677414 [Eh]
	 SCS Opposite-Spin Energy  =      -1.0349812544860748 [Eh]
	 SCS Correlation Energy    =      -1.1242376038538162 [Eh]
	 SCS Total Energy          =    -591.5298239769449538 [Eh]
	-----------------------------------------------------------

  Dipole Moment: [D]
     X:    -0.8652      Y:    -0.3630      Z:     0.4938     Total:     1.0602

*** Psi4 exiting successfully. Buy a developer a beer!
