                               Psi4 1.3.2 release

  ==> Input File <==

--------------------------------------------------------------------------
#psi4
#
memory 32 gb

molecule  {
0 1
  S        1.4017960     0.0318670    -0.2267910
  C        0.3439980    -1.2907520     0.4304430
  C       -1.0366050    -1.1980160    -0.1526860
  C       -1.6877140    -0.0149620    -0.1717330
  C       -1.0273490     1.2315180     0.1753310
  C        0.3208110     1.3651600     0.1119950
  H        0.3214943    -1.2119109     1.4244435
  H        0.8310050    -2.2339400     0.1718380
  H       -1.5205060    -2.1086570    -0.4970330
  H       -2.7141090     0.0333350    -0.5285000
  H       -1.6282610     2.1139460     0.3806850
  H        0.8050420     2.3317560     0.2174670
units angstrom
no_reorient  #important for SAPT in psi4, default
symmetry c1  #important for SAPT in psi4, default
}

set PROPERTIES_ORIGIN ["COM"]
properties('MP2/aug-cc-pvtz', properties = ['dipole'])
--------------------------------------------------------------------------

    Molecular point group: c1
  Charge       = 0
  Multiplicity = 1
  Basis Set: AUG-CC-PVTZ
    Blend: AUG-CC-PVTZ
  Basis Set: (AUG-CC-PVTZ AUX)
    Blend: AUG-CC-PVTZ-JKFIT

    Orbital Energies [Eh]
    ---------------------

    Doubly Occupied:

       1A    -91.961277     2A    -11.268359     3A    -11.256382
       4A    -11.242956     5A    -11.240622     6A    -11.239113
       7A     -8.961841     8A     -6.643085     9A     -6.642140
      10A     -6.641276    11A     -1.143132    12A     -1.029525
      13A     -1.020121    14A     -0.865858    15A     -0.817253
      16A     -0.697017    17A     -0.686745    18A     -0.612529
      19A     -0.603191    20A     -0.587390    21A     -0.534680
      22A     -0.483532    23A     -0.465163    24A     -0.451796
      25A     -0.363513    26A     -0.298029

  @DF-RHF Final Energy:  -590.40003582809300

   => Energetics <=

    Nuclear Repulsion Energy =            272.7205067050472849
    One-Electron Energy =               -1350.7280354052484199
    Two-Electron Energy =                 487.6074928721081960
    Total Energy =                       -590.4000358280929959
  Basis Set: (AUG-CC-PVTZ AUX)
    Blend: AUG-CC-PVTZ-RI
    Molecular point group: c1

    Geometry (in Angstrom), charge = 0, multiplicity = 1:

       Center              X                  Y                   Z               Mass
    ------------   -----------------  -----------------  -----------------  -----------------
         S            1.362618712158     0.021151289080    -0.212990303046    31.972071174400
         C            0.304820712158    -1.301467710920     0.444243696954    12.000000000000
         C           -1.075782287842    -1.208731710920    -0.138885303046    12.000000000000
         C           -1.726891287842    -0.025677710920    -0.157932303046    12.000000000000
         C           -1.066526287842     1.220802289080     0.189131696954    12.000000000000
         C            0.281633712158     1.354444289080     0.125795696954    12.000000000000
         H            0.282317012158    -1.222626610920     1.438244196954     1.007825032230
         H            0.791827712158    -2.244655710920     0.185638696954     1.007825032230
         H           -1.559683287842    -2.119372710920    -0.483232303046     1.007825032230
         H           -2.753286287842     0.022619289080    -0.514699303046     1.007825032230
         H           -1.667438287842     2.103230289080     0.394485696954     1.007825032230
         H            0.765864712158     2.321040289080     0.231267696954     1.007825032230

  Basis Set: AUG-CC-PVTZ
    Blend: AUG-CC-PVTZ
  Basis Set: (AUG-CC-PVTZ AUX)
    Blend: AUG-CC-PVTZ-JKFIT
	 Reference Energy          =    -590.4000358280929959 [Eh]
	 Singles Energy            =      -0.0000000000000000 [Eh]
	 Same-Spin Energy          =      -0.2675947722018652 [Eh]
	 Opposite-Spin Energy      =      -0.8620307601336017 [Eh]
	 Correlation Energy        =      -1.1296255323354669 [Eh]
	 Total Energy              =    -591.5296613604284630 [Eh]

	 ================> DF-SCS-MP2 Energies <==================
	-----------------------------------------------------------
	 SCS Same-Spin Scale       =       0.3333333333333333 [-]
	 SCS Opposite-Spin Scale   =       1.2000000000000000 [-]
	 SCS Same-Spin Energy      =      -0.0891982574006217 [Eh]
	 SCS Opposite-Spin Energy  =      -1.0344369121603221 [Eh]
	 SCS Correlation Energy    =      -1.1236351695609439 [Eh]
	 SCS Total Energy          =    -591.5236709976539942 [Eh]
	-----------------------------------------------------------

  Dipole Moment: [D]
     X:    -0.8559      Y:    -0.3891      Z:     0.5322     Total:     1.0804

*** Psi4 exiting successfully. Buy a developer a beer!
