                               Psi4 1.3.2 release

  ==> Input File <==

--------------------------------------------------------------------------
#psi4
#
memory 32 gb

molecule  {
0 1
  S        1.4017960     0.0318670    -0.2267910
  C        0.3439980    -1.2907520     0.4304430
  C       -1.0366050    -1.1980160    -0.1526860
  C       -1.6877140    -0.0149620    -0.1717330
  C       -1.0273490     1.2315180     0.1753310
  C        0.3208110     1.3651600     0.1119950
  H        0.3192380    -1.2040060     1.5241050
  H        0.8310050    -2.2339400     0.1718380
  H       -1.5650150    -2.1924173    -0.5287059
  H       -2.7141090     0.0333350    -0.5285000
  H       -1.6282610     2.1139460     0.3806850
  H        0.8050420     2.3317560     0.2174670
units angstrom
no_reorient  #important for SAPT in psi4, default
symmetry c1  #important for SAPT in psi4, default
}

set PROPERTIES_ORIGIN ["COM"]
properties('MP2/aug-cc-pvtz', properties = ['dipole'])
--------------------------------------------------------------------------

    Molecular point group: c1
  Charge       = 0
  Multiplicity = 1
  Basis Set: AUG-CC-PVTZ
    Blend: AUG-CC-PVTZ
  Basis Set: (AUG-CC-PVTZ AUX)
    Blend: AUG-CC-PVTZ-JKFIT

    Orbital Energies [Eh]
    ---------------------

    Doubly Occupied:

       1A    -91.962723     2A    -11.269135     3A    -11.268957
       4A    -11.254547     5A    -11.241845     6A    -11.240274
       7A     -8.963219     8A     -6.644455     9A     -6.643509
      10A     -6.642646    11A     -1.141773    12A     -1.024925
      13A     -1.019066    14A     -0.860108    15A     -0.811301
      16A     -0.694451    17A     -0.669804    18A     -0.609375
      19A     -0.600363    20A     -0.576440    21A     -0.534349
      22A     -0.480372    23A     -0.463869    24A     -0.450639
      25A     -0.364359    26A     -0.298253

  @DF-RHF Final Energy:  -590.39822139089517

   => Energetics <=

    Nuclear Repulsion Energy =            271.7348644353978102
    One-Electron Energy =               -1348.8046585923341354
    Two-Electron Energy =                 486.6715727660410380
    Total Energy =                       -590.3982213908952872
  Basis Set: (AUG-CC-PVTZ AUX)
    Blend: AUG-CC-PVTZ-RI
    Molecular point group: c1

    Geometry (in Angstrom), charge = 0, multiplicity = 1:

       Center              X                  Y                   Z               Mass
    ------------   -----------------  -----------------  -----------------  -----------------
         S            1.363099549850     0.021931229237    -0.213689357291    31.972071174400
         C            0.305301549850    -1.300687770763     0.443544642709    12.000000000000
         C           -1.075301450150    -1.207951770763    -0.139584357291    12.000000000000
         C           -1.726410450150    -0.024897770763    -0.158631357291    12.000000000000
         C           -1.066045450150     1.221582229237     0.188432642709    12.000000000000
         C            0.282114549850     1.355224229237     0.125096642709    12.000000000000
         H            0.280541549850    -1.213941770763     1.537206642709     1.007825032230
         H            0.792308549850    -2.243875770763     0.184939642709     1.007825032230
         H           -1.603711450150    -2.202353070763    -0.515604257291     1.007825032230
         H           -2.752805450150     0.023399229237    -0.515398357291     1.007825032230
         H           -1.666957450150     2.104010229237     0.393786642709     1.007825032230
         H            0.766345549850     2.321820229237     0.230568642709     1.007825032230

  Basis Set: AUG-CC-PVTZ
    Blend: AUG-CC-PVTZ
  Basis Set: (AUG-CC-PVTZ AUX)
    Blend: AUG-CC-PVTZ-JKFIT
	 Reference Energy          =    -590.3982213908951735 [Eh]
	 Singles Energy            =      -0.0000000000000000 [Eh]
	 Same-Spin Energy          =      -0.2680149399788450 [Eh]
	 Opposite-Spin Energy      =      -0.8634290957583931 [Eh]
	 Correlation Energy        =      -1.1314440357372382 [Eh]
	 Total Energy              =    -591.5296654266323912 [Eh]

	 ================> DF-SCS-MP2 Energies <==================
	-----------------------------------------------------------
	 SCS Same-Spin Scale       =       0.3333333333333333 [-]
	 SCS Opposite-Spin Scale   =       1.2000000000000000 [-]
	 SCS Same-Spin Energy      =      -0.0893383133262817 [Eh]
	 SCS Opposite-Spin Energy  =      -1.0361149149100717 [Eh]
	 SCS Correlation Energy    =      -1.1254532282363534 [Eh]
	 SCS Total Energy          =    -591.5236746191314978 [Eh]
	-----------------------------------------------------------

  Dipole Moment: [D]
     X:    -0.8259      Y:    -0.3188      Z:     0.5065     Total:     1.0200

*** Psi4 exiting successfully. Buy a developer a beer!
