                               Psi4 1.3.2 release

  ==> Input File <==

--------------------------------------------------------------------------
#psi4
#
memory 32 gb

molecule  {
0 1
  S        1.4017960     0.0318670    -0.2267910
  C        0.3439980    -1.2907520     0.4304430
  C       -1.0366050    -1.1980160    -0.1526860
  C       -1.6877140    -0.0149620    -0.1717330
  C       -1.0273490     1.2315180     0.1753310
  C        0.3208110     1.3651600     0.1119950
  H        0.3192380    -1.2040060     1.5241050
  H        0.8310050    -2.2339400     0.1718380
  H       -1.5205060    -2.1086570    -0.4970330
  H       -2.8084724     0.0377753    -0.5613000
  H       -1.6282610     2.1139460     0.3806850
  H        0.8050420     2.3317560     0.2174670
units angstrom
no_reorient  #important for SAPT in psi4, default
symmetry c1  #important for SAPT in psi4, default
}

set PROPERTIES_ORIGIN ["COM"]
properties('MP2/aug-cc-pvtz', properties = ['dipole'])
--------------------------------------------------------------------------

    Molecular point group: c1
  Charge       = 0
  Multiplicity = 1
  Basis Set: AUG-CC-PVTZ
    Blend: AUG-CC-PVTZ
  Basis Set: (AUG-CC-PVTZ AUX)
    Blend: AUG-CC-PVTZ-JKFIT

    Orbital Energies [Eh]
    ---------------------

    Doubly Occupied:

       1A    -91.962560     2A    -11.269459     3A    -11.268655
       4A    -11.251055     5A    -11.244035     6A    -11.242039
       7A     -8.963065     8A     -6.644303     9A     -6.643359
      10A     -6.642496    11A     -1.141782    12A     -1.027065
      13A     -1.016720    14A     -0.858343    15A     -0.815119
      16A     -0.683835    17A     -0.679517    18A     -0.607763
      19A     -0.600615    20A     -0.583792    21A     -0.524365
      22A     -0.484354    23A     -0.463804    24A     -0.450209
      25A     -0.364441    26A     -0.298283

  @DF-RHF Final Energy:  -590.39820908332399

   => Energetics <=

    Nuclear Repulsion Energy =            271.7372637898013750
    One-Electron Energy =               -1348.8088802925458367
    Two-Electron Energy =                 486.6734074194204709
    Total Energy =                       -590.3982090833239909
  Basis Set: (AUG-CC-PVTZ AUX)
    Blend: AUG-CC-PVTZ-RI
    Molecular point group: c1

    Geometry (in Angstrom), charge = 0, multiplicity = 1:

       Center              X                  Y                   Z               Mass
    ------------   -----------------  -----------------  -----------------  -----------------
         S            1.363612149462     0.021024356558    -0.213677768524    31.972071174400
         C            0.305814149462    -1.301594643442     0.443556231476    12.000000000000
         C           -1.074788850538    -1.208858643442    -0.139572768524    12.000000000000
         C           -1.725897850538    -0.025804643442    -0.158619768524    12.000000000000
         C           -1.065532850538     1.220675356558     0.188444231476    12.000000000000
         C            0.282627149462     1.354317356558     0.125108231476    12.000000000000
         H            0.281054149462    -1.214848643442     1.537218231476     1.007825032230
         H            0.792821149462    -2.244782643442     0.184951231476     1.007825032230
         H           -1.558689850538    -2.119499643442    -0.483919768524     1.007825032230
         H           -2.846656250538     0.026932656558    -0.548186768524     1.007825032230
         H           -1.666444850538     2.103103356558     0.393798231476     1.007825032230
         H            0.766858149462     2.320913356558     0.230580231476     1.007825032230

  Basis Set: AUG-CC-PVTZ
    Blend: AUG-CC-PVTZ
  Basis Set: (AUG-CC-PVTZ AUX)
    Blend: AUG-CC-PVTZ-JKFIT
	 Reference Energy          =    -590.3982090833239909 [Eh]
	 Singles Energy            =      -0.0000000000000000 [Eh]
	 Same-Spin Energy          =      -0.2679883460025789 [Eh]
	 Opposite-Spin Energy      =      -0.8634170833331922 [Eh]
	 Correlation Energy        =      -1.1314054293357712 [Eh]
	 Total Energy              =    -591.5296145126598049 [Eh]

	 ================> DF-SCS-MP2 Energies <==================
	-----------------------------------------------------------
	 SCS Same-Spin Scale       =       0.3333333333333333 [-]
	 SCS Opposite-Spin Scale   =       1.2000000000000000 [-]
	 SCS Same-Spin Energy      =      -0.0893294486675263 [Eh]
	 SCS Opposite-Spin Energy  =      -1.0361004999998307 [Eh]
	 SCS Correlation Energy    =      -1.1254299486673569 [Eh]
	 SCS Total Energy          =    -591.5236390319913653 [Eh]
	-----------------------------------------------------------

  Dipole Moment: [D]
     X:    -0.8103      Y:    -0.3533      Z:     0.5063     Total:     1.0187

*** Psi4 exiting successfully. Buy a developer a beer!
