                               Psi4 1.3.2 release

  ==> Input File <==

--------------------------------------------------------------------------
#psi4
#
memory 32 gb

molecule  {
0 1
  S        1.4017960     0.0318670    -0.2267910
  C        0.3439980    -1.2907520     0.4304430
  C       -1.0366050    -1.1980160    -0.1526860
  C       -1.6877140    -0.0149620    -0.1717330
  C       -1.0273490     1.2315180     0.1753310
  C        0.3208110     1.3651600     0.1119950
  H        0.3147254    -1.1881963     1.7234281
  H        0.8310050    -2.2339400     0.1718380
  H       -1.5205060    -2.1086570    -0.4970330
  H       -2.7141090     0.0333350    -0.5285000
  H       -1.6282610     2.1139460     0.3806850
  H        0.8050420     2.3317560     0.2174670
units angstrom
no_reorient  #important for SAPT in psi4, default
symmetry c1  #important for SAPT in psi4, default
}

set PROPERTIES_ORIGIN ["COM"]
properties('MP2/aug-cc-pvtz', properties = ['dipole'])
--------------------------------------------------------------------------

    Molecular point group: c1
  Charge       = 0
  Multiplicity = 1
  Basis Set: AUG-CC-PVTZ
    Blend: AUG-CC-PVTZ
  Basis Set: (AUG-CC-PVTZ AUX)
    Blend: AUG-CC-PVTZ-JKFIT

    Orbital Energies [Eh]
    ---------------------

    Doubly Occupied:

       1A    -91.964834     2A    -11.288370     3A    -11.270005
       4A    -11.245203     5A    -11.242496     6A    -11.240880
       7A     -8.965149     8A     -6.646373     9A     -6.645424
      10A     -6.644582    11A     -1.141001    12A     -1.025522
      13A     -1.016742    14A     -0.853056    15A     -0.817521
      16A     -0.694429    17A     -0.670292    18A     -0.608703
      19A     -0.595861    20A     -0.565854    21A     -0.535334
      22A     -0.485101    23A     -0.460996    24A     -0.445417
      25A     -0.365189    26A     -0.297473

  @DF-RHF Final Energy:  -590.38551606069814

   => Energetics <=

    Nuclear Repulsion Energy =            271.3215669121110523
    One-Electron Energy =               -1347.9505514142133507
    Two-Electron Energy =                 486.2434684414042749
    Total Energy =                       -590.3855160606981372
  Basis Set: (AUG-CC-PVTZ AUX)
    Blend: AUG-CC-PVTZ-RI
    Molecular point group: c1

    Geometry (in Angstrom), charge = 0, multiplicity = 1:

       Center              X                  Y                   Z               Mass
    ------------   -----------------  -----------------  -----------------  -----------------
         S            1.362688309536     0.020907457146    -0.216064442738    31.972071174400
         C            0.304890309536    -1.301711542854     0.441169557262    12.000000000000
         C           -1.075712690464    -1.208975542854    -0.141959442738    12.000000000000
         C           -1.726821690464    -0.025921542854    -0.161006442738    12.000000000000
         C           -1.066456690464     1.220558457146     0.186057557262    12.000000000000
         C            0.281703309536     1.354200457146     0.122721557262    12.000000000000
         H            0.275617709536    -1.199155842854     1.734154657262     1.007825032230
         H            0.791897309536    -2.244899542854     0.182564557262     1.007825032230
         H           -1.559613690464    -2.119616542854    -0.486306442738     1.007825032230
         H           -2.753216690464     0.022375457146    -0.517773442738     1.007825032230
         H           -1.667368690464     2.102986457146     0.391411557262     1.007825032230
         H            0.765934309536     2.320796457146     0.228193557262     1.007825032230

  Basis Set: AUG-CC-PVTZ
    Blend: AUG-CC-PVTZ
  Basis Set: (AUG-CC-PVTZ AUX)
    Blend: AUG-CC-PVTZ-JKFIT
	 Reference Energy          =    -590.3855160606981372 [Eh]
	 Singles Energy            =      -0.0000000000000000 [Eh]
	 Same-Spin Energy          =      -0.2683918412284756 [Eh]
	 Opposite-Spin Energy      =      -0.8645029450093445 [Eh]
	 Correlation Energy        =      -1.1328947862378200 [Eh]
	 Total Energy              =    -591.5184108469359217 [Eh]

	 ================> DF-SCS-MP2 Energies <==================
	-----------------------------------------------------------
	 SCS Same-Spin Scale       =       0.3333333333333333 [-]
	 SCS Opposite-Spin Scale   =       1.2000000000000000 [-]
	 SCS Same-Spin Energy      =      -0.0894639470761585 [Eh]
	 SCS Opposite-Spin Energy  =      -1.0374035340112133 [Eh]
	 SCS Correlation Energy    =      -1.1268674810873718 [Eh]
	 SCS Total Energy          =    -591.5123835417855389 [Eh]
	-----------------------------------------------------------

  Dipole Moment: [D]
     X:    -0.8701      Y:    -0.2534      Z:     0.3333     Total:     0.9656

*** Psi4 exiting successfully. Buy a developer a beer!
