                               Psi4 1.3.2 release

  ==> Input File <==

--------------------------------------------------------------------------
#psi4
#
memory 32 gb

molecule  {
0 1
  S        1.4017960     0.0318670    -0.2267910
  C        0.3005090    -1.2470646     0.4453065
  C       -1.0366050    -1.1980160    -0.1526860
  C       -1.6877140    -0.0149620    -0.1717330
  C       -1.0273490     1.2315180     0.1753310
  C        0.3208110     1.3651600     0.1119950
  H        0.3192380    -1.2040060     1.5241050
  H        0.8310050    -2.2339400     0.1718380
  H       -1.5205060    -2.1086570    -0.4970330
  H       -2.7141090     0.0333350    -0.5285000
  H       -1.6282610     2.1139460     0.3806850
  H        0.8050420     2.3317560     0.2174670
units angstrom
no_reorient  #important for SAPT in psi4, default
symmetry c1  #important for SAPT in psi4, default
}

set PROPERTIES_ORIGIN ["COM"]
properties('MP2/aug-cc-pvtz', properties = ['dipole'])
--------------------------------------------------------------------------

    Molecular point group: c1
  Charge       = 0
  Multiplicity = 1
  Basis Set: AUG-CC-PVTZ
    Blend: AUG-CC-PVTZ
  Basis Set: (AUG-CC-PVTZ AUX)
    Blend: AUG-CC-PVTZ-JKFIT

    Orbital Energies [Eh]
    ---------------------

    Doubly Occupied:

       1A    -91.962926     2A    -11.268708     3A    -11.268592
       4A    -11.241137     5A    -11.240696     6A    -11.239106
       7A     -8.963383     8A     -6.644607     9A     -6.643604
      10A     -6.642762    11A     -1.145508    12A     -1.029271
      13A     -1.017858    14A     -0.857862    15A     -0.817733
      16A     -0.694034    17A     -0.682966    18A     -0.608962
      19A     -0.598307    20A     -0.584534    21A     -0.531906
      22A     -0.479160    23A     -0.463866    24A     -0.452213
      25A     -0.364392    26A     -0.298523

  @DF-RHF Final Energy:  -590.40009749089506

   => Energetics <=

    Nuclear Repulsion Energy =            272.8736778507932286
    One-Electron Energy =               -1351.0623168580193578
    Two-Electron Energy =                 487.7885415163310654
    Total Energy =                       -590.4000974908950639
  Basis Set: (AUG-CC-PVTZ AUX)
    Blend: AUG-CC-PVTZ-RI
    Molecular point group: c1

    Geometry (in Angstrom), charge = 0, multiplicity = 1:

       Center              X                  Y                   Z               Mass
    ------------   -----------------  -----------------  -----------------  -----------------
         S            1.367966061564     0.015721571983    -0.215834683153    31.972071174400
         C            0.266679061564    -1.263210028017     0.456262816847    12.000000000000
         C           -1.070434938436    -1.214161428017    -0.141729683153    12.000000000000
         C           -1.721543938436    -0.031107428017    -0.160776683153    12.000000000000
         C           -1.061178938436     1.215372571983     0.186287316847    12.000000000000
         C            0.286981061564     1.349014571983     0.122951316847    12.000000000000
         H            0.285408061564    -1.220151428017     1.535061316847     1.007825032230
         H            0.797175061564    -2.250085428017     0.182794316847     1.007825032230
         H           -1.554335938436    -2.124802428017    -0.486076683153     1.007825032230
         H           -2.747938938436     0.017189571983    -0.517543683153     1.007825032230
         H           -1.662090938436     2.097800571983     0.391641316847     1.007825032230
         H            0.771212061564     2.315610571983     0.228423316847     1.007825032230

  Basis Set: AUG-CC-PVTZ
    Blend: AUG-CC-PVTZ
  Basis Set: (AUG-CC-PVTZ AUX)
    Blend: AUG-CC-PVTZ-JKFIT
	 Reference Energy          =    -590.4000974908950639 [Eh]
	 Singles Energy            =      -0.0000000000000000 [Eh]
	 Same-Spin Energy          =      -0.2685081239322212 [Eh]
	 Opposite-Spin Energy      =      -0.8635858150686370 [Eh]
	 Correlation Energy        =      -1.1320939390008582 [Eh]
	 Total Energy              =    -591.5321914298958745 [Eh]

	 ================> DF-SCS-MP2 Energies <==================
	-----------------------------------------------------------
	 SCS Same-Spin Scale       =       0.3333333333333333 [-]
	 SCS Opposite-Spin Scale   =       1.2000000000000000 [-]
	 SCS Same-Spin Energy      =      -0.0895027079774071 [Eh]
	 SCS Opposite-Spin Energy  =      -1.0363029780823643 [Eh]
	 SCS Correlation Energy    =      -1.1258056860597714 [Eh]
	 SCS Total Energy          =    -591.5259031769547846 [Eh]
	-----------------------------------------------------------

  Dipole Moment: [D]
     X:    -0.8533      Y:    -0.3160      Z:     0.4979     Total:     1.0373

*** Psi4 exiting successfully. Buy a developer a beer!
