                               Psi4 1.3.2 release

  ==> Input File <==

--------------------------------------------------------------------------
#psi4
#
memory 32 gb

molecule  {
0 1
  S        1.4017960     0.0318670    -0.2267910
  C        0.3439980    -1.2907520     0.4304430
  C       -1.1547006    -1.2554090    -0.2050573
  C       -1.6877140    -0.0149620    -0.1717330
  C       -1.0273490     1.2315180     0.1753310
  C        0.3208110     1.3651600     0.1119950
  H        0.3192380    -1.2040060     1.5241050
  H        0.8310050    -2.2339400     0.1718380
  H       -1.5205060    -2.1086570    -0.4970330
  H       -2.7141090     0.0333350    -0.5285000
  H       -1.6282610     2.1139460     0.3806850
  H        0.8050420     2.3317560     0.2174670
units angstrom
no_reorient  #important for SAPT in psi4, default
symmetry c1  #important for SAPT in psi4, default
}

set PROPERTIES_ORIGIN ["COM"]
properties('MP2/aug-cc-pvtz', properties = ['dipole'])
--------------------------------------------------------------------------

    Molecular point group: c1
  Charge       = 0
  Multiplicity = 1
  Basis Set: AUG-CC-PVTZ
    Blend: AUG-CC-PVTZ
  Basis Set: (AUG-CC-PVTZ AUX)
    Blend: AUG-CC-PVTZ-JKFIT

    Orbital Energies [Eh]
    ---------------------

    Doubly Occupied:

       1A    -91.962637     2A    -11.271751     3A    -11.270001
       4A    -11.243954     5A    -11.243137     6A    -11.240585
       7A     -8.962922     8A     -6.644195     9A     -6.643193
      10A     -6.642387    11A     -1.133228    12A     -1.025384
      13A     -1.012999    14A     -0.856041    15A     -0.827859
      16A     -0.702782    17A     -0.687778    18A     -0.603820
      19A     -0.599679    20A     -0.589813    21A     -0.507818
      22A     -0.494474    23A     -0.461825    24A     -0.443683
      25A     -0.365536    26A     -0.300114

  @DF-RHF Final Energy:  -590.38461446222209

   => Energetics <=

    Nuclear Repulsion Energy =            270.1465371769853050
    One-Electron Energy =               -1345.5871168752987614
    Two-Electron Energy =                 485.0559652360913674
    Total Energy =                       -590.3846144622220891
  Basis Set: (AUG-CC-PVTZ AUX)
    Blend: AUG-CC-PVTZ-RI
    Molecular point group: c1

    Geometry (in Angstrom), charge = 0, multiplicity = 1:

       Center              X                  Y                   Z               Mass
    ------------   -----------------  -----------------  -----------------  -----------------
         S            1.377099790788     0.028096361928    -0.207603448146    31.972071174400
         C            0.319301790788    -1.294522638072     0.449630551854    12.000000000000
         C           -1.179396809212    -1.259179638072    -0.185869748146    12.000000000000
         C           -1.712410209212    -0.018732638072    -0.152545448146    12.000000000000
         C           -1.052045209212     1.227747361928     0.194518551854    12.000000000000
         C            0.296114790788     1.361389361928     0.131182551854    12.000000000000
         H            0.294541790788    -1.207776638072     1.543292551854     1.007825032230
         H            0.806308790788    -2.237710638072     0.191025551854     1.007825032230
         H           -1.545202209212    -2.112427638072    -0.477845448146     1.007825032230
         H           -2.738805209212     0.029564361928    -0.509312448146     1.007825032230
         H           -1.652957209212     2.110175361928     0.399872551854     1.007825032230
         H            0.780345790788     2.327985361928     0.236654551854     1.007825032230

  Basis Set: AUG-CC-PVTZ
    Blend: AUG-CC-PVTZ
  Basis Set: (AUG-CC-PVTZ AUX)
    Blend: AUG-CC-PVTZ-JKFIT
	 Reference Energy          =    -590.3846144622220891 [Eh]
	 Singles Energy            =      -0.0000000000000000 [Eh]
	 Same-Spin Energy          =      -0.2671621257829659 [Eh]
	 Opposite-Spin Energy      =      -0.8630904191933266 [Eh]
	 Correlation Energy        =      -1.1302525449762926 [Eh]
	 Total Energy              =    -591.5148670071984043 [Eh]

	 ================> DF-SCS-MP2 Energies <==================
	-----------------------------------------------------------
	 SCS Same-Spin Scale       =       0.3333333333333333 [-]
	 SCS Opposite-Spin Scale   =       1.2000000000000000 [-]
	 SCS Same-Spin Energy      =      -0.0890540419276553 [Eh]
	 SCS Opposite-Spin Energy  =      -1.0357085030319919 [Eh]
	 SCS Correlation Energy    =      -1.1247625449596472 [Eh]
	 SCS Total Energy          =    -591.5093770071816834 [Eh]
	-----------------------------------------------------------

  Dipole Moment: [D]
     X:    -0.8726      Y:    -0.3288      Z:     0.4606     Total:     1.0400

*** Psi4 exiting successfully. Buy a developer a beer!
