                               Psi4 1.4a3.dev225

  ==> Input File <==

--------------------------------------------------------------------------
#psi4
#
memory 32 gb

molecule  {
0 1
  S        1.4017960     0.0318670    -0.2267910
  C        0.3439980    -1.2907520     0.4304430
  C       -1.0366050    -1.1980160    -0.1526860
  C       -1.6877140    -0.0149620    -0.1717330
  C       -1.0273490     1.2315180     0.1753310
  C        0.3208110     1.3651600     0.1119950
  H        0.3203661    -1.2079584     1.4742742
  H        0.8310050    -2.2339400     0.1718380
  H       -1.5205060    -2.1086570    -0.4970330
  H       -2.7141090     0.0333350    -0.5285000
  H       -1.6282610     2.1139460     0.3806850
  H        0.8050420     2.3317560     0.2174670
units angstrom
no_reorient  #important for SAPT in psi4, default
symmetry c1  #important for SAPT in psi4, default
}

set PROPERTIES_ORIGIN ["COM"]
properties('MP2/aug-cc-pvtz', properties = ['dipole'])
--------------------------------------------------------------------------

    Molecular point group: c1
  Charge       = 0
  Multiplicity = 1
  Basis Set: AUG-CC-PVTZ
    Blend: AUG-CC-PVTZ
  Basis Set: (AUG-CC-PVTZ AUX)
    Blend: AUG-CC-PVTZ-JKFIT

    Orbital Energies [Eh]
    ---------------------

    Doubly Occupied:

       1A    -91.961614     2A    -11.268500     3A    -11.262182
       4A    -11.243207     5A    -11.240810     6A    -11.239229
       7A     -8.962150     8A     -6.643392     9A     -6.642447
      10A     -6.641584    11A     -1.142308    12A     -1.027645
      13A     -1.019615    14A     -0.862482    15A     -0.817140
      16A     -0.695035    17A     -0.683676    18A     -0.610264
      19A     -0.601789    20A     -0.586165    21A     -0.534772
      22A     -0.483627    23A     -0.464231    24A     -0.451298
      25A     -0.363691    26A     -0.297849

  @DF-RHF Final Energy:  -590.40473454881283

   => Energetics <=

    Nuclear Repulsion Energy =            272.4551984991060181
    One-Electron Energy =               -1350.2264550083295944
    Two-Electron Energy =                 487.3665219604106937
    Total Energy =                       -590.4047345488129395
  Basis Set: (AUG-CC-PVTZ AUX)
    Blend: AUG-CC-PVTZ-RI
    Molecular point group: c1

    Geometry (in Angstrom), charge = 0, multiplicity = 1:

       Center              X                  Y                   Z               Mass
    ------------   -----------------  -----------------  -----------------  -----------------
         S            1.362630312235     0.021110649739    -0.213502658976    31.972071174400
         C            0.304832312235    -1.301508350261     0.443731341024    12.000000000000
         C           -1.075770687765    -1.208772350261    -0.139397658976    12.000000000000
         C           -1.726879687765    -0.025718350261    -0.158444658976    12.000000000000
         C           -1.066514687765     1.220761649739     0.188619341024    12.000000000000
         C            0.281645312235     1.354403649739     0.125283341024    12.000000000000
         H            0.281200412235    -1.218714750261     1.487562541024     1.007825032230
         H            0.791839312235    -2.244696350261     0.185126341024     1.007825032230
         H           -1.559671687765    -2.119413350261    -0.483744658976     1.007825032230
         H           -2.753274687765     0.022578649739    -0.515211658976     1.007825032230
         H           -1.667426687765     2.103189649739     0.393973341024     1.007825032230
         H            0.765876312235     2.320999649739     0.230755341024     1.007825032230

  Basis Set: AUG-CC-PVTZ
    Blend: AUG-CC-PVTZ
  Basis Set: (AUG-CC-PVTZ AUX)
    Blend: AUG-CC-PVTZ-JKFIT
	 Reference Energy          =    -590.4047345488128258 [Eh]
	 Singles Energy            =      -0.0000000000000000 [Eh]
	 Same-Spin Energy          =      -0.2676890767372010 [Eh]
	 Opposite-Spin Energy      =      -0.8622735124201243 [Eh]
	 Correlation Energy        =      -1.1299625891573253 [Eh]
	 Total Energy              =    -591.5346971379701699 [Eh]

	 ================> DF-SCS-MP2 Energies <==================
	-----------------------------------------------------------
	 SCS Same-Spin Scale       =       0.3333333333333333 [-]
	 SCS Opposite-Spin Scale   =       1.2000000000000000 [-]
	 SCS Same-Spin Energy      =      -0.0892296922457337 [Eh]
	 SCS Opposite-Spin Energy  =      -1.0347282149041490 [Eh]
	 SCS Correlation Energy    =      -1.1239579071498826 [Eh]
	 SCS Total Energy          =    -591.5286924559627550 [Eh]
	-----------------------------------------------------------

  Dipole Moment: [D]
     X:    -0.8577      Y:    -0.3748      Z:     0.5172     Total:     1.0694

*** Psi4 exiting successfully. Buy a developer a beer!
