                               Psi4 1.3.2 release

  ==> Input File <==

--------------------------------------------------------------------------
#psi4
#
memory 32 gb

molecule  {
0 1
  S        1.4017960     0.0318670    -0.2267910
  C        0.3439980    -1.2907520     0.4304430
  C       -1.0366050    -1.1980160    -0.1526860
  C       -1.6877140    -0.0149620    -0.1717330
  C       -1.0249904     1.2082113     0.1719343
  C        0.3208110     1.3651600     0.1119950
  H        0.3192380    -1.2040060     1.5241050
  H        0.8310050    -2.2339400     0.1718380
  H       -1.5205060    -2.1086570    -0.4970330
  H       -2.7141090     0.0333350    -0.5285000
  H       -1.6282610     2.1139460     0.3806850
  H        0.8050420     2.3317560     0.2174670
units angstrom
no_reorient  #important for SAPT in psi4, default
symmetry c1  #important for SAPT in psi4, default
}

set PROPERTIES_ORIGIN ["COM"]
properties('MP2/aug-cc-pvtz', properties = ['dipole'])
--------------------------------------------------------------------------

    Molecular point group: c1
  Charge       = 0
  Multiplicity = 1
  Basis Set: AUG-CC-PVTZ
    Blend: AUG-CC-PVTZ
  Basis Set: (AUG-CC-PVTZ AUX)
    Blend: AUG-CC-PVTZ-JKFIT

    Orbital Energies [Eh]
    ---------------------

    Doubly Occupied:

       1A    -91.961477     2A    -11.268772     3A    -11.267914
       4A    -11.243937     5A    -11.241384     6A    -11.238268
       7A     -8.962025     8A     -6.643257     9A     -6.642332
      10A     -6.641466    11A     -1.143804    12A     -1.026028
      13A     -1.020833    14A     -0.858340    15A     -0.819280
      16A     -0.695847    17A     -0.677609    18A     -0.607795
      19A     -0.600617    20A     -0.583764    21A     -0.537080
      22A     -0.483879    23A     -0.462455    24A     -0.450950
      25A     -0.364477    26A     -0.296480

  @DF-RHF Final Energy:  -590.40425124021203

   => Energetics <=

    Nuclear Repulsion Energy =            272.5582214427495842
    One-Electron Energy =               -1350.4448030679261592
    Two-Electron Energy =                 487.4823303849645981
    Total Energy =                       -590.4042512402120337
  Basis Set: (AUG-CC-PVTZ AUX)
    Blend: AUG-CC-PVTZ-RI
    Molecular point group: c1

    Geometry (in Angstrom), charge = 0, multiplicity = 1:

       Center              X                  Y                   Z               Mass
    ------------   -----------------  -----------------  -----------------  -----------------
         S            1.362353159166     0.023923339240    -0.213599174198    31.972071174400
         C            0.304555159166    -1.298695660760     0.443634825802    12.000000000000
         C           -1.076047840834    -1.205959660760    -0.139494174198    12.000000000000
         C           -1.727156840834    -0.022905660760    -0.158541174198    12.000000000000
         C           -1.064433240834     1.200267639240     0.185126125802    12.000000000000
         C            0.281368159166     1.357216339240     0.125186825802    12.000000000000
         H            0.279795159166    -1.211949660760     1.537296825802     1.007825032230
         H            0.791562159166    -2.241883660760     0.185029825802     1.007825032230
         H           -1.559948840834    -2.116600660760    -0.483841174198     1.007825032230
         H           -2.753551840834     0.025391339240    -0.515308174198     1.007825032230
         H           -1.667703840834     2.106002339240     0.393876825802     1.007825032230
         H            0.765599159166     2.323812339240     0.230658825802     1.007825032230

  Basis Set: AUG-CC-PVTZ
    Blend: AUG-CC-PVTZ
  Basis Set: (AUG-CC-PVTZ AUX)
    Blend: AUG-CC-PVTZ-JKFIT
	 Reference Energy          =    -590.4042512402120337 [Eh]
	 Singles Energy            =      -0.0000000000000000 [Eh]
	 Same-Spin Energy          =      -0.2682184188887380 [Eh]
	 Opposite-Spin Energy      =      -0.8629325753469268 [Eh]
	 Correlation Energy        =      -1.1311509942356648 [Eh]
	 Total Energy              =    -591.5354022344477016 [Eh]

	 ================> DF-SCS-MP2 Energies <==================
	-----------------------------------------------------------
	 SCS Same-Spin Scale       =       0.3333333333333333 [-]
	 SCS Opposite-Spin Scale   =       1.2000000000000000 [-]
	 SCS Same-Spin Energy      =      -0.0894061396295793 [Eh]
	 SCS Opposite-Spin Energy  =      -1.0355190904163121 [Eh]
	 SCS Correlation Energy    =      -1.1249252300458914 [Eh]
	 SCS Total Energy          =    -591.5291764702578803 [Eh]
	-----------------------------------------------------------

  Dipole Moment: [D]
     X:    -0.8626      Y:    -0.3567      Z:     0.4934     Total:     1.0559

*** Psi4 exiting successfully. Buy a developer a beer!
