                               Psi4 1.3.2 release

  ==> Input File <==

--------------------------------------------------------------------------
#psi4
#
memory 32 gb

molecule  {
0 1
  S        1.4017960     0.0318670    -0.2267910
  C        0.3370244    -1.1350260     0.4505374
  C       -1.0366050    -1.1980160    -0.1526860
  C       -1.6877140    -0.0149620    -0.1717330
  C       -1.0273490     1.2315180     0.1753310
  C        0.3208110     1.3651600     0.1119950
  H        0.3192380    -1.2040060     1.5241050
  H        0.8310050    -2.2339400     0.1718380
  H       -1.5205060    -2.1086570    -0.4970330
  H       -2.7141090     0.0333350    -0.5285000
  H       -1.6282610     2.1139460     0.3806850
  H        0.8050420     2.3317560     0.2174670
units angstrom
no_reorient  #important for SAPT in psi4, default
symmetry c1  #important for SAPT in psi4, default
}

set PROPERTIES_ORIGIN ["COM"]
properties('MP2/aug-cc-pvtz', properties = ['dipole'])
--------------------------------------------------------------------------

    Molecular point group: c1
  Charge       = 0
  Multiplicity = 1
  Basis Set: AUG-CC-PVTZ
    Blend: AUG-CC-PVTZ
  Basis Set: (AUG-CC-PVTZ AUX)
    Blend: AUG-CC-PVTZ-JKFIT

    Orbital Energies [Eh]
    ---------------------

    Doubly Occupied:

       1A    -91.964076     2A    -11.270011     3A    -11.267841
       4A    -11.242552     5A    -11.242215     6A    -11.237783
       7A     -8.965977     8A     -6.647350     9A     -6.646233
      10A     -6.645283    11A     -1.151935    12A     -1.029407
      13A     -1.023326    14A     -0.850808    15A     -0.820578
      16A     -0.692536    17A     -0.684531    18A     -0.607263
      19A     -0.590053    20A     -0.588169    21A     -0.525970
      22A     -0.495623    23A     -0.454050    24A     -0.444181
      25A     -0.366805    26A     -0.301019

  @DF-RHF Final Energy:  -590.38174972769650

   => Energetics <=

    Nuclear Repulsion Energy =            274.5659104713867009
    One-Electron Energy =               -1354.3841730920905775
    Two-Electron Energy =                 489.4365128930074320
    Total Energy =                       -590.3817497276966151
  Basis Set: (AUG-CC-PVTZ AUX)
    Blend: AUG-CC-PVTZ-RI
    Molecular point group: c1

    Geometry (in Angstrom), charge = 0, multiplicity = 1:

       Center              X                  Y                   Z               Mass
    ------------   -----------------  -----------------  -----------------  -----------------
         S            1.363495655780     0.002005222021    -0.216475077222    31.972071174400
         C            0.298724055780    -1.164887777979     0.460853322778    12.000000000000
         C           -1.074905344220    -1.227877777979    -0.142370077222    12.000000000000
         C           -1.726014344220    -0.044823777979    -0.161417077222    12.000000000000
         C           -1.065649344220     1.201656222021     0.185646922778    12.000000000000
         C            0.282510655780     1.335298222021     0.122310922778    12.000000000000
         H            0.280937655780    -1.233867777979     1.534420922778     1.007825032230
         H            0.792704655780    -2.263801777979     0.182153922778     1.007825032230
         H           -1.558806344220    -2.138518777979    -0.486717077222     1.007825032230
         H           -2.752409344220     0.003473222021    -0.518184077222     1.007825032230
         H           -1.666561344220     2.084084222021     0.391000922778     1.007825032230
         H            0.766741655780     2.301894222021     0.227782922778     1.007825032230

  Basis Set: AUG-CC-PVTZ
    Blend: AUG-CC-PVTZ
  Basis Set: (AUG-CC-PVTZ AUX)
    Blend: AUG-CC-PVTZ-JKFIT
	 Reference Energy          =    -590.3817497276965014 [Eh]
	 Singles Energy            =      -0.0000000000000000 [Eh]
	 Same-Spin Energy          =      -0.2694689117794216 [Eh]
	 Opposite-Spin Energy      =      -0.8652174533111221 [Eh]
	 Correlation Energy        =      -1.1346863650905437 [Eh]
	 Total Energy              =    -591.5164360927869893 [Eh]

	 ================> DF-SCS-MP2 Energies <==================
	-----------------------------------------------------------
	 SCS Same-Spin Scale       =       0.3333333333333333 [-]
	 SCS Opposite-Spin Scale   =       1.2000000000000000 [-]
	 SCS Same-Spin Energy      =      -0.0898229705931405 [Eh]
	 SCS Opposite-Spin Energy  =      -1.0382609439733466 [Eh]
	 SCS Correlation Energy    =      -1.1280839145664872 [Eh]
	 SCS Total Energy          =    -591.5098336422629473 [Eh]
	-----------------------------------------------------------

  Dipole Moment: [D]
     X:    -0.8300      Y:    -0.2145      Z:     0.4410     Total:     0.9640

*** Psi4 exiting successfully. Buy a developer a beer!
