                               Psi4 1.3.2 release

  ==> Input File <==

--------------------------------------------------------------------------
#psi4
#
memory 32 gb

molecule  {
0 1
  S        1.4017960     0.0318670    -0.2267910
  C        0.3439980    -1.2907520     0.4304430
  C       -1.0366050    -1.1980160    -0.1526860
  C       -1.6877140    -0.0149620    -0.1717330
  C       -1.0273490     1.2315180     0.1753310
  C        0.1972391     1.5175743     0.1507230
  H        0.3192380    -1.2040060     1.5241050
  H        0.8310050    -2.2339400     0.1718380
  H       -1.5205060    -2.1086570    -0.4970330
  H       -2.7141090     0.0333350    -0.5285000
  H       -1.6282610     2.1139460     0.3806850
  H        0.8050420     2.3317560     0.2174670
units angstrom
no_reorient  #important for SAPT in psi4, default
symmetry c1  #important for SAPT in psi4, default
}

set PROPERTIES_ORIGIN ["COM"]
properties('MP2/aug-cc-pvtz', properties = ['dipole'])
--------------------------------------------------------------------------

    Molecular point group: c1
  Charge       = 0
  Multiplicity = 1
  Basis Set: AUG-CC-PVTZ
    Blend: AUG-CC-PVTZ
  Basis Set: (AUG-CC-PVTZ AUX)
    Blend: AUG-CC-PVTZ-JKFIT

    Orbital Energies [Eh]
    ---------------------

    Doubly Occupied:

       1A    -91.949078     2A    -11.264286     3A    -11.264057
       4A    -11.250554     5A    -11.243838     6A    -11.237481
       7A     -8.947822     8A     -6.628840     9A     -6.628006
      10A     -6.627144    11A     -1.142664    12A     -1.047614
      13A     -1.001713    14A     -0.851047    15A     -0.825960
      16A     -0.715353    17A     -0.683235    18A     -0.628078
      19A     -0.603648    20A     -0.579208    21A     -0.536592
      22A     -0.474536    23A     -0.464796    24A     -0.416536
      25A     -0.353045    26A     -0.318609

  @DF-RHF Final Energy:  -590.37988297297090

   => Energetics <=

    Nuclear Repulsion Energy =            270.0081903139346764
    One-Electron Energy =               -1345.4086697515449487
    Two-Electron Energy =                 485.0205964646394250
    Total Energy =                       -590.3798829729709041
  Basis Set: (AUG-CC-PVTZ AUX)
    Blend: AUG-CC-PVTZ-RI
    Molecular point group: c1

    Geometry (in Angstrom), charge = 0, multiplicity = 1:

       Center              X                  Y                   Z               Mass
    ------------   -----------------  -----------------  -----------------  -----------------
         S            1.377770228006     0.002410657614    -0.218756299753    31.972071174400
         C            0.319972228006    -1.320208342386     0.438477700247    12.000000000000
         C           -1.060630771994    -1.227472342386    -0.144651299753    12.000000000000
         C           -1.711739771994    -0.044418342386    -0.163698299753    12.000000000000
         C           -1.051374771994     1.202061657614     0.183365700247    12.000000000000
         C            0.173213328006     1.488117957614     0.158757700247    12.000000000000
         H            0.295212228006    -1.233462342386     1.532139700247     1.007825032230
         H            0.806979228006    -2.263396342386     0.179872700247     1.007825032230
         H           -1.544531771994    -2.138113342386    -0.488998299753     1.007825032230
         H           -2.738134771994     0.003878657614    -0.520465299753     1.007825032230
         H           -1.652286771994     2.084489657614     0.388719700247     1.007825032230
         H            0.781016228006     2.302299657614     0.225501700247     1.007825032230

  Basis Set: AUG-CC-PVTZ
    Blend: AUG-CC-PVTZ
  Basis Set: (AUG-CC-PVTZ AUX)
    Blend: AUG-CC-PVTZ-JKFIT
	 Reference Energy          =    -590.3798829729709041 [Eh]
	 Singles Energy            =      -0.0000000000000000 [Eh]
	 Same-Spin Energy          =      -0.2655464712659850 [Eh]
	 Opposite-Spin Energy      =      -0.8608489303067764 [Eh]
	 Correlation Energy        =      -1.1263954015727613 [Eh]
	 Total Energy              =    -591.5062783745436263 [Eh]

	 ================> DF-SCS-MP2 Energies <==================
	-----------------------------------------------------------
	 SCS Same-Spin Scale       =       0.3333333333333333 [-]
	 SCS Opposite-Spin Scale   =       1.2000000000000000 [-]
	 SCS Same-Spin Energy      =      -0.0885154904219950 [Eh]
	 SCS Opposite-Spin Energy  =      -1.0330187163681317 [Eh]
	 SCS Correlation Energy    =      -1.1215342067901266 [Eh]
	 SCS Total Energy          =    -591.5014171797610061 [Eh]
	-----------------------------------------------------------

  Dipole Moment: [D]
     X:    -1.4004      Y:    -0.1012      Z:     0.5593     Total:     1.5113

*** Psi4 exiting successfully. Buy a developer a beer!
