                               Psi4 1.4a3.dev225

  ==> Input File <==

--------------------------------------------------------------------------
#psi4
#
memory 32 gb

molecule  {
0 1
  S        1.4017960     0.0318670    -0.2267910
  C        0.3439980    -1.2907520     0.4304430
  C       -1.0366050    -1.1980160    -0.1526860
  C       -1.6877140    -0.0149620    -0.1717330
  C       -1.0273490     1.2315180     0.1753310
  C        0.3208110     1.3651600     0.1119950
  H        0.3192380    -1.2040060     1.5241050
  H        0.8310050    -2.2339400     0.1718380
  H       -1.5205060    -2.1086570    -0.4970330
  H       -2.7612907     0.0355551    -0.5449000
  H       -1.6282610     2.1139460     0.3806850
  H        0.8050420     2.3317560     0.2174670
units angstrom
no_reorient  #important for SAPT in psi4, default
symmetry c1  #important for SAPT in psi4, default
}

set PROPERTIES_ORIGIN ["COM"]
properties('MP2/aug-cc-pvtz', properties = ['dipole'])
--------------------------------------------------------------------------

    Molecular point group: c1
  Charge       = 0
  Multiplicity = 1
  Basis Set: AUG-CC-PVTZ
    Blend: AUG-CC-PVTZ
  Basis Set: (AUG-CC-PVTZ AUX)
    Blend: AUG-CC-PVTZ-JKFIT

    Orbital Energies [Eh]
    ---------------------

    Doubly Occupied:

       1A    -91.962286     2A    -11.269053     3A    -11.268223
       4A    -11.245768     5A    -11.243398     6A    -11.241416
       7A     -8.962790     8A     -6.644028     9A     -6.643084
      10A     -6.642222    11A     -1.141680    12A     -1.026702
      13A     -1.017705    14A     -0.858866    15A     -0.815971
      16A     -0.688302    17A     -0.680192    18A     -0.608307
      19A     -0.600189    20A     -0.583913    21A     -0.529871
      22A     -0.484061    23A     -0.463554    24A     -0.450470
      25A     -0.364146    26A     -0.297974

  @DF-RHF Final Energy:  -590.40305982633060

   => Energetics <=

    Nuclear Repulsion Energy =            271.9642481566981473
    One-Electron Energy =               -1349.2662784475412536
    Two-Electron Energy =                 486.8989704645123879
    Total Energy =                       -590.4030598263307184
  Basis Set: (AUG-CC-PVTZ AUX)
    Blend: AUG-CC-PVTZ-RI
    Molecular point group: c1

    Geometry (in Angstrom), charge = 0, multiplicity = 1:

       Center              X                  Y                   Z               Mass
    ------------   -----------------  -----------------  -----------------  -----------------
         S            1.363127030373     0.021047184506    -0.213846392229    31.972071174400
         C            0.305329030373    -1.301571815494     0.443387607771    12.000000000000
         C           -1.075273969627    -1.208835815494    -0.139741392229    12.000000000000
         C           -1.726382969627    -0.025781815494    -0.158788392229    12.000000000000
         C           -1.066017969627     1.220698184506     0.188275607771    12.000000000000
         C            0.282142030373     1.354340184506     0.124939607771    12.000000000000
         H            0.280569030373    -1.214825815494     1.537049607771     1.007825032230
         H            0.792336030373    -2.244759815494     0.184782607771     1.007825032230
         H           -1.559174969627    -2.119476815494    -0.484088392229     1.007825032230
         H           -2.799959669627     0.024735284506    -0.531955392229     1.007825032230
         H           -1.666929969627     2.103126184506     0.393629607771     1.007825032230
         H            0.766373030373     2.320936184506     0.230411607771     1.007825032230

  Basis Set: AUG-CC-PVTZ
    Blend: AUG-CC-PVTZ
  Basis Set: (AUG-CC-PVTZ AUX)
    Blend: AUG-CC-PVTZ-JKFIT
	 Reference Energy          =    -590.4030598263306047 [Eh]
	 Singles Energy            =      -0.0000000000000000 [Eh]
	 Same-Spin Energy          =      -0.2678895998824716 [Eh]
	 Opposite-Spin Energy      =      -0.8629620538795655 [Eh]
	 Correlation Energy        =      -1.1308516537620370 [Eh]
	 Total Energy              =    -591.5339114800926836 [Eh]

	 ================> DF-SCS-MP2 Energies <==================
	-----------------------------------------------------------
	 SCS Same-Spin Scale       =       0.3333333333333333 [-]
	 SCS Opposite-Spin Scale   =       1.2000000000000000 [-]
	 SCS Same-Spin Energy      =      -0.0892965332941572 [Eh]
	 SCS Opposite-Spin Energy  =      -1.0355544646554786 [Eh]
	 SCS Correlation Energy    =      -1.1248509979496357 [Eh]
	 SCS Total Energy          =    -591.5279108242801840 [Eh]
	-----------------------------------------------------------

  Dipole Moment: [D]
     X:    -0.8370      Y:    -0.3551      Z:     0.5004     Total:     1.0378

*** Psi4 exiting successfully. Buy a developer a beer!
