                               Psi4 1.3.2 release

  ==> Input File <==

--------------------------------------------------------------------------
#psi4
#
memory 32 gb

molecule  {
0 1
  S        1.4017960     0.0318670    -0.2267910
  C        0.3439980    -1.2907520     0.4304430
  C       -1.0366050    -1.1980160    -0.1526860
  C       -1.6877140    -0.0149620    -0.1717330
  C       -1.0292969     1.2548654     0.1787084
  C        0.3208110     1.3651600     0.1119950
  H        0.3192380    -1.2040060     1.5241050
  H        0.8310050    -2.2339400     0.1718380
  H       -1.5205060    -2.1086570    -0.4970330
  H       -2.7141090     0.0333350    -0.5285000
  H       -1.6282610     2.1139460     0.3806850
  H        0.8050420     2.3317560     0.2174670
units angstrom
no_reorient  #important for SAPT in psi4, default
symmetry c1  #important for SAPT in psi4, default
}

set PROPERTIES_ORIGIN ["COM"]
properties('MP2/aug-cc-pvtz', properties = ['dipole'])
--------------------------------------------------------------------------

    Molecular point group: c1
  Charge       = 0
  Multiplicity = 1
  Basis Set: AUG-CC-PVTZ
    Blend: AUG-CC-PVTZ
  Basis Set: (AUG-CC-PVTZ AUX)
    Blend: AUG-CC-PVTZ-JKFIT

    Orbital Energies [Eh]
    ---------------------

    Doubly Occupied:

       1A    -91.962648     2A    -11.268687     3A    -11.267799
       4A    -11.243177     5A    -11.240990     6A    -11.240238
       7A     -8.963105     8A     -6.644351     9A     -6.643386
      10A     -6.642530    11A     -1.139761    12A     -1.026853
      13A     -1.017231    14A     -0.861038    15A     -0.815006
      16A     -0.692622    17A     -0.683156    18A     -0.611633
      19A     -0.597674    20A     -0.584246    21A     -0.532738
      22A     -0.483494    23A     -0.464533    24A     -0.449789
      25A     -0.363352    26A     -0.298945

  @DF-RHF Final Energy:  -590.40534306526763

   => Energetics <=

    Nuclear Repulsion Energy =            271.8591125479698576
    One-Electron Energy =               -1349.0509436329473374
    Two-Electron Energy =                 486.7864880197096795
    Total Energy =                       -590.4053430652677434
  Basis Set: (AUG-CC-PVTZ AUX)
    Blend: AUG-CC-PVTZ-RI
    Molecular point group: c1

    Geometry (in Angstrom), charge = 0, multiplicity = 1:

       Center              X                  Y                   Z               Mass
    ------------   -----------------  -----------------  -----------------  -----------------
         S            1.362880383365     0.018211700905    -0.214428494863    31.972071174400
         C            0.305082383365    -1.304407299095     0.442805505137    12.000000000000
         C           -1.075520616635    -1.211671299095    -0.140323494863    12.000000000000
         C           -1.726629616635    -0.028617299095    -0.159370494863    12.000000000000
         C           -1.068212516635     1.241210100905     0.191070905137    12.000000000000
         C            0.281895383365     1.351504700905     0.124357505137    12.000000000000
         H            0.280322383365    -1.217661299095     1.536467505137     1.007825032230
         H            0.792089383365    -2.247595299095     0.184200505137     1.007825032230
         H           -1.559421616635    -2.122312299095    -0.484670494863     1.007825032230
         H           -2.753024616635     0.019679700905    -0.516137494863     1.007825032230
         H           -1.667176616635     2.100290700905     0.393047505137     1.007825032230
         H            0.766126383365     2.318100700905     0.229829505137     1.007825032230

  Basis Set: AUG-CC-PVTZ
    Blend: AUG-CC-PVTZ
  Basis Set: (AUG-CC-PVTZ AUX)
    Blend: AUG-CC-PVTZ-JKFIT
	 Reference Energy          =    -590.4053430652676298 [Eh]
	 Singles Energy            =      -0.0000000000000000 [Eh]
	 Same-Spin Energy          =      -0.2674273542119601 [Eh]
	 Opposite-Spin Energy      =      -0.8623578192370462 [Eh]
	 Correlation Energy        =      -1.1297851734490063 [Eh]
	 Total Energy              =    -591.5351282387166520 [Eh]

	 ================> DF-SCS-MP2 Energies <==================
	-----------------------------------------------------------
	 SCS Same-Spin Scale       =       0.3333333333333333 [-]
	 SCS Opposite-Spin Scale   =       1.2000000000000000 [-]
	 SCS Same-Spin Energy      =      -0.0891424514039867 [Eh]
	 SCS Opposite-Spin Energy  =      -1.0348293830844555 [Eh]
	 SCS Correlation Energy    =      -1.1239718344884422 [Eh]
	 SCS Total Energy          =    -591.5293148997560593 [Eh]
	-----------------------------------------------------------

  Dipole Moment: [D]
     X:    -0.8552      Y:    -0.3595      Z:     0.4973     Total:     1.0525

*** Psi4 exiting successfully. Buy a developer a beer!
