                               Psi4 1.3.2 release

  ==> Input File <==

--------------------------------------------------------------------------
#psi4
#
memory 32 gb

molecule  {
0 1
  S        1.4017960     0.0318670    -0.2267910
  C        0.3662292    -1.3119947     0.4227098
  C       -1.0366050    -1.1980160    -0.1526860
  C       -1.6877140    -0.0149620    -0.1717330
  C       -1.0273490     1.2315180     0.1753310
  C        0.3208110     1.3651600     0.1119950
  H        0.3192380    -1.2040060     1.5241050
  H        0.8310050    -2.2339400     0.1718380
  H       -1.5205060    -2.1086570    -0.4970330
  H       -2.7141090     0.0333350    -0.5285000
  H       -1.6282610     2.1139460     0.3806850
  H        0.8050420     2.3317560     0.2174670
units angstrom
no_reorient  #important for SAPT in psi4, default
symmetry c1  #important for SAPT in psi4, default
}

set PROPERTIES_ORIGIN ["COM"]
properties('MP2/aug-cc-pvtz', properties = ['dipole'])
--------------------------------------------------------------------------

    Molecular point group: c1
  Charge       = 0
  Multiplicity = 1
  Basis Set: AUG-CC-PVTZ
    Blend: AUG-CC-PVTZ
  Basis Set: (AUG-CC-PVTZ AUX)
    Blend: AUG-CC-PVTZ-JKFIT

    Orbital Energies [Eh]
    ---------------------

    Doubly Occupied:

       1A    -91.961764     2A    -11.268777     3A    -11.267769
       4A    -11.244996     5A    -11.241168     6A    -11.239539
       7A     -8.962272     8A     -6.643517     9A     -6.642603
      10A     -6.641732    11A     -1.140051    12A     -1.025310
      13A     -1.019519    14A     -0.861040    15A     -0.816712
      16A     -0.694907    17A     -0.678801    18A     -0.612023
      19A     -0.598633    20A     -0.583534    21A     -0.535943
      22A     -0.486352    23A     -0.462461    24A     -0.449076
      25A     -0.363700    26A     -0.297298

  @DF-RHF Final Energy:  -590.40494391023117

   => Energetics <=

    Nuclear Repulsion Energy =            271.8767711361586521
    One-Electron Energy =               -1349.0844370552467808
    Two-Electron Energy =                 486.8027220088570175
    Total Energy =                       -590.4049439102311680
  Basis Set: (AUG-CC-PVTZ AUX)
    Blend: AUG-CC-PVTZ-RI
    Molecular point group: c1

    Geometry (in Angstrom), charge = 0, multiplicity = 1:

       Center              X                  Y                   Z               Mass
    ------------   -----------------  -----------------  -----------------  -----------------
         S            1.359920251791     0.023670653591    -0.213068277243    31.972071174400
         C            0.324353451791    -1.320191046409     0.436432522757    12.000000000000
         C           -1.078480748209    -1.206212346409    -0.138963277243    12.000000000000
         C           -1.729589748209    -0.023158346409    -0.158010277243    12.000000000000
         C           -1.069224748209     1.223321653591     0.189053722757    12.000000000000
         C            0.278935251791     1.356963653591     0.125717722757    12.000000000000
         H            0.277362251791    -1.212202346409     1.537827722757     1.007825032230
         H            0.789129251791    -2.242136346409     0.185560722757     1.007825032230
         H           -1.562381748209    -2.116853346409    -0.483310277243     1.007825032230
         H           -2.755984748209     0.025138653591    -0.514777277243     1.007825032230
         H           -1.670136748209     2.105749653591     0.394407722757     1.007825032230
         H            0.763166251791     2.323559653591     0.231189722757     1.007825032230

  Basis Set: AUG-CC-PVTZ
    Blend: AUG-CC-PVTZ
  Basis Set: (AUG-CC-PVTZ AUX)
    Blend: AUG-CC-PVTZ-JKFIT
	 Reference Energy          =    -590.4049439102311680 [Eh]
	 Singles Energy            =      -0.0000000000000000 [Eh]
	 Same-Spin Energy          =      -0.2675340793171003 [Eh]
	 Opposite-Spin Energy      =      -0.8623072613599798 [Eh]
	 Correlation Energy        =      -1.1298413406770802 [Eh]
	 Total Energy              =    -591.5347852509082713 [Eh]

	 ================> DF-SCS-MP2 Energies <==================
	-----------------------------------------------------------
	 SCS Same-Spin Scale       =       0.3333333333333333 [-]
	 SCS Opposite-Spin Scale   =       1.2000000000000000 [-]
	 SCS Same-Spin Energy      =      -0.0891780264390334 [Eh]
	 SCS Opposite-Spin Energy  =      -1.0347687136319756 [Eh]
	 SCS Correlation Energy    =      -1.1239467400710090 [Eh]
	 SCS Total Energy          =    -591.5288906503021735 [Eh]
	-----------------------------------------------------------

  Dipole Moment: [D]
     X:    -0.8661      Y:    -0.3720      Z:     0.4927     Total:     1.0636

*** Psi4 exiting successfully. Buy a developer a beer!
