                               Psi4 1.3.2 release

  ==> Input File <==

--------------------------------------------------------------------------
#psi4
#
memory 32 gb

molecule  {
0 1
  S        1.4017960     0.0318670    -0.2267910
  C        0.3887758    -1.3328280     0.4147788
  C       -1.0366050    -1.1980160    -0.1526860
  C       -1.6877140    -0.0149620    -0.1717330
  C       -1.0273490     1.2315180     0.1753310
  C        0.3208110     1.3651600     0.1119950
  H        0.3192380    -1.2040060     1.5241050
  H        0.8310050    -2.2339400     0.1718380
  H       -1.5205060    -2.1086570    -0.4970330
  H       -2.7141090     0.0333350    -0.5285000
  H       -1.6282610     2.1139460     0.3806850
  H        0.8050420     2.3317560     0.2174670
units angstrom
no_reorient  #important for SAPT in psi4, default
symmetry c1  #important for SAPT in psi4, default
}

set PROPERTIES_ORIGIN ["COM"]
properties('MP2/aug-cc-pvtz', properties = ['dipole'])
--------------------------------------------------------------------------

    Molecular point group: c1
  Charge       = 0
  Multiplicity = 1
  Basis Set: AUG-CC-PVTZ
    Blend: AUG-CC-PVTZ
  Basis Set: (AUG-CC-PVTZ AUX)
    Blend: AUG-CC-PVTZ-JKFIT

    Orbital Energies [Eh]
    ---------------------

    Doubly Occupied:

       1A    -91.961586     2A    -11.268928     3A    -11.267879
       4A    -11.246555     5A    -11.241328     6A    -11.239702
       7A     -8.962087     8A     -6.643337     9A     -6.642456
      10A     -6.641572    11A     -1.138559    12A     -1.024589
      13A     -1.019885    14A     -0.862790    15A     -0.816314
      16A     -0.696037    17A     -0.677439    18A     -0.615778
      19A     -0.597364    20A     -0.582823    21A     -0.536549
      22A     -0.488623    23A     -0.461493    24A     -0.447168
      25A     -0.363510    26A     -0.296887

  @DF-RHF Final Energy:  -590.40200798930960

   => Energetics <=

    Nuclear Repulsion Energy =            271.5541219142288583
    One-Electron Energy =               -1348.4297855877482561
    Two-Electron Energy =                 486.4736556842096320
    Total Energy =                       -590.4020079893095954
  Basis Set: (AUG-CC-PVTZ AUX)
    Blend: AUG-CC-PVTZ-RI
    Molecular point group: c1

    Geometry (in Angstrom), charge = 0, multiplicity = 1:

       Center              X                  Y                   Z               Mass
    ------------   -----------------  -----------------  -----------------  -----------------
         S            1.357159979385     0.026221174873    -0.212097322843    31.972071174400
         C            0.344139779385    -1.338473825127     0.429472477157    12.000000000000
         C           -1.081241020615    -1.203661825127    -0.137992322843    12.000000000000
         C           -1.732350020615    -0.020607825127    -0.157039322843    12.000000000000
         C           -1.071985020615     1.225872174873     0.190024677157    12.000000000000
         C            0.276174979385     1.359514174873     0.126688677157    12.000000000000
         H            0.274601979385    -1.209651825127     1.538798677157     1.007825032230
         H            0.786368979385    -2.239585825127     0.186531677157     1.007825032230
         H           -1.565142020615    -2.114302825127    -0.482339322843     1.007825032230
         H           -2.758745020615     0.027689174873    -0.513806322843     1.007825032230
         H           -1.672897020615     2.108300174873     0.395378677157     1.007825032230
         H            0.760405979385     2.326110174873     0.232160677157     1.007825032230

  Basis Set: AUG-CC-PVTZ
    Blend: AUG-CC-PVTZ
  Basis Set: (AUG-CC-PVTZ AUX)
    Blend: AUG-CC-PVTZ-JKFIT
	 Reference Energy          =    -590.4020079893095954 [Eh]
	 Singles Energy            =      -0.0000000000000000 [Eh]
	 Same-Spin Energy          =      -0.2673208249784814 [Eh]
	 Opposite-Spin Energy      =      -0.8621555043908402 [Eh]
	 Correlation Energy        =      -1.1294763293693215 [Eh]
	 Total Energy              =    -591.5314843186789631 [Eh]

	 ================> DF-SCS-MP2 Energies <==================
	-----------------------------------------------------------
	 SCS Same-Spin Scale       =       0.3333333333333333 [-]
	 SCS Opposite-Spin Scale   =       1.2000000000000000 [-]
	 SCS Same-Spin Energy      =      -0.0891069416594938 [Eh]
	 SCS Opposite-Spin Energy  =      -1.0345866052690083 [Eh]
	 SCS Correlation Energy    =      -1.1236935469285021 [Eh]
	 SCS Total Energy          =    -591.5257015362381026 [Eh]
	-----------------------------------------------------------

  Dipole Moment: [D]
     X:    -0.8748      Y:    -0.3826      Z:     0.4888     Total:     1.0727

*** Psi4 exiting successfully. Buy a developer a beer!
