                               Psi4 1.3.2 release

  ==> Input File <==

--------------------------------------------------------------------------
#psi4
#
memory 32 gb

molecule  {
0 1
  S        1.4017960     0.0318670    -0.2267910
  C        0.3439980    -1.2907520     0.4304430
  C       -1.0366050    -1.1980160    -0.1526860
  C       -1.6877140    -0.0149620    -0.1717330
  C       -1.0273490     1.2315180     0.1753310
  C        0.3009462     1.5030610     0.1392280
  H        0.3192380    -1.2040060     1.5241050
  H        0.8310050    -2.2339400     0.1718380
  H       -1.5205060    -2.1086570    -0.4970330
  H       -2.7141090     0.0333350    -0.5285000
  H       -1.6282610     2.1139460     0.3806850
  H        0.8050420     2.3317560     0.2174670
units angstrom
no_reorient  #important for SAPT in psi4, default
symmetry c1  #important for SAPT in psi4, default
}

set PROPERTIES_ORIGIN ["COM"]
properties('MP2/aug-cc-pvtz', properties = ['dipole'])
--------------------------------------------------------------------------

    Molecular point group: c1
  Charge       = 0
  Multiplicity = 1
  Basis Set: AUG-CC-PVTZ
    Blend: AUG-CC-PVTZ
  Basis Set: (AUG-CC-PVTZ AUX)
    Blend: AUG-CC-PVTZ-JKFIT

    Orbital Energies [Eh]
    ---------------------

    Doubly Occupied:

       1A    -91.955820     2A    -11.268271     3A    -11.267226
       4A    -11.249745     5A    -11.248926     6A    -11.243564
       7A     -8.954755     8A     -6.635826     9A     -6.635062
      10A     -6.634188    11A     -1.135163    12A     -1.031702
      13A     -1.009517    14A     -0.850521    15A     -0.833678
      16A     -0.716604    17A     -0.681941    18A     -0.617922
      19A     -0.601760    20A     -0.583297    21A     -0.537294
      22A     -0.483788    23A     -0.451620    24A     -0.434489
      25A     -0.357777    26A     -0.305286

  @DF-RHF Final Energy:  -590.38760474903927

   => Energetics <=

    Nuclear Repulsion Energy =            269.7679979932726155
    One-Electron Energy =               -1344.8597264072393500
    Two-Electron Energy =                 484.7041236649275220
    Total Energy =                       -590.3876047490393830
  Basis Set: (AUG-CC-PVTZ AUX)
    Blend: AUG-CC-PVTZ-RI
    Molecular point group: c1

    Geometry (in Angstrom), charge = 0, multiplicity = 1:

       Center              X                  Y                   Z               Mass
    ------------   -----------------  -----------------  -----------------  -----------------
         S            1.365073863743     0.004187451522    -0.217349021879    31.972071174400
         C            0.307275863743    -1.318431548478     0.439884978121    12.000000000000
         C           -1.073327136257    -1.225695548478    -0.143244021879    12.000000000000
         C           -1.724436136257    -0.042641548478    -0.162291021879    12.000000000000
         C           -1.064071136257     1.203838451522     0.184772978121    12.000000000000
         C            0.264224063743     1.475381451522     0.148669978121    12.000000000000
         H            0.282515863743    -1.231685548478     1.533546978121     1.007825032230
         H            0.794282863743    -2.261619548478     0.181279978121     1.007825032230
         H           -1.557228136257    -2.136336548478    -0.487591021879     1.007825032230
         H           -2.750831136257     0.005655451522    -0.519058021879     1.007825032230
         H           -1.664983136257     2.086266451522     0.390126978121     1.007825032230
         H            0.768319863743     2.304076451522     0.226908978121     1.007825032230

  Basis Set: AUG-CC-PVTZ
    Blend: AUG-CC-PVTZ
  Basis Set: (AUG-CC-PVTZ AUX)
    Blend: AUG-CC-PVTZ-JKFIT
	 Reference Energy          =    -590.3876047490392693 [Eh]
	 Singles Energy            =      -0.0000000000000000 [Eh]
	 Same-Spin Energy          =      -0.2665953582900442 [Eh]
	 Opposite-Spin Energy      =      -0.8627652822521463 [Eh]
	 Correlation Energy        =      -1.1293606405421905 [Eh]
	 Total Energy              =    -591.5169653895815145 [Eh]

	 ================> DF-SCS-MP2 Energies <==================
	-----------------------------------------------------------
	 SCS Same-Spin Scale       =       0.3333333333333333 [-]
	 SCS Opposite-Spin Scale   =       1.2000000000000000 [-]
	 SCS Same-Spin Energy      =      -0.0888651194300147 [Eh]
	 SCS Opposite-Spin Energy  =      -1.0353183387025755 [Eh]
	 SCS Correlation Energy    =      -1.1241834581325902 [Eh]
	 SCS Total Energy          =    -591.5117882071718896 [Eh]
	-----------------------------------------------------------

  Dipole Moment: [D]
     X:    -1.1873      Y:    -0.2646      Z:     0.5258     Total:     1.3252

*** Psi4 exiting successfully. Buy a developer a beer!
