                               Psi4 1.3.2 release

  ==> Input File <==

--------------------------------------------------------------------------
#psi4
#
memory 32 gb

molecule  {
0 1
  S        1.4207944     0.0699488    -0.1073458
  C        0.3439980    -1.2907520     0.4304430
  C       -1.0366050    -1.1980160    -0.1526860
  C       -1.6877140    -0.0149620    -0.1717330
  C       -1.0273490     1.2315180     0.1753310
  C        0.3208110     1.3651600     0.1119950
  H        0.3192380    -1.2040060     1.5241050
  H        0.8310050    -2.2339400     0.1718380
  H       -1.5205060    -2.1086570    -0.4970330
  H       -2.7141090     0.0333350    -0.5285000
  H       -1.6282610     2.1139460     0.3806850
  H        0.8050420     2.3317560     0.2174670
units angstrom
no_reorient  #important for SAPT in psi4, default
symmetry c1  #important for SAPT in psi4, default
}

set PROPERTIES_ORIGIN ["COM"]
properties('MP2/aug-cc-pvtz', properties = ['dipole'])
--------------------------------------------------------------------------

    Molecular point group: c1
  Charge       = 0
  Multiplicity = 1
  Basis Set: AUG-CC-PVTZ
    Blend: AUG-CC-PVTZ
  Basis Set: (AUG-CC-PVTZ AUX)
    Blend: AUG-CC-PVTZ-JKFIT

    Orbital Energies [Eh]
    ---------------------

    Doubly Occupied:

       1A    -91.961699     2A    -11.267985     3A    -11.267948
       4A    -11.242553     5A    -11.240126     6A    -11.238321
       7A     -8.963124     8A     -6.644443     9A     -6.643409
      10A     -6.642563    11A     -1.143896    12A     -1.029531
      13A     -1.021090    14A     -0.862481    15A     -0.817643
      16A     -0.694710    17A     -0.676823    18A     -0.609675
      19A     -0.604825    20A     -0.583472    21A     -0.534795
      22A     -0.486650    23A     -0.463374    24A     -0.451954
      25A     -0.370883    26A     -0.291083

  @DF-RHF Final Energy:  -590.40416053184742

   => Energetics <=

    Nuclear Repulsion Energy =            272.6777135600148085
    One-Electron Energy =               -1350.6536321328376289
    Two-Electron Energy =                 487.5717580409753964
    Total Energy =                       -590.4041605318474240
  Basis Set: (AUG-CC-PVTZ AUX)
    Blend: AUG-CC-PVTZ-RI
    Molecular point group: c1

    Geometry (in Angstrom), charge = 0, multiplicity = 1:

       Center              X                  Y                   Z               Mass
    ------------   -----------------  -----------------  -----------------  -----------------
         S            1.375443369216     0.046730201793    -0.133530727628    31.972071174400
         C            0.298646969216    -1.313970598207     0.404258072372    12.000000000000
         C           -1.081956030784    -1.221234598207    -0.178870927628    12.000000000000
         C           -1.733065030784    -0.038180598207    -0.197917927628    12.000000000000
         C           -1.072700030784     1.208299401793     0.149146072372    12.000000000000
         C            0.275459969216     1.341941401793     0.085810072372    12.000000000000
         H            0.273886969216    -1.227224598207     1.497920072372     1.007825032230
         H            0.785653969216    -2.257158598207     0.145653072372     1.007825032230
         H           -1.565857030784    -2.131875598207    -0.523217927628     1.007825032230
         H           -2.759460030784     0.010116401793    -0.554684927628     1.007825032230
         H           -1.673612030784     2.090727401793     0.354500072372     1.007825032230
         H            0.759690969216     2.308537401793     0.191282072372     1.007825032230

  Basis Set: AUG-CC-PVTZ
    Blend: AUG-CC-PVTZ
  Basis Set: (AUG-CC-PVTZ AUX)
    Blend: AUG-CC-PVTZ-JKFIT
	 Reference Energy          =    -590.4041605318474240 [Eh]
	 Singles Energy            =      -0.0000000000000000 [Eh]
	 Same-Spin Energy          =      -0.2680482004893270 [Eh]
	 Opposite-Spin Energy      =      -0.8624040240312365 [Eh]
	 Correlation Energy        =      -1.1304522245205635 [Eh]
	 Total Energy              =    -591.5346127563680056 [Eh]

	 ================> DF-SCS-MP2 Energies <==================
	-----------------------------------------------------------
	 SCS Same-Spin Scale       =       0.3333333333333333 [-]
	 SCS Opposite-Spin Scale   =       1.2000000000000000 [-]
	 SCS Same-Spin Energy      =      -0.0893494001631090 [Eh]
	 SCS Opposite-Spin Energy  =      -1.0348848288374837 [Eh]
	 SCS Correlation Energy    =      -1.1242342290005927 [Eh]
	 SCS Total Energy          =    -591.5283947608480730 [Eh]
	-----------------------------------------------------------

  Dipole Moment: [D]
     X:    -0.7911      Y:    -0.3991      Z:     0.4796     Total:     1.0075

*** Psi4 exiting successfully. Buy a developer a beer!
