                               Psi4 1.4a3.dev225

  ==> Input File <==

--------------------------------------------------------------------------
#psi4
#
memory 32 gb

molecule  {
0 1
  S        1.4017960     0.0318670    -0.2267910
  C        0.3439980    -1.2907520     0.4304430
  C       -1.0366050    -1.1980160    -0.1526860
  C       -1.6877140    -0.0149620    -0.1717330
  C       -1.0273490     1.2315180     0.1753310
  C        0.3208110     1.3651600     0.1119950
  H        0.3192380    -1.2040060     1.5241050
  H        0.8310050    -2.2339400     0.1718380
  H       -1.5205060    -2.1086570    -0.4970330
  H       -2.6952363     0.0324469    -0.5219400
  H       -1.6282610     2.1139460     0.3806850
  H        0.8050420     2.3317560     0.2174670
units angstrom
no_reorient  #important for SAPT in psi4, default
symmetry c1  #important for SAPT in psi4, default
}

set PROPERTIES_ORIGIN ["COM"]
properties('MP2/aug-cc-pvtz', properties = ['dipole'])
--------------------------------------------------------------------------

    Molecular point group: c1
  Charge       = 0
  Multiplicity = 1
  Basis Set: AUG-CC-PVTZ
    Blend: AUG-CC-PVTZ
  Basis Set: (AUG-CC-PVTZ AUX)
    Blend: AUG-CC-PVTZ-JKFIT

    Orbital Energies [Eh]
    ---------------------

    Doubly Occupied:

       1A    -91.961964     2A    -11.268556     3A    -11.267710
       4A    -11.243327     5A    -11.240778     6A    -11.237186
       7A     -8.962467     8A     -6.643706     9A     -6.642761
      10A     -6.641900    11A     -1.141751    12A     -1.026334
      13A     -1.019580    14A     -0.860079    15A     -0.817600
      16A     -0.696811    17A     -0.680173    18A     -0.609224
      19A     -0.599694    20A     -0.584173    21A     -0.536760
      22A     -0.483683    23A     -0.463260    24A     -0.450730
      25A     -0.363827    26A     -0.297612

  @DF-RHF Final Energy:  -590.40559079738796

   => Energetics <=

    Nuclear Repulsion Energy =            272.3051421169562332
    One-Electron Energy =               -1349.9381785708380903
    Two-Electron Energy =                 487.2274456564939555
    Total Energy =                       -590.4055907973879584
  Basis Set: (AUG-CC-PVTZ AUX)
    Blend: AUG-CC-PVTZ-RI
    Molecular point group: c1

    Geometry (in Angstrom), charge = 0, multiplicity = 1:

       Center              X                  Y                   Z               Mass
    ------------   -----------------  -----------------  -----------------  -----------------
         S            1.362447863443     0.021079142811    -0.214082465416    31.972071174400
         C            0.304649863443    -1.301539857189     0.443151534584    12.000000000000
         C           -1.075953136557    -1.208803857189    -0.139977465416    12.000000000000
         C           -1.727062136557    -0.025749857189    -0.159024465416    12.000000000000
         C           -1.066697136557     1.220730142811     0.188039534584    12.000000000000
         C            0.281462863443     1.354372142811     0.124703534584    12.000000000000
         H            0.279889863443    -1.214793857189     1.536813534584     1.007825032230
         H            0.791656863443    -2.244727857189     0.184546534584     1.007825032230
         H           -1.559854136557    -2.119444857189    -0.484324465416     1.007825032230
         H           -2.734584436557     0.021659042811    -0.509231465416     1.007825032230
         H           -1.667609136557     2.103158142811     0.393393534584     1.007825032230
         H            0.765693863443     2.320968142811     0.230175534584     1.007825032230

  Basis Set: AUG-CC-PVTZ
    Blend: AUG-CC-PVTZ
  Basis Set: (AUG-CC-PVTZ AUX)
    Blend: AUG-CC-PVTZ-JKFIT
	 Reference Energy          =    -590.4055907973879584 [Eh]
	 Singles Energy            =      -0.0000000000000000 [Eh]
	 Same-Spin Energy          =      -0.2677737037103356 [Eh]
	 Opposite-Spin Energy      =      -0.8624857899259397 [Eh]
	 Correlation Energy        =      -1.1302594936362753 [Eh]
	 Total Energy              =    -591.5358502910241896 [Eh]

	 ================> DF-SCS-MP2 Energies <==================
	-----------------------------------------------------------
	 SCS Same-Spin Scale       =       0.3333333333333333 [-]
	 SCS Opposite-Spin Scale   =       1.2000000000000000 [-]
	 SCS Same-Spin Energy      =      -0.0892579012367785 [Eh]
	 SCS Opposite-Spin Energy  =      -1.0349829479111277 [Eh]
	 SCS Correlation Energy    =      -1.1242408491479061 [Eh]
	 SCS Total Energy          =    -591.5298316465358539 [Eh]
	-----------------------------------------------------------

  Dipole Moment: [D]
     X:    -0.8673      Y:    -0.3582      Z:     0.4939     Total:     1.0604

*** Psi4 exiting successfully. Buy a developer a beer!
