                               Psi4 1.3.2 release

  ==> Input File <==

--------------------------------------------------------------------------
#psi4
#
memory 32 gb

molecule  {
0 1
  S        1.4017960     0.0318670    -0.2267910
  C        0.3439980    -1.2907520     0.4304430
  C       -0.9693078    -1.2155879    -0.2936304
  C       -1.6877140    -0.0149620    -0.1717330
  C       -1.0273490     1.2315180     0.1753310
  C        0.3208110     1.3651600     0.1119950
  H        0.3192380    -1.2040060     1.5241050
  H        0.8310050    -2.2339400     0.1718380
  H       -1.5205060    -2.1086570    -0.4970330
  H       -2.7141090     0.0333350    -0.5285000
  H       -1.6282610     2.1139460     0.3806850
  H        0.8050420     2.3317560     0.2174670
units angstrom
no_reorient  #important for SAPT in psi4, default
symmetry c1  #important for SAPT in psi4, default
}

set PROPERTIES_ORIGIN ["COM"]
properties('MP2/aug-cc-pvtz', properties = ['dipole'])
--------------------------------------------------------------------------

    Molecular point group: c1
  Charge       = 0
  Multiplicity = 1
  Basis Set: AUG-CC-PVTZ
    Blend: AUG-CC-PVTZ
  Basis Set: (AUG-CC-PVTZ AUX)
    Blend: AUG-CC-PVTZ-JKFIT

    Orbital Energies [Eh]
    ---------------------

    Doubly Occupied:

       1A    -91.963193     2A    -11.270768     3A    -11.268368
       4A    -11.250222     5A    -11.246469     6A    -11.241798
       7A     -8.963614     8A     -6.644801     9A     -6.643906
      10A     -6.643071    11A     -1.139504    12A     -1.026853
      13A     -1.013204    14A     -0.855402    15A     -0.819725
      16A     -0.695382    17A     -0.681439    18A     -0.603580
      19A     -0.602320    20A     -0.581903    21A     -0.534685
      22A     -0.483721    23A     -0.460653    24A     -0.450924
      25A     -0.357191    26A     -0.296934

  @DF-RHF Final Energy:  -590.39210009165913

   => Energetics <=

    Nuclear Repulsion Energy =            271.8789574780015528
    One-Electron Energy =               -1349.0628578420742087
    Two-Electron Energy =                 486.7918002724134112
    Total Energy =                       -590.3921000916591311
  Basis Set: (AUG-CC-PVTZ AUX)
    Blend: AUG-CC-PVTZ-RI
    Molecular point group: c1

    Geometry (in Angstrom), charge = 0, multiplicity = 1:

       Center              X                  Y                   Z               Mass
    ------------   -----------------  -----------------  -----------------  -----------------
         S            1.354403036944     0.023221255103    -0.196759867123    31.972071174400
         C            0.296605036944    -1.299397744897     0.460474132877    12.000000000000
         C           -1.016700763056    -1.224233644897    -0.263599267123    12.000000000000
         C           -1.735106963056    -0.023607744897    -0.141701867123    12.000000000000
         C           -1.074741963056     1.222872255103     0.205362132877    12.000000000000
         C            0.273418036944     1.356514255103     0.142026132877    12.000000000000
         H            0.271845036944    -1.212651744897     1.554136132877     1.007825032230
         H            0.783612036944    -2.242585744897     0.201869132877     1.007825032230
         H           -1.567898963056    -2.117302744897    -0.467001867123     1.007825032230
         H           -2.761501963056     0.024689255103    -0.498468867123     1.007825032230
         H           -1.675653963056     2.105300255103     0.410716132877     1.007825032230
         H            0.757649036944     2.323110255103     0.247498132877     1.007825032230

  Basis Set: AUG-CC-PVTZ
    Blend: AUG-CC-PVTZ
  Basis Set: (AUG-CC-PVTZ AUX)
    Blend: AUG-CC-PVTZ-JKFIT
	 Reference Energy          =    -590.3921000916591311 [Eh]
	 Singles Energy            =      -0.0000000000000000 [Eh]
	 Same-Spin Energy          =      -0.2697110407464677 [Eh]
	 Opposite-Spin Energy      =      -0.8659553550704008 [Eh]
	 Correlation Energy        =      -1.1356663958168685 [Eh]
	 Total Energy              =    -591.5277664874760148 [Eh]

	 ================> DF-SCS-MP2 Energies <==================
	-----------------------------------------------------------
	 SCS Same-Spin Scale       =       0.3333333333333333 [-]
	 SCS Opposite-Spin Scale   =       1.2000000000000000 [-]
	 SCS Same-Spin Energy      =      -0.0899036802488226 [Eh]
	 SCS Opposite-Spin Energy  =      -1.0391464260844809 [Eh]
	 SCS Correlation Energy    =      -1.1290501063333034 [Eh]
	 SCS Total Energy          =    -591.5211501979924833 [Eh]
	-----------------------------------------------------------

  Dipole Moment: [D]
     X:    -0.8542      Y:    -0.3005      Z:     0.6478     Total:     1.1134

*** Psi4 exiting successfully. Buy a developer a beer!
