                               Psi4 1.4a3.dev225

  ==> Input File <==

--------------------------------------------------------------------------
#psi4
#
memory 32 gb

molecule  {
0 1
  S        1.4017960     0.0318670    -0.2267910
  C        0.3439980    -1.2907520     0.4304430
  C       -1.0366050    -1.1980160    -0.1526860
  C       -1.6877140    -0.0149620    -0.1717330
  C       -1.0273490     1.2315180     0.1753310
  C        0.3208110     1.3651600     0.1119950
  H        0.3192380    -1.2040060     1.5241050
  H        0.8310050    -2.2339400     0.1718380
  H       -1.5205060    -2.1086570    -0.4970330
  H       -2.6669273     0.0311149    -0.5121000
  H       -1.6282610     2.1139460     0.3806850
  H        0.8050420     2.3317560     0.2174670
units angstrom
no_reorient  #important for SAPT in psi4, default
symmetry c1  #important for SAPT in psi4, default
}

set PROPERTIES_ORIGIN ["COM"]
properties('MP2/aug-cc-pvtz', properties = ['dipole'])
--------------------------------------------------------------------------

    Molecular point group: c1
  Charge       = 0
  Multiplicity = 1
  Basis Set: AUG-CC-PVTZ
    Blend: AUG-CC-PVTZ
  Basis Set: (AUG-CC-PVTZ AUX)
    Blend: AUG-CC-PVTZ-JKFIT

    Orbital Energies [Eh]
    ---------------------

    Doubly Occupied:

       1A    -91.961848     2A    -11.268368     3A    -11.267523
       4A    -11.243141     5A    -11.240473     6A    -11.233678
       7A     -8.962350     8A     -6.643589     9A     -6.642644
      10A     -6.641784    11A     -1.141868    12A     -1.026253
      13A     -1.020564    14A     -0.860815    15A     -0.818464
      16A     -0.700918    17A     -0.680109    18A     -0.609657
      19A     -0.599518    20A     -0.584310    21A     -0.539383
      22A     -0.483539    23A     -0.463155    24A     -0.450820
      25A     -0.363724    26A     -0.297483

  @DF-RHF Final Energy:  -590.40466051890269

   => Energetics <=

    Nuclear Repulsion Energy =            272.4604881478784364
    One-Electron Energy =               -1350.2383448233686067
    Two-Electron Energy =                 487.3731961565874258
    Total Energy =                       -590.4046605189025740
  Basis Set: (AUG-CC-PVTZ AUX)
    Blend: AUG-CC-PVTZ-RI
    Molecular point group: c1

    Geometry (in Angstrom), charge = 0, multiplicity = 1:

       Center              X                  Y                   Z               Mass
    ------------   -----------------  -----------------  -----------------  -----------------
         S            1.362156792195     0.021092838346    -0.214183639639    31.972071174400
         C            0.304358792195    -1.301526161654     0.443050360361    12.000000000000
         C           -1.076244207805    -1.208790161654    -0.140078639639    12.000000000000
         C           -1.727353207805    -0.025736161654    -0.159125639639    12.000000000000
         C           -1.066988207805     1.220743838346     0.187938360361    12.000000000000
         C            0.281171792195     1.354385838346     0.124602360361    12.000000000000
         H            0.279598792195    -1.214780161654     1.536712360361     1.007825032230
         H            0.791365792195    -2.244714161654     0.184445360361     1.007825032230
         H           -1.560145207805    -2.119431161654    -0.484425639639     1.007825032230
         H           -2.706566507805     0.020340738346    -0.499492639639     1.007825032230
         H           -1.667900207805     2.103171838346     0.393292360361     1.007825032230
         H            0.765402792195     2.320981838346     0.230074360361     1.007825032230

  Basis Set: AUG-CC-PVTZ
    Blend: AUG-CC-PVTZ
  Basis Set: (AUG-CC-PVTZ AUX)
    Blend: AUG-CC-PVTZ-JKFIT
	 Reference Energy          =    -590.4046605189026877 [Eh]
	 Singles Energy            =      -0.0000000000000000 [Eh]
	 Same-Spin Energy          =      -0.2677346817213400 [Eh]
	 Opposite-Spin Energy      =      -0.8623461699371577 [Eh]
	 Correlation Energy        =      -1.1300808516584977 [Eh]
	 Total Energy              =    -591.5347413705611643 [Eh]

	 ================> DF-SCS-MP2 Energies <==================
	-----------------------------------------------------------
	 SCS Same-Spin Scale       =       0.3333333333333333 [-]
	 SCS Opposite-Spin Scale   =       1.2000000000000000 [-]
	 SCS Same-Spin Energy      =      -0.0892448939071133 [Eh]
	 SCS Opposite-Spin Energy  =      -1.0348154039245892 [Eh]
	 SCS Correlation Energy    =      -1.1240602978317025 [Eh]
	 SCS Total Energy          =    -591.5287208167343351 [Eh]
	-----------------------------------------------------------

  Dipole Moment: [D]
     X:    -0.8778      Y:    -0.3597      Z:     0.4918     Total:     1.0685

*** Psi4 exiting successfully. Buy a developer a beer!
