                               Psi4 1.4a3.dev225

  ==> Input File <==

--------------------------------------------------------------------------
#psi4
#
memory 32 gb

molecule  {
0 1
  S        1.4017960     0.0318670    -0.2267910
  C        0.3439980    -1.2907520     0.4304430
  C       -1.0366050    -1.1980160    -0.1526860
  C       -1.6877140    -0.0149620    -0.1717330
  C       -1.0273490     1.2315180     0.1753310
  C        0.3208110     1.3651600     0.1119950
  H        0.3192380    -1.2040060     1.5241050
  H        0.8310050    -2.2339400     0.1718380
  H       -1.5205060    -2.1086570    -0.4970330
  H       -2.7141090     0.0333350    -0.5285000
  H       -1.6172064     2.0977126     0.3769072
  H        0.8050420     2.3317560     0.2174670
units angstrom
no_reorient  #important for SAPT in psi4, default
symmetry c1  #important for SAPT in psi4, default
}

set PROPERTIES_ORIGIN ["COM"]
properties('MP2/aug-cc-pvtz', properties = ['dipole'])
--------------------------------------------------------------------------

    Molecular point group: c1
  Charge       = 0
  Multiplicity = 1
  Basis Set: AUG-CC-PVTZ
    Blend: AUG-CC-PVTZ
  Basis Set: (AUG-CC-PVTZ AUX)
    Blend: AUG-CC-PVTZ-JKFIT

    Orbital Energies [Eh]
    ---------------------

    Doubly Occupied:

       1A    -91.961938     2A    -11.268594     3A    -11.267763
       4A    -11.243363     5A    -11.239516     6A    -11.238401
       7A     -8.962443     8A     -6.643682     9A     -6.642738
      10A     -6.641878    11A     -1.141762    12A     -1.026788
      13A     -1.019107    14A     -0.860453    15A     -0.817264
      16A     -0.694320    17A     -0.682388    18A     -0.610344
      19A     -0.600136    20A     -0.584179    21A     -0.534779
      22A     -0.484295    23A     -0.463451    24A     -0.450675
      25A     -0.363806    26A     -0.297624

  @DF-RHF Final Energy:  -590.40558910422180

   => Energetics <=

    Nuclear Repulsion Energy =            272.3058681615777914
    One-Electron Energy =               -1349.9395436847994461
    Two-Electron Energy =                 487.2280864189997942
    Total Energy =                       -590.4055891042219173
  Basis Set: (AUG-CC-PVTZ AUX)
    Blend: AUG-CC-PVTZ-RI
    Molecular point group: c1

    Geometry (in Angstrom), charge = 0, multiplicity = 1:

       Center              X                  Y                   Z               Mass
    ------------   -----------------  -----------------  -----------------  -----------------
         S            1.362528248625     0.021236922161    -0.213976172846    31.972071174400
         C            0.304730248625    -1.301382077839     0.443257827154    12.000000000000
         C           -1.075872751375    -1.208646077839    -0.139871172846    12.000000000000
         C           -1.726981751375    -0.025592077839    -0.158918172846    12.000000000000
         C           -1.066616751375     1.220887922161     0.188145827154    12.000000000000
         C            0.281543248625     1.354529922161     0.124809827154    12.000000000000
         H            0.279970248625    -1.214636077839     1.536919827154     1.007825032230
         H            0.791737248625    -2.244570077839     0.184652827154     1.007825032230
         H           -1.559773751375    -2.119287077839    -0.484218172846     1.007825032230
         H           -2.753376751375     0.022704922161    -0.515685172846     1.007825032230
         H           -1.656474151375     2.087082522161     0.389722027154     1.007825032230
         H            0.765774248625     2.321125922161     0.230281827154     1.007825032230

  Basis Set: AUG-CC-PVTZ
    Blend: AUG-CC-PVTZ
  Basis Set: (AUG-CC-PVTZ AUX)
    Blend: AUG-CC-PVTZ-JKFIT
	 Reference Energy          =    -590.4055891042218036 [Eh]
	 Singles Energy            =      -0.0000000000000000 [Eh]
	 Same-Spin Energy          =      -0.2677738799422877 [Eh]
	 Opposite-Spin Energy      =      -0.8624903328711641 [Eh]
	 Correlation Energy        =      -1.1302642128134517 [Eh]
	 Total Energy              =    -591.5358533170352757 [Eh]

	 ================> DF-SCS-MP2 Energies <==================
	-----------------------------------------------------------
	 SCS Same-Spin Scale       =       0.3333333333333333 [-]
	 SCS Opposite-Spin Scale   =       1.2000000000000000 [-]
	 SCS Same-Spin Energy      =      -0.0892579599807626 [Eh]
	 SCS Opposite-Spin Energy  =      -1.0349883994453968 [Eh]
	 SCS Correlation Energy    =      -1.1242463594261594 [Eh]
	 SCS Total Energy          =    -591.5298354636479417 [Eh]
	-----------------------------------------------------------

  Dipole Moment: [D]
     X:    -0.8622      Y:    -0.3505      Z:     0.4966     Total:     1.0549

*** Psi4 exiting successfully. Buy a developer a beer!
