                               Psi4 1.3.2 release

  ==> Input File <==

--------------------------------------------------------------------------
#psi4
#
memory 32 gb

molecule  {
0 1
  S        1.4947920     0.1104436    -0.2172926
  C        0.3439980    -1.2907520     0.4304430
  C       -1.0366050    -1.1980160    -0.1526860
  C       -1.6877140    -0.0149620    -0.1717330
  C       -1.0273490     1.2315180     0.1753310
  C        0.3208110     1.3651600     0.1119950
  H        0.3192380    -1.2040060     1.5241050
  H        0.8310050    -2.2339400     0.1718380
  H       -1.5205060    -2.1086570    -0.4970330
  H       -2.7141090     0.0333350    -0.5285000
  H       -1.6282610     2.1139460     0.3806850
  H        0.8050420     2.3317560     0.2174670
units angstrom
no_reorient  #important for SAPT in psi4, default
symmetry c1  #important for SAPT in psi4, default
}

set PROPERTIES_ORIGIN ["COM"]
properties('MP2/aug-cc-pvtz', properties = ['dipole'])
--------------------------------------------------------------------------

    Molecular point group: c1
  Charge       = 0
  Multiplicity = 1
  Basis Set: AUG-CC-PVTZ
    Blend: AUG-CC-PVTZ
  Basis Set: (AUG-CC-PVTZ AUX)
    Blend: AUG-CC-PVTZ-JKFIT

    Orbital Energies [Eh]
    ---------------------

    Doubly Occupied:

       1A    -91.966642     2A    -11.276000     3A    -11.270101
       4A    -11.243412     5A    -11.241039     6A    -11.240139
       7A     -8.965580     8A     -6.646708     9A     -6.645647
      10A     -6.644898    11A     -1.133934    12A     -1.027020
      13A     -1.008234    14A     -0.865317    15A     -0.812312
      16A     -0.692175    17A     -0.680165    18A     -0.608657
      19A     -0.598054    20A     -0.576200    21A     -0.530220
      22A     -0.475794    23A     -0.463849    24A     -0.451275
      25A     -0.368228    26A     -0.296023

  @DF-RHF Final Energy:  -590.39956271036874

   => Energetics <=

    Nuclear Repulsion Energy =            268.7219180371114930
    One-Electron Energy =               -1342.7877152678722723
    Two-Electron Energy =                 483.6662345203920950
    Total Energy =                       -590.3995627103687411
  Basis Set: (AUG-CC-PVTZ AUX)
    Blend: AUG-CC-PVTZ-RI
    Molecular point group: c1

    Geometry (in Angstrom), charge = 0, multiplicity = 1:

       Center              X                  Y                   Z               Mass
    ------------   -----------------  -----------------  -----------------  -----------------
         S            1.425304260841     0.074016314237    -0.207614826022    31.972071174400
         C            0.274510260841    -1.327179285763     0.440120773978    12.000000000000
         C           -1.106092739159    -1.234443285763    -0.143008226022    12.000000000000
         C           -1.757201739159    -0.051389285763    -0.162055226022    12.000000000000
         C           -1.096836739159     1.195090714237     0.185008773978    12.000000000000
         C            0.251323260841     1.328732714237     0.121672773978    12.000000000000
         H            0.249750260841    -1.240433285763     1.533782773978     1.007825032230
         H            0.761517260841    -2.270367285763     0.181515773978     1.007825032230
         H           -1.589993739159    -2.145084285763    -0.487355226022     1.007825032230
         H           -2.783596739159    -0.003092285763    -0.518822226022     1.007825032230
         H           -1.697748739159     2.077518714237     0.390362773978     1.007825032230
         H            0.735554260841     2.295328714237     0.227144773978     1.007825032230

  Basis Set: AUG-CC-PVTZ
    Blend: AUG-CC-PVTZ
  Basis Set: (AUG-CC-PVTZ AUX)
    Blend: AUG-CC-PVTZ-JKFIT
	 Reference Energy          =    -590.3995627103687411 [Eh]
	 Singles Energy            =      -0.0000000000000000 [Eh]
	 Same-Spin Energy          =      -0.2672612861356717 [Eh]
	 Opposite-Spin Energy      =      -0.8634031454309934 [Eh]
	 Correlation Energy        =      -1.1306644315666652 [Eh]
	 Total Energy              =    -591.5302271419353701 [Eh]

	 ================> DF-SCS-MP2 Energies <==================
	-----------------------------------------------------------
	 SCS Same-Spin Scale       =       0.3333333333333333 [-]
	 SCS Opposite-Spin Scale   =       1.2000000000000000 [-]
	 SCS Same-Spin Energy      =      -0.0890870953785572 [Eh]
	 SCS Opposite-Spin Energy  =      -1.0360837745171920 [Eh]
	 SCS Correlation Energy    =      -1.1251708698957492 [Eh]
	 SCS Total Energy          =    -591.5247335802645239 [Eh]
	-----------------------------------------------------------

  Dipole Moment: [D]
     X:    -0.8714      Y:    -0.4018      Z:     0.4803     Total:     1.0731

*** Psi4 exiting successfully. Buy a developer a beer!
