                               Psi4 1.3.2 release

  ==> Input File <==

--------------------------------------------------------------------------
#psi4
#
memory 32 gb

molecule  {
0 1
  S        1.4017960     0.0318670    -0.2267910
  C        0.3439980    -1.2907520     0.4304430
  C       -1.0366050    -1.1980160    -0.1526860
  C       -1.5959238    -0.0573799    -0.1792289
  C       -1.0273490     1.2315180     0.1753310
  C        0.3208110     1.3651600     0.1119950
  H        0.3192380    -1.2040060     1.5241050
  H        0.8310050    -2.2339400     0.1718380
  H       -1.5205060    -2.1086570    -0.4970330
  H       -2.7141090     0.0333350    -0.5285000
  H       -1.6282610     2.1139460     0.3806850
  H        0.8050420     2.3317560     0.2174670
units angstrom
no_reorient  #important for SAPT in psi4, default
symmetry c1  #important for SAPT in psi4, default
}

set PROPERTIES_ORIGIN ["COM"]
properties('MP2/aug-cc-pvtz', properties = ['dipole'])
--------------------------------------------------------------------------

    Molecular point group: c1
  Charge       = 0
  Multiplicity = 1
  Basis Set: AUG-CC-PVTZ
    Blend: AUG-CC-PVTZ
  Basis Set: (AUG-CC-PVTZ AUX)
    Blend: AUG-CC-PVTZ-JKFIT

    Orbital Energies [Eh]
    ---------------------

    Doubly Occupied:

       1A    -91.961624     2A    -11.268735     3A    -11.265556
       4A    -11.240984     5A    -11.235767     6A    -11.229593
       7A     -8.962192     8A     -6.643439     9A     -6.642484
      10A     -6.641627    11A     -1.150814    12A     -1.035429
      13A     -1.018304    14A     -0.863421    15A     -0.812744
      16A     -0.689498    17A     -0.677199    18A     -0.612178
      19A     -0.605121    20A     -0.589727    21A     -0.511563
      22A     -0.486139    23A     -0.463369    24A     -0.452242
      25A     -0.370577    26A     -0.303674

  @DF-RHF Final Energy:  -590.39455293690992

   => Energetics <=

    Nuclear Repulsion Energy =            273.9130663318882739
    One-Electron Energy =               -1353.1472344679505113
    Two-Electron Energy =                 488.8396151991522629
    Total Energy =                       -590.3945529369099177
  Basis Set: (AUG-CC-PVTZ AUX)
    Blend: AUG-CC-PVTZ-RI
    Molecular point group: c1

    Geometry (in Angstrom), charge = 0, multiplicity = 1:

       Center              X                  Y                   Z               Mass
    ------------   -----------------  -----------------  -----------------  -----------------
         S            1.351404476094     0.026263032055    -0.213097328747    31.972071174400
         C            0.293606476094    -1.296355967945     0.444136671253    12.000000000000
         C           -1.086996523906    -1.203619967945    -0.138992328747    12.000000000000
         C           -1.646315323906    -0.062983867945    -0.165535228747    12.000000000000
         C           -1.077740523906     1.225914032055     0.189024671253    12.000000000000
         C            0.270419476094     1.359556032055     0.125688671253    12.000000000000
         H            0.268846476094    -1.209609967945     1.537798671253     1.007825032230
         H            0.780613476094    -2.239543967945     0.185531671253     1.007825032230
         H           -1.570897523906    -2.114260967945    -0.483339328747     1.007825032230
         H           -2.764500523906     0.027731032055    -0.514806328747     1.007825032230
         H           -1.678652523906     2.108342032055     0.394378671253     1.007825032230
         H            0.754650476094     2.326152032055     0.231160671253     1.007825032230

  Basis Set: AUG-CC-PVTZ
    Blend: AUG-CC-PVTZ
  Basis Set: (AUG-CC-PVTZ AUX)
    Blend: AUG-CC-PVTZ-JKFIT
	 Reference Energy          =    -590.3945529369099177 [Eh]
	 Singles Energy            =      -0.0000000000000000 [Eh]
	 Same-Spin Energy          =      -0.2672793043675087 [Eh]
	 Opposite-Spin Energy      =      -0.8613427770051647 [Eh]
	 Correlation Energy        =      -1.1286220813726735 [Eh]
	 Total Energy              =    -591.5231750182825863 [Eh]

	 ================> DF-SCS-MP2 Energies <==================
	-----------------------------------------------------------
	 SCS Same-Spin Scale       =       0.3333333333333333 [-]
	 SCS Opposite-Spin Scale   =       1.2000000000000000 [-]
	 SCS Same-Spin Energy      =      -0.0890931014558362 [Eh]
	 SCS Opposite-Spin Energy  =      -1.0336113324061975 [Eh]
	 SCS Correlation Energy    =      -1.1227044338620338 [Eh]
	 SCS Total Energy          =    -591.5172573707719721 [Eh]
	-----------------------------------------------------------

  Dipole Moment: [D]
     X:    -0.8482      Y:    -0.3446      Z:     0.5304     Total:     1.0581

*** Psi4 exiting successfully. Buy a developer a beer!
