                               Psi4 1.3.2 release

  ==> Input File <==

--------------------------------------------------------------------------
#psi4
#
memory 32 gb

molecule  {
0 1
  S        1.4017960     0.0318670    -0.2267910
  C        0.3439980    -1.2907520     0.4304430
  C       -1.0366050    -1.1980160    -0.1526860
  C       -1.6877140    -0.0149620    -0.1717330
  C       -1.0070670     1.0925365     0.1546980
  C        0.3208110     1.3651600     0.1119950
  H        0.3192380    -1.2040060     1.5241050
  H        0.8310050    -2.2339400     0.1718380
  H       -1.5205060    -2.1086570    -0.4970330
  H       -2.7141090     0.0333350    -0.5285000
  H       -1.6282610     2.1139460     0.3806850
  H        0.8050420     2.3317560     0.2174670
units angstrom
no_reorient  #important for SAPT in psi4, default
symmetry c1  #important for SAPT in psi4, default
}

set PROPERTIES_ORIGIN ["COM"]
properties('MP2/aug-cc-pvtz', properties = ['dipole'])
--------------------------------------------------------------------------

    Molecular point group: c1
  Charge       = 0
  Multiplicity = 1
  Basis Set: AUG-CC-PVTZ
    Blend: AUG-CC-PVTZ
  Basis Set: (AUG-CC-PVTZ AUX)
    Blend: AUG-CC-PVTZ-JKFIT

    Orbital Energies [Eh]
    ---------------------

    Doubly Occupied:

       1A    -91.959072     2A    -11.270319     3A    -11.268676
       4A    -11.247151     5A    -11.244364     6A    -11.232161
       7A     -8.959847     8A     -6.641029     9A     -6.640214
      10A     -6.639313    11A     -1.156926    12A     -1.031785
      13A     -1.024427    14A     -0.852417    15A     -0.831194
      16A     -0.704679    17A     -0.669689    18A     -0.622442
      19A     -0.592281    20A     -0.576040    21A     -0.547289
      22A     -0.482871    23A     -0.467721    24A     -0.438056
      25A     -0.367602    26A     -0.290646

  @DF-RHF Final Energy:  -590.37824978202786

   => Energetics <=

    Nuclear Repulsion Energy =            274.4348912489476220
    One-Electron Energy =               -1354.1098599340757573
    Two-Electron Energy =                 489.2967189031002135
    Total Energy =                       -590.3782497820278650
  Basis Set: (AUG-CC-PVTZ AUX)
    Blend: AUG-CC-PVTZ-RI
    Molecular point group: c1

    Geometry (in Angstrom), charge = 0, multiplicity = 1:

       Center              X                  Y                   Z               Mass
    ------------   -----------------  -----------------  -----------------  -----------------
         S            1.360158883025     0.038084851778    -0.211489016423    31.972071174400
         C            0.302360883025    -1.284534148222     0.445744983577    12.000000000000
         C           -1.078242116975    -1.191798148222    -0.137384016423    12.000000000000
         C           -1.729351116975    -0.008744148222    -0.156431016423    12.000000000000
         C           -1.048704116975     1.098754351778     0.169999983577    12.000000000000
         C            0.279173883025     1.371377851778     0.127296983577    12.000000000000
         H            0.277600883025    -1.197788148222     1.539406983577     1.007825032230
         H            0.789367883025    -2.227722148222     0.187139983577     1.007825032230
         H           -1.562143116975    -2.102439148222    -0.481731016423     1.007825032230
         H           -2.755746116975     0.039552851778    -0.513198016423     1.007825032230
         H           -1.669898116975     2.120163851778     0.395986983577     1.007825032230
         H            0.763404883025     2.337973851778     0.232768983577     1.007825032230

  Basis Set: AUG-CC-PVTZ
    Blend: AUG-CC-PVTZ
  Basis Set: (AUG-CC-PVTZ AUX)
    Blend: AUG-CC-PVTZ-JKFIT
	 Reference Energy          =    -590.3782497820278650 [Eh]
	 Singles Energy            =      -0.0000000000000000 [Eh]
	 Same-Spin Energy          =      -0.2708357145808263 [Eh]
	 Opposite-Spin Energy      =      -0.8658529511256634 [Eh]
	 Correlation Energy        =      -1.1366886657064896 [Eh]
	 Total Energy              =    -591.5149384477343801 [Eh]

	 ================> DF-SCS-MP2 Energies <==================
	-----------------------------------------------------------
	 SCS Same-Spin Scale       =       0.3333333333333333 [-]
	 SCS Opposite-Spin Scale   =       1.2000000000000000 [-]
	 SCS Same-Spin Energy      =      -0.0902785715269421 [Eh]
	 SCS Opposite-Spin Energy  =      -1.0390235413507960 [Eh]
	 SCS Correlation Energy    =      -1.1293021128777381 [Eh]
	 SCS Total Energy          =    -591.5075518949056459 [Eh]
	-----------------------------------------------------------

  Dipole Moment: [D]
     X:    -0.8580      Y:    -0.3872      Z:     0.4760     Total:     1.0548

*** Psi4 exiting successfully. Buy a developer a beer!
