                               Psi4 1.3.2 release

  ==> Input File <==

--------------------------------------------------------------------------
#psi4
#
memory 32 gb

molecule  {
0 1
  S        1.4017960     0.0318670    -0.2267910
  C        0.3429601    -1.3425190     0.4223122
  C       -1.0366050    -1.1980160    -0.1526860
  C       -1.6877140    -0.0149620    -0.1717330
  C       -1.0273490     1.2315180     0.1753310
  C        0.3208110     1.3651600     0.1119950
  H        0.3192380    -1.2040060     1.5241050
  H        0.8310050    -2.2339400     0.1718380
  H       -1.5205060    -2.1086570    -0.4970330
  H       -2.7141090     0.0333350    -0.5285000
  H       -1.6282610     2.1139460     0.3806850
  H        0.8050420     2.3317560     0.2174670
units angstrom
no_reorient  #important for SAPT in psi4, default
symmetry c1  #important for SAPT in psi4, default
}

set PROPERTIES_ORIGIN ["COM"]
properties('MP2/aug-cc-pvtz', properties = ['dipole'])
--------------------------------------------------------------------------

    Molecular point group: c1
  Charge       = 0
  Multiplicity = 1
  Basis Set: AUG-CC-PVTZ
    Blend: AUG-CC-PVTZ
  Basis Set: (AUG-CC-PVTZ AUX)
    Blend: AUG-CC-PVTZ-JKFIT

    Orbital Energies [Eh]
    ---------------------

    Doubly Occupied:

       1A    -91.961309     2A    -11.269078     3A    -11.268713
       4A    -11.244417     5A    -11.240883     6A    -11.240021
       7A     -8.961431     8A     -6.642624     9A     -6.641723
      10A     -6.640879    11A     -1.139223    12A     -1.027833
      13A     -1.016251    14A     -0.863279    15A     -0.816186
      16A     -0.696479    17A     -0.678750    18A     -0.615966
      19A     -0.599506    20A     -0.582641    21A     -0.537757
      22A     -0.483584    23A     -0.460917    24A     -0.449567
      25A     -0.362870    26A     -0.296501

  @DF-RHF Final Energy:  -590.40347152894901

   => Energetics <=

    Nuclear Repulsion Energy =            271.4400688435577536
    One-Electron Energy =               -1348.2103068964343038
    Two-Electron Energy =                 486.3667665239274243
    Total Energy =                       -590.4034715289490123
  Basis Set: (AUG-CC-PVTZ AUX)
    Blend: AUG-CC-PVTZ-RI
    Molecular point group: c1

    Geometry (in Angstrom), charge = 0, multiplicity = 1:

       Center              X                  Y                   Z               Mass
    ------------   -----------------  -----------------  -----------------  -----------------
         S            1.362768976417     0.027407597655    -0.213019600976    31.972071174400
         C            0.303933076417    -1.346978402345     0.436083599024    12.000000000000
         C           -1.075632023583    -1.202475402345    -0.138914600976    12.000000000000
         C           -1.726741023583    -0.019421402345    -0.157961600976    12.000000000000
         C           -1.066376023583     1.227058597655     0.189102399024    12.000000000000
         C            0.281783976417     1.360700597655     0.125766399024    12.000000000000
         H            0.280210976417    -1.208465402345     1.537876399024     1.007825032230
         H            0.791977976417    -2.238399402345     0.185609399024     1.007825032230
         H           -1.559533023583    -2.113116402345    -0.483261600976     1.007825032230
         H           -2.753136023583     0.028875597655    -0.514728600976     1.007825032230
         H           -1.667288023583     2.109486597655     0.394456399024     1.007825032230
         H            0.766014976417     2.327296597655     0.231238399024     1.007825032230

  Basis Set: AUG-CC-PVTZ
    Blend: AUG-CC-PVTZ
  Basis Set: (AUG-CC-PVTZ AUX)
    Blend: AUG-CC-PVTZ-JKFIT
	 Reference Energy          =    -590.4034715289490123 [Eh]
	 Singles Energy            =      -0.0000000000000000 [Eh]
	 Same-Spin Energy          =      -0.2675606701252444 [Eh]
	 Opposite-Spin Energy      =      -0.8624140217815075 [Eh]
	 Correlation Energy        =      -1.1299746919067519 [Eh]
	 Total Energy              =    -591.5334462208558080 [Eh]

	 ================> DF-SCS-MP2 Energies <==================
	-----------------------------------------------------------
	 SCS Same-Spin Scale       =       0.3333333333333333 [-]
	 SCS Opposite-Spin Scale   =       1.2000000000000000 [-]
	 SCS Same-Spin Energy      =      -0.0891868900417481 [Eh]
	 SCS Opposite-Spin Energy  =      -1.0348968261378089 [Eh]
	 SCS Correlation Energy    =      -1.1240837161795569 [Eh]
	 SCS Total Energy          =    -591.5275552451286103 [Eh]
	-----------------------------------------------------------

  Dipole Moment: [D]
     X:    -0.8733      Y:    -0.3984      Z:     0.5111     Total:     1.0875

*** Psi4 exiting successfully. Buy a developer a beer!
