                               Psi4 1.3.2 release

  ==> Input File <==

--------------------------------------------------------------------------
#psi4
#
memory 32 gb

molecule  {
0 1
  S        1.3774126     0.0423778    -0.2441187
  C        0.3439980    -1.2907520     0.4304430
  C       -1.0366050    -1.1980160    -0.1526860
  C       -1.6877140    -0.0149620    -0.1717330
  C       -1.0273490     1.2315180     0.1753310
  C        0.3208110     1.3651600     0.1119950
  H        0.3192380    -1.2040060     1.5241050
  H        0.8310050    -2.2339400     0.1718380
  H       -1.5205060    -2.1086570    -0.4970330
  H       -2.7141090     0.0333350    -0.5285000
  H       -1.6282610     2.1139460     0.3806850
  H        0.8050420     2.3317560     0.2174670
units angstrom
no_reorient  #important for SAPT in psi4, default
symmetry c1  #important for SAPT in psi4, default
}

set PROPERTIES_ORIGIN ["COM"]
properties('MP2/aug-cc-pvtz', properties = ['dipole'])
--------------------------------------------------------------------------

    Molecular point group: c1
  Charge       = 0
  Multiplicity = 1
  Basis Set: AUG-CC-PVTZ
    Blend: AUG-CC-PVTZ
  Basis Set: (AUG-CC-PVTZ AUX)
    Blend: AUG-CC-PVTZ-JKFIT

    Orbital Energies [Eh]
    ---------------------

    Doubly Occupied:

       1A    -91.961155     2A    -11.268062     3A    -11.267034
       4A    -11.243366     5A    -11.240326     6A    -11.238941
       7A     -8.962111     8A     -6.643385     9A     -6.642433
      10A     -6.641561    11A     -1.143688    12A     -1.027744
      13A     -1.019331    14A     -0.860917    15A     -0.816316
      16A     -0.694948    17A     -0.679953    18A     -0.608819
      19A     -0.599747    20A     -0.585531    21A     -0.535341
      22A     -0.485931    23A     -0.464622    24A     -0.450292
      25A     -0.362713    26A     -0.297132

  @DF-RHF Final Energy:  -590.40515377975805

   => Energetics <=

    Nuclear Repulsion Energy =            272.9673257537394875
    One-Electron Energy =               -1351.2621659651151731
    Two-Electron Energy =                 487.8896864316176334
    Total Energy =                       -590.4051537797580522
  Basis Set: (AUG-CC-PVTZ AUX)
    Blend: AUG-CC-PVTZ-RI
    Molecular point group: c1

    Geometry (in Angstrom), charge = 0, multiplicity = 1:

       Center              X                  Y                   Z               Mass
    ------------   -----------------  -----------------  -----------------  -----------------
         S            1.346211945112     0.028152374363    -0.225690726657    31.972071174400
         C            0.312797345112    -1.304977425637     0.448870973343    12.000000000000
         C           -1.067805654888    -1.212241425637    -0.134258026657    12.000000000000
         C           -1.718914654888    -0.029187425637    -0.153305026657    12.000000000000
         C           -1.058549654888     1.217292574363     0.193758973343    12.000000000000
         C            0.289610345112     1.350934574363     0.130422973343    12.000000000000
         H            0.288037345112    -1.218231425637     1.542532973343     1.007825032230
         H            0.799804345112    -2.248165425637     0.190265973343     1.007825032230
         H           -1.551706654888    -2.122882425637    -0.478605026657     1.007825032230
         H           -2.745309654888     0.019109574363    -0.510072026657     1.007825032230
         H           -1.659461654888     2.099720574363     0.399112973343     1.007825032230
         H            0.773841345112     2.317530574363     0.235894973343     1.007825032230

  Basis Set: AUG-CC-PVTZ
    Blend: AUG-CC-PVTZ
  Basis Set: (AUG-CC-PVTZ AUX)
    Blend: AUG-CC-PVTZ-JKFIT
	 Reference Energy          =    -590.4051537797580522 [Eh]
	 Singles Energy            =      -0.0000000000000000 [Eh]
	 Same-Spin Energy          =      -0.2681081245044565 [Eh]
	 Opposite-Spin Energy      =      -0.8626182711427823 [Eh]
	 Correlation Energy        =      -1.1307263956472389 [Eh]
	 Total Energy              =    -591.5358801754052820 [Eh]

	 ================> DF-SCS-MP2 Energies <==================
	-----------------------------------------------------------
	 SCS Same-Spin Scale       =       0.3333333333333333 [-]
	 SCS Opposite-Spin Scale   =       1.2000000000000000 [-]
	 SCS Same-Spin Energy      =      -0.0893693748348188 [Eh]
	 SCS Opposite-Spin Energy  =      -1.0351419253713388 [Eh]
	 SCS Correlation Energy    =      -1.1245113002061575 [Eh]
	 SCS Total Energy          =    -591.5296650799641611 [Eh]
	-----------------------------------------------------------

  Dipole Moment: [D]
     X:    -0.8259      Y:    -0.3695      Z:     0.5000     Total:     1.0337

*** Psi4 exiting successfully. Buy a developer a beer!
