                               Psi4 1.3.2 release

  ==> Input File <==

--------------------------------------------------------------------------
#psi4
#
memory 32 gb

molecule  {
0 1
  S        1.4489812     0.0703666    -0.2222454
  C        0.3439980    -1.2907520     0.4304430
  C       -1.0366050    -1.1980160    -0.1526860
  C       -1.6877140    -0.0149620    -0.1717330
  C       -1.0273490     1.2315180     0.1753310
  C        0.3208110     1.3651600     0.1119950
  H        0.3192380    -1.2040060     1.5241050
  H        0.8310050    -2.2339400     0.1718380
  H       -1.5205060    -2.1086570    -0.4970330
  H       -2.7141090     0.0333350    -0.5285000
  H       -1.6282610     2.1139460     0.3806850
  H        0.8050420     2.3317560     0.2174670
units angstrom
no_reorient  #important for SAPT in psi4, default
symmetry c1  #important for SAPT in psi4, default
}

set PROPERTIES_ORIGIN ["COM"]
properties('MP2/aug-cc-pvtz', properties = ['dipole'])
--------------------------------------------------------------------------

    Molecular point group: c1
  Charge       = 0
  Multiplicity = 1
  Basis Set: AUG-CC-PVTZ
    Blend: AUG-CC-PVTZ
  Basis Set: (AUG-CC-PVTZ AUX)
    Blend: AUG-CC-PVTZ-JKFIT

    Orbital Energies [Eh]
    ---------------------

    Doubly Occupied:

       1A    -91.964584     2A    -11.271867     3A    -11.269394
       4A    -11.243386     5A    -11.240894     6A    -11.239866
       7A     -8.964225     8A     -6.645406     9A     -6.644405
      10A     -6.643608    11A     -1.137407    12A     -1.026358
      13A     -1.013644    14A     -0.862501    15A     -0.814684
      16A     -0.693047    17A     -0.680090    18A     -0.608701
      19A     -0.598779    20A     -0.579886    21A     -0.532311
      22A     -0.478557    23A     -0.465034    24A     -0.451252
      25A     -0.366420    26A     -0.296806

  @DF-RHF Final Energy:  -590.40373391735500

   => Energetics <=

    Nuclear Repulsion Energy =            270.4221546751131768
    One-Electron Energy =               -1346.1855479521659618
    Two-Electron Energy =                 485.3596593596977300
    Total Energy =                       -590.4037339173549981
  Basis Set: (AUG-CC-PVTZ AUX)
    Blend: AUG-CC-PVTZ-RI
    Molecular point group: c1

    Geometry (in Angstrom), charge = 0, multiplicity = 1:

       Center              X                  Y                   Z               Mass
    ------------   -----------------  -----------------  -----------------  -----------------
         S            1.394436133577     0.047011722822    -0.210952110259    31.972071174400
         C            0.289452933577    -1.314106877178     0.441736289741    12.000000000000
         C           -1.091150066423    -1.221370877178    -0.141392710259    12.000000000000
         C           -1.742259066423    -0.038316877178    -0.160439710259    12.000000000000
         C           -1.081894066423     1.208163122822     0.186624289741    12.000000000000
         C            0.266265933577     1.341805122822     0.123288289741    12.000000000000
         H            0.264692933577    -1.227360877178     1.535398289741     1.007825032230
         H            0.776459933577    -2.257294877178     0.183131289741     1.007825032230
         H           -1.575051066423    -2.132011877178    -0.485739710259     1.007825032230
         H           -2.768654066423     0.009980122822    -0.517206710259     1.007825032230
         H           -1.682806066423     2.090591122822     0.391978289741     1.007825032230
         H            0.750496933577     2.308401122822     0.228760289741     1.007825032230

  Basis Set: AUG-CC-PVTZ
    Blend: AUG-CC-PVTZ
  Basis Set: (AUG-CC-PVTZ AUX)
    Blend: AUG-CC-PVTZ-JKFIT
	 Reference Energy          =    -590.4037339173549981 [Eh]
	 Singles Energy            =      -0.0000000000000000 [Eh]
	 Same-Spin Energy          =      -0.2674583837969294 [Eh]
	 Opposite-Spin Energy      =      -0.8629049816044216 [Eh]
	 Correlation Energy        =      -1.1303633654013510 [Eh]
	 Total Energy              =    -591.5340972827563064 [Eh]

	 ================> DF-SCS-MP2 Energies <==================
	-----------------------------------------------------------
	 SCS Same-Spin Scale       =       0.3333333333333333 [-]
	 SCS Opposite-Spin Scale   =       1.2000000000000000 [-]
	 SCS Same-Spin Energy      =      -0.0891527945989765 [Eh]
	 SCS Opposite-Spin Energy  =      -1.0354859779253058 [Eh]
	 SCS Correlation Energy    =      -1.1246387725242823 [Eh]
	 SCS Total Energy          =    -591.5283726898792338 [Eh]
	-----------------------------------------------------------

  Dipole Moment: [D]
     X:    -0.8620      Y:    -0.3765      Z:     0.4867     Total:     1.0591

*** Psi4 exiting successfully. Buy a developer a beer!
