                               Psi4 1.3.2 release

  ==> Input File <==

--------------------------------------------------------------------------
#psi4
#
memory 32 gb

molecule  {
0 1
  S        1.4017960     0.0318670    -0.2267910
  C        0.3439980    -1.2907520     0.4304430
  C       -1.0366050    -1.1980160    -0.1526860
  C       -1.6877140    -0.0149620    -0.1717330
  C       -1.0273490     1.2315180     0.1753310
  C        0.3208110     1.3651600     0.1119950
  H        0.3237506    -1.2198157     1.3247819
  H        0.8310050    -2.2339400     0.1718380
  H       -1.5205060    -2.1086570    -0.4970330
  H       -2.7141090     0.0333350    -0.5285000
  H       -1.6282610     2.1139460     0.3806850
  H        0.8050420     2.3317560     0.2174670
units angstrom
no_reorient  #important for SAPT in psi4, default
symmetry c1  #important for SAPT in psi4, default
}

set PROPERTIES_ORIGIN ["COM"]
properties('MP2/aug-cc-pvtz', properties = ['dipole'])
--------------------------------------------------------------------------

    Molecular point group: c1
  Charge       = 0
  Multiplicity = 1
  Basis Set: AUG-CC-PVTZ
    Blend: AUG-CC-PVTZ
  Basis Set: (AUG-CC-PVTZ AUX)
    Blend: AUG-CC-PVTZ-JKFIT

    Orbital Energies [Eh]
    ---------------------

    Doubly Occupied:

       1A    -91.960883     2A    -11.268199     3A    -11.244840
       4A    -11.242564     5A    -11.240366     6A    -11.239044
       7A     -8.961483     8A     -6.642731     9A     -6.641785
      10A     -6.640920    11A     -1.145595    12A     -1.035439
      13A     -1.020768    14A     -0.874355    15A     -0.817605
      16A     -0.705881    17A     -0.689716    18A     -0.618226
      19A     -0.604404    20A     -0.588602    21A     -0.534633
      22A     -0.483520    23A     -0.467032    24A     -0.452566
      25A     -0.363260    26A     -0.298500

  @DF-RHF Final Energy:  -590.37323545714219

   => Energetics <=

    Nuclear Repulsion Energy =            273.3046401392282974
    One-Electron Energy =               -1351.7899162443643490
    Two-Electron Energy =                 488.1120406479939220
    Total Energy =                       -590.3732354571421865
  Basis Set: (AUG-CC-PVTZ AUX)
    Blend: AUG-CC-PVTZ-RI
    Molecular point group: c1

    Geometry (in Angstrom), charge = 0, multiplicity = 1:

       Center              X                  Y                   Z               Mass
    ------------   -----------------  -----------------  -----------------  -----------------
         S            1.362595513032     0.021232565706    -0.211965589130    31.972071174400
         C            0.304797513032    -1.301386434294     0.445268410870    12.000000000000
         C           -1.075805486968    -1.208650434294    -0.137860589130    12.000000000000
         C           -1.726914486968    -0.025596434294    -0.156907589130    12.000000000000
         C           -1.066549486968     1.220883565706     0.190156410870    12.000000000000
         C            0.281610513032     1.354525565706     0.126820410870    12.000000000000
         H            0.284550113032    -1.230450134294     1.339607310870     1.007825032230
         H            0.791804513032    -2.244574434294     0.186663410870     1.007825032230
         H           -1.559706486968    -2.119291434294    -0.482207589130     1.007825032230
         H           -2.753309486968     0.022700565706    -0.513674589130     1.007825032230
         H           -1.667461486968     2.103311565706     0.395510410870     1.007825032230
         H            0.765841513032     2.321121565706     0.232292410870     1.007825032230

  Basis Set: AUG-CC-PVTZ
    Blend: AUG-CC-PVTZ
  Basis Set: (AUG-CC-PVTZ AUX)
    Blend: AUG-CC-PVTZ-JKFIT
	 Reference Energy          =    -590.3732354571421865 [Eh]
	 Singles Energy            =      -0.0000000000000000 [Eh]
	 Same-Spin Energy          =      -0.2674797344753769 [Eh]
	 Opposite-Spin Energy      =      -0.8618467173547015 [Eh]
	 Correlation Energy        =      -1.1293264518300785 [Eh]
	 Total Energy              =    -591.5025619089722113 [Eh]

	 ================> DF-SCS-MP2 Energies <==================
	-----------------------------------------------------------
	 SCS Same-Spin Scale       =       0.3333333333333333 [-]
	 SCS Opposite-Spin Scale   =       1.2000000000000000 [-]
	 SCS Same-Spin Energy      =      -0.0891599114917923 [Eh]
	 SCS Opposite-Spin Energy  =      -1.0342160608256419 [Eh]
	 SCS Correlation Energy    =      -1.1233759723174341 [Eh]
	 SCS Total Energy          =    -591.4966114294596764 [Eh]
	-----------------------------------------------------------

  Dipole Moment: [D]
     X:    -0.8525      Y:    -0.4087      Z:     0.5439     Total:     1.0907

*** Psi4 exiting successfully. Buy a developer a beer!
