                               Psi4 1.4a3.dev225

  ==> Input File <==

--------------------------------------------------------------------------
#psi4
#
memory 32 gb

molecule  {
0 1
  S        1.4017960     0.0318670    -0.2267910
  C        0.3439980    -1.2907520     0.4304430
  C       -1.0366050    -1.1980160    -0.1526860
  C       -1.6877140    -0.0149620    -0.1717330
  C       -1.0273490     1.2315180     0.1753310
  C        0.3705128     1.3700869     0.1096600
  H        0.3192380    -1.2040060     1.5241050
  H        0.8310050    -2.2339400     0.1718380
  H       -1.5205060    -2.1086570    -0.4970330
  H       -2.7141090     0.0333350    -0.5285000
  H       -1.6282610     2.1139460     0.3806850
  H        0.8050420     2.3317560     0.2174670
units angstrom
no_reorient  #important for SAPT in psi4, default
symmetry c1  #important for SAPT in psi4, default
}

set PROPERTIES_ORIGIN ["COM"]
properties('MP2/aug-cc-pvtz', properties = ['dipole'])
--------------------------------------------------------------------------

    Molecular point group: c1
  Charge       = 0
  Multiplicity = 1
  Basis Set: AUG-CC-PVTZ
    Blend: AUG-CC-PVTZ
  Basis Set: (AUG-CC-PVTZ AUX)
    Blend: AUG-CC-PVTZ-JKFIT

    Orbital Energies [Eh]
    ---------------------

    Doubly Occupied:

       1A    -91.963892     2A    -11.272291     3A    -11.269076
       4A    -11.246452     5A    -11.243191     6A    -11.239685
       7A     -8.964769     8A     -6.646054     9A     -6.645103
      10A     -6.644250    11A     -1.139909    12A     -1.026135
      13A     -1.017502    14A     -0.858944    15A     -0.819292
      16A     -0.696007    17A     -0.680577    18A     -0.604798
      19A     -0.598109    20A     -0.587871    21A     -0.535597
      22A     -0.492345    23A     -0.463126    24A     -0.446197
      25A     -0.365887    26A     -0.290430

  @DF-RHF Final Energy:  -590.39985004860262

   => Energetics <=

    Nuclear Repulsion Energy =            271.9677667370692689
    One-Electron Energy =               -1349.2202592300307060
    Two-Electron Energy =                 486.8526424443588780
    Total Energy =                       -590.3998500486025023
  Basis Set: (AUG-CC-PVTZ AUX)
    Blend: AUG-CC-PVTZ-RI
    Molecular point group: c1

    Geometry (in Angstrom), charge = 0, multiplicity = 1:

       Center              X                  Y                   Z               Mass
    ------------   -----------------  -----------------  -----------------  -----------------
         S            1.356557157614     0.020466834622    -0.213729153051    31.972071174400
         C            0.298759157614    -1.302152165378     0.443504846949    12.000000000000
         C           -1.081843842386    -1.209416165378    -0.139624153051    12.000000000000
         C           -1.732952842386    -0.026362165378    -0.158671153051    12.000000000000
         C           -1.072587842386     1.220117834622     0.188392846949    12.000000000000
         C            0.325273957614     1.358686734622     0.122721846949    12.000000000000
         H            0.273999157614    -1.215406165378     1.537166846949     1.007825032230
         H            0.785766157614    -2.245340165378     0.184899846949     1.007825032230
         H           -1.565744842386    -2.120057165378    -0.483971153051     1.007825032230
         H           -2.759347842386     0.021934834622    -0.515438153051     1.007825032230
         H           -1.673499842386     2.102545834622     0.393746846949     1.007825032230
         H            0.759803157614     2.320355834622     0.230528846949     1.007825032230

  Basis Set: AUG-CC-PVTZ
    Blend: AUG-CC-PVTZ
  Basis Set: (AUG-CC-PVTZ AUX)
    Blend: AUG-CC-PVTZ-JKFIT
	 Reference Energy          =    -590.3998500486026160 [Eh]
	 Singles Energy            =      -0.0000000000000000 [Eh]
	 Same-Spin Energy          =      -0.2688787527335001 [Eh]
	 Opposite-Spin Energy      =      -0.8641548764773763 [Eh]
	 Correlation Energy        =      -1.1330336292108765 [Eh]
	 Total Energy              =    -591.5328836778135155 [Eh]

	 ================> DF-SCS-MP2 Energies <==================
	-----------------------------------------------------------
	 SCS Same-Spin Scale       =       0.3333333333333333 [-]
	 SCS Opposite-Spin Scale   =       1.2000000000000000 [-]
	 SCS Same-Spin Energy      =      -0.0896262509111667 [Eh]
	 SCS Opposite-Spin Energy  =      -1.0369858517728516 [Eh]
	 SCS Correlation Energy    =      -1.1266121026840183 [Eh]
	 SCS Total Energy          =    -591.5264621512866370 [Eh]
	-----------------------------------------------------------

  Dipole Moment: [D]
     X:    -0.7805      Y:    -0.3976      Z:     0.4872     Total:     1.0023

*** Psi4 exiting successfully. Buy a developer a beer!
