                               Psi4 1.3.2 release

  ==> Input File <==

--------------------------------------------------------------------------
#psi4
#
memory 32 gb

molecule  {
0 1
  S        1.4017960     0.0318670    -0.2267910
  C        0.3439980    -1.2907520     0.4304430
  C       -1.0366050    -1.1980160    -0.1526860
  C       -1.6877140    -0.0149620    -0.1717330
  C       -1.0273490     1.2315180     0.1753310
  C        0.3825970     1.2889528     0.0926310
  H        0.3192380    -1.2040060     1.5241050
  H        0.8310050    -2.2339400     0.1718380
  H       -1.5205060    -2.1086570    -0.4970330
  H       -2.7141090     0.0333350    -0.5285000
  H       -1.6282610     2.1139460     0.3806850
  H        0.8050420     2.3317560     0.2174670
units angstrom
no_reorient  #important for SAPT in psi4, default
symmetry c1  #important for SAPT in psi4, default
}

set PROPERTIES_ORIGIN ["COM"]
properties('MP2/aug-cc-pvtz', properties = ['dipole'])
--------------------------------------------------------------------------

    Molecular point group: c1
  Charge       = 0
  Multiplicity = 1
  Basis Set: AUG-CC-PVTZ
    Blend: AUG-CC-PVTZ
  Basis Set: (AUG-CC-PVTZ AUX)
    Blend: AUG-CC-PVTZ-JKFIT

    Orbital Energies [Eh]
    ---------------------

    Doubly Occupied:

       1A    -91.966850     2A    -11.275287     3A    -11.269362
       4A    -11.243539     5A    -11.239226     6A    -11.237288
       7A     -8.969412     8A     -6.650888     9A     -6.649618
      10A     -6.648813    11A     -1.146980    12A     -1.034090
      13A     -1.014810    14A     -0.864124    15A     -0.810265
      16A     -0.687988    17A     -0.678377    18A     -0.607695
      19A     -0.598616    20A     -0.578890    21A     -0.535125
      22A     -0.494962    23A     -0.472149    24A     -0.445678
      25A     -0.369087    26A     -0.284788

  @DF-RHF Final Energy:  -590.39059695663070

   => Energetics <=

    Nuclear Repulsion Energy =            273.5247378041662500
    One-Electron Energy =               -1352.2828557341804299
    Two-Electron Energy =                 488.3675209733834208
    Total Energy =                       -590.3905969566307022
  Basis Set: (AUG-CC-PVTZ AUX)
    Blend: AUG-CC-PVTZ-RI
    Molecular point group: c1

    Geometry (in Angstrom), charge = 0, multiplicity = 1:

       Center              X                  Y                   Z               Mass
    ------------   -----------------  -----------------  -----------------  -----------------
         S            1.355077746802     0.030399694453    -0.211644374024    31.972071174400
         C            0.297279746802    -1.292219305547     0.445589625976    12.000000000000
         C           -1.083323253198    -1.199483305547    -0.137539374024    12.000000000000
         C           -1.734432253198    -0.016429305547    -0.156586374024    12.000000000000
         C           -1.074067253198     1.230050694453     0.190477625976    12.000000000000
         C            0.335878746802     1.287485494453     0.107777625976    12.000000000000
         H            0.272519746802    -1.205473305547     1.539251625976     1.007825032230
         H            0.784286746802    -2.235407305547     0.186984625976     1.007825032230
         H           -1.567224253198    -2.110124305547    -0.481886374024     1.007825032230
         H           -2.760827253198     0.031867694453    -0.513353374024     1.007825032230
         H           -1.674979253198     2.112478694453     0.395831625976     1.007825032230
         H            0.758323746802     2.330288694453     0.232613625976     1.007825032230

  Basis Set: AUG-CC-PVTZ
    Blend: AUG-CC-PVTZ
  Basis Set: (AUG-CC-PVTZ AUX)
    Blend: AUG-CC-PVTZ-JKFIT
	 Reference Energy          =    -590.3905969566307022 [Eh]
	 Singles Energy            =      -0.0000000000000000 [Eh]
	 Same-Spin Energy          =      -0.2704848965077070 [Eh]
	 Opposite-Spin Energy      =      -0.8654434379695246 [Eh]
	 Correlation Energy        =      -1.1359283344772315 [Eh]
	 Total Energy              =    -591.5265252911079870 [Eh]

	 ================> DF-SCS-MP2 Energies <==================
	-----------------------------------------------------------
	 SCS Same-Spin Scale       =       0.3333333333333333 [-]
	 SCS Opposite-Spin Scale   =       1.2000000000000000 [-]
	 SCS Same-Spin Energy      =      -0.0901616321692356 [Eh]
	 SCS Opposite-Spin Energy  =      -1.0385321255634294 [Eh]
	 SCS Correlation Energy    =      -1.1286937577326650 [Eh]
	 SCS Total Energy          =    -591.5192907143633647 [Eh]
	-----------------------------------------------------------

  Dipole Moment: [D]
     X:    -0.5727      Y:    -0.4447      Z:     0.4708     Total:     0.8646

*** Psi4 exiting successfully. Buy a developer a beer!
