                               Psi4 1.3.2 release

  ==> Input File <==

--------------------------------------------------------------------------
#psi4
#
memory 32 gb

molecule  {
0 1
  S        1.4017960     0.0318670    -0.2267910
  C        0.3439980    -1.2907520     0.4304430
  C       -1.0366050    -1.1980160    -0.1526860
  C       -1.6877140    -0.0149620    -0.1717330
  C       -1.0273490     1.2315180     0.1753310
  C        0.3208110     1.3651600     0.1119950
  H        0.3192380    -1.2040060     1.5241050
  H        0.8310050    -2.2339400     0.1718380
  H       -1.6095239    -2.2761775    -0.5603787
  H       -2.7141090     0.0333350    -0.5285000
  H       -1.6282610     2.1139460     0.3806850
  H        0.8050420     2.3317560     0.2174670
units angstrom
no_reorient  #important for SAPT in psi4, default
symmetry c1  #important for SAPT in psi4, default
}

set PROPERTIES_ORIGIN ["COM"]
properties('MP2/aug-cc-pvtz', properties = ['dipole'])
--------------------------------------------------------------------------

    Molecular point group: c1
  Charge       = 0
  Multiplicity = 1
  Basis Set: AUG-CC-PVTZ
    Blend: AUG-CC-PVTZ
  Basis Set: (AUG-CC-PVTZ AUX)
    Blend: AUG-CC-PVTZ-JKFIT

    Orbital Energies [Eh]
    ---------------------

    Doubly Occupied:

       1A    -91.963593     2A    -11.270289     3A    -11.269796
       4A    -11.264696     5A    -11.242840     6A    -11.241357
       7A     -8.964079     8A     -6.645312     9A     -6.644364
      10A     -6.643499    11A     -1.142271    12A     -1.024590
      13A     -1.019227    14A     -0.860819    15A     -0.807730
      16A     -0.695033    17A     -0.662141    18A     -0.610018
      19A     -0.601144    20A     -0.568730    21A     -0.533378
      22A     -0.476004    23A     -0.464491    24A     -0.450294
      25A     -0.364951    26A     -0.299027

  @DF-RHF Final Energy:  -590.38357840226718

   => Energetics <=

    Nuclear Repulsion Energy =            271.3137395640333125
    One-Electron Energy =               -1347.9352947301981658
    Two-Electron Energy =                 486.2379767638976205
    Total Energy =                       -590.3835784022671760
  Basis Set: (AUG-CC-PVTZ AUX)
    Blend: AUG-CC-PVTZ-RI
    Molecular point group: c1

    Geometry (in Angstrom), charge = 0, multiplicity = 1:

       Center              X                  Y                   Z               Mass
    ------------   -----------------  -----------------  -----------------  -----------------
         S            1.363557187388     0.022792446020    -0.213363699676    31.972071174400
         C            0.305759187388    -1.299826553980     0.443870300324    12.000000000000
         C           -1.074843812612    -1.207090553980    -0.139258699676    12.000000000000
         C           -1.725952812612    -0.024036553980    -0.158305699676    12.000000000000
         C           -1.065587812612     1.222443446020     0.188758300324    12.000000000000
         C            0.282572187388     1.356085446020     0.125422300324    12.000000000000
         H            0.280999187388    -1.213080553980     1.537532300324     1.007825032230
         H            0.792766187388    -2.243014553980     0.185265300324     1.007825032230
         H           -1.647762712612    -2.285252053980    -0.546951399676     1.007825032230
         H           -2.752347812612     0.024260446020    -0.515072699676     1.007825032230
         H           -1.666499812612     2.104871446020     0.394112300324     1.007825032230
         H            0.766803187388     2.322681446020     0.230894300324     1.007825032230

  Basis Set: AUG-CC-PVTZ
    Blend: AUG-CC-PVTZ
  Basis Set: (AUG-CC-PVTZ AUX)
    Blend: AUG-CC-PVTZ-JKFIT
	 Reference Energy          =    -590.3835784022671760 [Eh]
	 Singles Energy            =      -0.0000000000000000 [Eh]
	 Same-Spin Energy          =      -0.2682702902638642 [Eh]
	 Opposite-Spin Energy      =      -0.8645937954208751 [Eh]
	 Correlation Energy        =      -1.1328640856847394 [Eh]
	 Total Energy              =    -591.5164424879519629 [Eh]

	 ================> DF-SCS-MP2 Energies <==================
	-----------------------------------------------------------
	 SCS Same-Spin Scale       =       0.3333333333333333 [-]
	 SCS Opposite-Spin Scale   =       1.2000000000000000 [-]
	 SCS Same-Spin Energy      =      -0.0894234300879547 [Eh]
	 SCS Opposite-Spin Energy  =      -1.0375125545050501 [Eh]
	 SCS Correlation Energy    =      -1.1269359845930049 [Eh]
	 SCS Total Energy          =    -591.5105143868602227 [Eh]
	-----------------------------------------------------------

  Dipole Moment: [D]
     X:    -0.7832      Y:    -0.2642      Z:     0.5219     Total:     0.9775

*** Psi4 exiting successfully. Buy a developer a beer!
