                               Psi4 1.3.2 release

  ==> Input File <==

--------------------------------------------------------------------------
#psi4
#
memory 32 gb

molecule  {
0 1
  S        1.3024038     0.0714614    -0.2948482
  C        0.3439980    -1.2907520     0.4304430
  C       -1.0366050    -1.1980160    -0.1526860
  C       -1.6877140    -0.0149620    -0.1717330
  C       -1.0273490     1.2315180     0.1753310
  C        0.3208110     1.3651600     0.1119950
  H        0.3192380    -1.2040060     1.5241050
  H        0.8310050    -2.2339400     0.1718380
  H       -1.5205060    -2.1086570    -0.4970330
  H       -2.7141090     0.0333350    -0.5285000
  H       -1.6282610     2.1139460     0.3806850
  H        0.8050420     2.3317560     0.2174670
units angstrom
no_reorient  #important for SAPT in psi4, default
symmetry c1  #important for SAPT in psi4, default
}

set PROPERTIES_ORIGIN ["COM"]
properties('MP2/aug-cc-pvtz', properties = ['dipole'])
--------------------------------------------------------------------------

    Molecular point group: c1
  Charge       = 0
  Multiplicity = 1
  Basis Set: AUG-CC-PVTZ
    Blend: AUG-CC-PVTZ
  Basis Set: (AUG-CC-PVTZ AUX)
    Blend: AUG-CC-PVTZ-JKFIT

    Orbital Energies [Eh]
    ---------------------

    Doubly Occupied:

       1A    -91.958239     2A    -11.268581     3A    -11.261898
       4A    -11.243292     5A    -11.238437     6A    -11.237446
       7A     -8.960677     8A     -6.642079     9A     -6.641049
      10A     -6.640143    11A     -1.150578    12A     -1.033366
      13A     -1.018788    14A     -0.864353    15A     -0.813901
      16A     -0.697484    17A     -0.679315    18A     -0.608459
      19A     -0.599893    20A     -0.589916    21A     -0.536556
      22A     -0.491925    23A     -0.469546    24A     -0.447703
      25A     -0.358364    26A     -0.295604

  @DF-RHF Final Energy:  -590.40046768753109

   => Energetics <=

    Nuclear Repulsion Energy =            275.3043102655032044
    One-Electron Energy =               -1355.9143700792030813
    Two-Electron Energy =                 490.2095921261689568
    Total Energy =                       -590.4004676875310906
  Basis Set: (AUG-CC-PVTZ AUX)
    Blend: AUG-CC-PVTZ-RI
    Molecular point group: c1

    Geometry (in Angstrom), charge = 0, multiplicity = 1:

       Center              X                  Y                   Z               Mass
    ------------   -----------------  -----------------  -----------------  -----------------
         S            1.295669689042     0.047749418425    -0.259873160975    31.972071174400
         C            0.337263889042    -1.314463981575     0.465418039025    12.000000000000
         C           -1.043339110958    -1.221727981575    -0.117710960975    12.000000000000
         C           -1.694448110958    -0.038673981575    -0.136757960975    12.000000000000
         C           -1.034083110958     1.207806018425     0.210306039025    12.000000000000
         C            0.314076889042     1.341448018425     0.146970039025    12.000000000000
         H            0.312503889042    -1.227717981575     1.559080039025     1.007825032230
         H            0.824270889042    -2.257651981575     0.206813039025     1.007825032230
         H           -1.527240110958    -2.132368981575    -0.462057960975     1.007825032230
         H           -2.720843110958     0.009623018425    -0.493524960975     1.007825032230
         H           -1.634995110958     2.090234018425     0.415660039025     1.007825032230
         H            0.798307889042     2.308044018425     0.252442039025     1.007825032230

  Basis Set: AUG-CC-PVTZ
    Blend: AUG-CC-PVTZ
  Basis Set: (AUG-CC-PVTZ AUX)
    Blend: AUG-CC-PVTZ-JKFIT
	 Reference Energy          =    -590.4004676875310906 [Eh]
	 Singles Energy            =      -0.0000000000000000 [Eh]
	 Same-Spin Energy          =      -0.2691724509399080 [Eh]
	 Opposite-Spin Energy      =      -0.8629393938501020 [Eh]
	 Correlation Energy        =      -1.1321118447900100 [Eh]
	 Total Energy              =    -591.5325795323210514 [Eh]

	 ================> DF-SCS-MP2 Energies <==================
	-----------------------------------------------------------
	 SCS Same-Spin Scale       =       0.3333333333333333 [-]
	 SCS Opposite-Spin Scale   =       1.2000000000000000 [-]
	 SCS Same-Spin Energy      =      -0.0897241503133027 [Eh]
	 SCS Opposite-Spin Energy  =      -1.0355272726201223 [Eh]
	 SCS Correlation Energy    =      -1.1252514229334249 [Eh]
	 SCS Total Energy          =    -591.5257191104644789 [Eh]
	-----------------------------------------------------------

  Dipole Moment: [D]
     X:    -0.7369      Y:    -0.4021      Z:     0.5124     Total:     0.9835

*** Psi4 exiting successfully. Buy a developer a beer!
