                               Psi4 1.3.2 release

  ==> Input File <==

--------------------------------------------------------------------------
#psi4
#
memory 32 gb

molecule  {
0 1
  S        1.4017960     0.0318670    -0.2267910
  C        0.3439980    -1.2907520     0.4304430
  C       -1.0366050    -1.1980160    -0.1526860
  C       -1.6877140    -0.0149620    -0.1717330
  C       -1.0273490     1.2315180     0.1753310
  C        0.3208110     1.3651600     0.1119950
  H        0.3192380    -1.2040060     1.5241050
  H        0.8310050    -2.2339400     0.1718380
  H       -1.5205060    -2.1086570    -0.4970330
  H       -2.5253823     0.0244545    -0.4629000
  H       -1.6282610     2.1139460     0.3806850
  H        0.8050420     2.3317560     0.2174670
units angstrom
no_reorient  #important for SAPT in psi4, default
symmetry c1  #important for SAPT in psi4, default
}

set PROPERTIES_ORIGIN ["COM"]
properties('MP2/aug-cc-pvtz', properties = ['dipole'])
--------------------------------------------------------------------------

    Molecular point group: c1
  Charge       = 0
  Multiplicity = 1
  Basis Set: AUG-CC-PVTZ
    Blend: AUG-CC-PVTZ
  Basis Set: (AUG-CC-PVTZ AUX)
    Blend: AUG-CC-PVTZ-JKFIT

    Orbital Energies [Eh]
    ---------------------

    Doubly Occupied:

       1A    -91.961452     2A    -11.267631     3A    -11.266882
       4A    -11.242847     5A    -11.239393     6A    -11.215768
       7A     -8.961949     8A     -6.643191     9A     -6.642243
      10A     -6.641386    11A     -1.143446    12A     -1.029767
      13A     -1.024453    14A     -0.867356    15A     -0.824170
      16A     -0.723344    17A     -0.679810    18A     -0.611971
      19A     -0.598985    20A     -0.585164    21A     -0.549589
      22A     -0.483040    23A     -0.462803    24A     -0.451236
      25A     -0.363510    26A     -0.297054

  @DF-RHF Final Energy:  -590.37074424841001

   => Energetics <=

    Nuclear Repulsion Energy =            273.3401535083476688
    One-Electron Energy =               -1351.8649203489549109
    Two-Electron Energy =                 488.1540225921972933
    Total Energy =                       -590.3707442484100056
  Basis Set: (AUG-CC-PVTZ AUX)
    Blend: AUG-CC-PVTZ-RI
    Molecular point group: c1

    Geometry (in Angstrom), charge = 0, multiplicity = 1:

       Center              X                  Y                   Z               Mass
    ------------   -----------------  -----------------  -----------------  -----------------
         S            1.360701435957     0.021161320134    -0.214689510753    31.972071174400
         C            0.302903435957    -1.301457679866     0.442544489247    12.000000000000
         C           -1.077699564043    -1.208721679866    -0.140584510753    12.000000000000
         C           -1.728808564043    -0.025667679866    -0.159631510753    12.000000000000
         C           -1.068443564043     1.220812320134     0.187432489247    12.000000000000
         C            0.279716435957     1.354454320134     0.124096489247    12.000000000000
         H            0.278143435957    -1.214711679866     1.536206489247     1.007825032230
         H            0.789910435957    -2.244645679866     0.183939489247     1.007825032230
         H           -1.561600564043    -2.119362679866    -0.484931510753     1.007825032230
         H           -2.566476864043     0.013748820134    -0.450798510753     1.007825032230
         H           -1.669355564043     2.103240320134     0.392786489247     1.007825032230
         H            0.763947435957     2.321050320134     0.229568489247     1.007825032230

  Basis Set: AUG-CC-PVTZ
    Blend: AUG-CC-PVTZ
  Basis Set: (AUG-CC-PVTZ AUX)
    Blend: AUG-CC-PVTZ-JKFIT
	 Reference Energy          =    -590.3707442484100056 [Eh]
	 Singles Energy            =      -0.0000000000000000 [Eh]
	 Same-Spin Energy          =      -0.2676707073753385 [Eh]
	 Opposite-Spin Energy      =      -0.8622580558194335 [Eh]
	 Correlation Energy        =      -1.1299287631947719 [Eh]
	 Total Energy              =    -591.5006730116048175 [Eh]

	 ================> DF-SCS-MP2 Energies <==================
	-----------------------------------------------------------
	 SCS Same-Spin Scale       =       0.3333333333333333 [-]
	 SCS Opposite-Spin Scale   =       1.2000000000000000 [-]
	 SCS Same-Spin Energy      =      -0.0892235691251128 [Eh]
	 SCS Opposite-Spin Energy  =      -1.0347096669833202 [Eh]
	 SCS Correlation Energy    =      -1.1239332361084331 [Eh]
	 SCS Total Energy          =    -591.4946774845184336 [Eh]
	-----------------------------------------------------------

  Dipole Moment: [D]
     X:    -0.9075      Y:    -0.3695      Z:     0.4869     Total:     1.0941

*** Psi4 exiting successfully. Buy a developer a beer!
