                               Psi4 1.3.2 release

  ==> Input File <==

--------------------------------------------------------------------------
#psi4
#
memory 32 gb

molecule  {
0 1
  S        1.4017960     0.0318670    -0.2267910
  C        0.3220891    -1.2691065     0.4379760
  C       -1.0366050    -1.1980160    -0.1526860
  C       -1.6877140    -0.0149620    -0.1717330
  C       -1.0273490     1.2315180     0.1753310
  C        0.3208110     1.3651600     0.1119950
  H        0.3192380    -1.2040060     1.5241050
  H        0.8310050    -2.2339400     0.1718380
  H       -1.5205060    -2.1086570    -0.4970330
  H       -2.7141090     0.0333350    -0.5285000
  H       -1.6282610     2.1139460     0.3806850
  H        0.8050420     2.3317560     0.2174670
units angstrom
no_reorient  #important for SAPT in psi4, default
symmetry c1  #important for SAPT in psi4, default
}

set PROPERTIES_ORIGIN ["COM"]
properties('MP2/aug-cc-pvtz', properties = ['dipole'])
--------------------------------------------------------------------------

    Molecular point group: c1
  Charge       = 0
  Multiplicity = 1
  Basis Set: AUG-CC-PVTZ
    Blend: AUG-CC-PVTZ
  Basis Set: (AUG-CC-PVTZ AUX)
    Blend: AUG-CC-PVTZ-JKFIT

    Orbital Energies [Eh]
    ---------------------

    Doubly Occupied:

       1A    -91.962437     2A    -11.268666     3A    -11.268116
       4A    -11.242127     5A    -11.240943     6A    -11.239293
       7A     -8.962923     8A     -6.644155     9A     -6.643180
      10A     -6.642329    11A     -1.143521    12A     -1.027763
      13A     -1.018409    14A     -0.858623    15A     -0.817419
      16A     -0.693923    17A     -0.681609    18A     -0.607729
      19A     -0.599897    20A     -0.584429    21A     -0.533511
      22A     -0.481195    23A     -0.463926    24A     -0.451797
      25A     -0.364136    26A     -0.298115

  @DF-RHF Final Energy:  -590.40380028840480

   => Energetics <=

    Nuclear Repulsion Energy =            272.5373560712080234
    One-Electron Energy =               -1350.4019731152216082
    Two-Electron Energy =                 487.4608167556087892
    Total Energy =                       -590.4038002884047955
  Basis Set: (AUG-CC-PVTZ AUX)
    Blend: AUG-CC-PVTZ-RI
    Molecular point group: c1

    Geometry (in Angstrom), charge = 0, multiplicity = 1:

       Center              X                  Y                   Z               Mass
    ------------   -----------------  -----------------  -----------------  -----------------
         S            1.365324113130     0.018420056383    -0.214937245096    31.972071174400
         C            0.285617213130    -1.282553443617     0.449829754904    12.000000000000
         C           -1.073076886870    -1.211462943617    -0.140832245096    12.000000000000
         C           -1.724185886870    -0.028408943617    -0.159879245096    12.000000000000
         C           -1.063820886870     1.218071056383     0.187184754904    12.000000000000
         C            0.284339113130     1.351713056383     0.123848754904    12.000000000000
         H            0.282766113130    -1.217452943617     1.535958754904     1.007825032230
         H            0.794533113130    -2.247386943617     0.183691754904     1.007825032230
         H           -1.556977886870    -2.122103943617    -0.485179245096     1.007825032230
         H           -2.750580886870     0.019888056383    -0.516646245096     1.007825032230
         H           -1.664732886870     2.100499056383     0.392538754904     1.007825032230
         H            0.768570113130     2.318309056383     0.229320754904     1.007825032230

  Basis Set: AUG-CC-PVTZ
    Blend: AUG-CC-PVTZ
  Basis Set: (AUG-CC-PVTZ AUX)
    Blend: AUG-CC-PVTZ-JKFIT
	 Reference Energy          =    -590.4038002884047955 [Eh]
	 Singles Energy            =      -0.0000000000000000 [Eh]
	 Same-Spin Energy          =      -0.2681285252629017 [Eh]
	 Opposite-Spin Energy      =      -0.8630295162975063 [Eh]
	 Correlation Energy        =      -1.1311580415604081 [Eh]
	 Total Energy              =    -591.5349583299652068 [Eh]

	 ================> DF-SCS-MP2 Energies <==================
	-----------------------------------------------------------
	 SCS Same-Spin Scale       =       0.3333333333333333 [-]
	 SCS Opposite-Spin Scale   =       1.2000000000000000 [-]
	 SCS Same-Spin Energy      =      -0.0893761750876339 [Eh]
	 SCS Opposite-Spin Energy  =      -1.0356354195570077 [Eh]
	 SCS Correlation Energy    =      -1.1250115946446415 [Eh]
	 SCS Total Energy          =    -591.5288118830494568 [Eh]
	-----------------------------------------------------------

  Dipole Moment: [D]
     X:    -0.8553      Y:    -0.3386      Z:     0.4972     Total:     1.0456

*** Psi4 exiting successfully. Buy a developer a beer!
