                               Psi4 1.3.2 release

  ==> Input File <==

--------------------------------------------------------------------------
#psi4
#
memory 32 gb

molecule  {
0 1
  S        1.4017960     0.0318670    -0.2267910
  C        0.3439980    -1.2907520     0.4304430
  C       -1.0366050    -1.1980160    -0.1526860
  C       -1.6650508    -0.0261444    -0.1737671
  C       -1.0273490     1.2315180     0.1753310
  C        0.3208110     1.3651600     0.1119950
  H        0.3192380    -1.2040060     1.5241050
  H        0.8310050    -2.2339400     0.1718380
  H       -1.5205060    -2.1086570    -0.4970330
  H       -2.7141090     0.0333350    -0.5285000
  H       -1.6282610     2.1139460     0.3806850
  H        0.8050420     2.3317560     0.2174670
units angstrom
no_reorient  #important for SAPT in psi4, default
symmetry c1  #important for SAPT in psi4, default
}

set PROPERTIES_ORIGIN ["COM"]
properties('MP2/aug-cc-pvtz', properties = ['dipole'])
--------------------------------------------------------------------------

    Molecular point group: c1
  Charge       = 0
  Multiplicity = 1
  Basis Set: AUG-CC-PVTZ
    Blend: AUG-CC-PVTZ
  Basis Set: (AUG-CC-PVTZ AUX)
    Blend: AUG-CC-PVTZ-JKFIT

    Orbital Energies [Eh]
    ---------------------

    Doubly Occupied:

       1A    -91.961890     2A    -11.268672     3A    -11.267198
       4A    -11.240894     5A    -11.240225     6A    -11.238052
       7A     -8.962408     8A     -6.643650     9A     -6.642702
      10A     -6.641843    11A     -1.143699    12A     -1.028137
      13A     -1.019108    14A     -0.860379    15A     -0.816079
      16A     -0.691636    17A     -0.680516    18A     -0.608410
      19A     -0.601712    20A     -0.586000    21A     -0.528926
      22A     -0.484670    23A     -0.463343    24A     -0.451318
      25A     -0.365507    26A     -0.299273

  @DF-RHF Final Energy:  -590.40547663051427

   => Energetics <=

    Nuclear Repulsion Energy =            272.6193992015354297
    One-Electron Energy =               -1350.5772565154275071
    Two-Electron Energy =                 487.5523806833776348
    Total Energy =                       -590.4054766305143858
  Basis Set: (AUG-CC-PVTZ AUX)
    Blend: AUG-CC-PVTZ-RI
    Molecular point group: c1

    Geometry (in Angstrom), charge = 0, multiplicity = 1:

       Center              X                  Y                   Z               Mass
    ------------   -----------------  -----------------  -----------------  -----------------
         S            1.359867364097     0.022439019177    -0.213765990799    31.972071174400
         C            0.302069364097    -1.300179980823     0.443468009201    12.000000000000
         C           -1.078533635903    -1.207443980823    -0.139660990799    12.000000000000
         C           -1.706979435903    -0.035572380823    -0.160742090799    12.000000000000
         C           -1.069277635903     1.222090019177     0.188356009201    12.000000000000
         C            0.278882364097     1.355732019177     0.125020009201    12.000000000000
         H            0.277309364097    -1.213433980823     1.537130009201     1.007825032230
         H            0.789076364097    -2.243367980823     0.184863009201     1.007825032230
         H           -1.562434635903    -2.118084980823    -0.484007990799     1.007825032230
         H           -2.756037635903     0.023907019177    -0.515474990799     1.007825032230
         H           -1.670189635903     2.104518019177     0.393710009201     1.007825032230
         H            0.763113364097     2.322328019177     0.230492009201     1.007825032230

  Basis Set: AUG-CC-PVTZ
    Blend: AUG-CC-PVTZ
  Basis Set: (AUG-CC-PVTZ AUX)
    Blend: AUG-CC-PVTZ-JKFIT
	 Reference Energy          =    -590.4054766305142721 [Eh]
	 Singles Energy            =      -0.0000000000000000 [Eh]
	 Same-Spin Energy          =      -0.2676004061633718 [Eh]
	 Opposite-Spin Energy      =      -0.8621286302583242 [Eh]
	 Correlation Energy        =      -1.1297290364216961 [Eh]
	 Total Energy              =    -591.5352056669360081 [Eh]

	 ================> DF-SCS-MP2 Energies <==================
	-----------------------------------------------------------
	 SCS Same-Spin Scale       =       0.3333333333333333 [-]
	 SCS Opposite-Spin Scale   =       1.2000000000000000 [-]
	 SCS Same-Spin Energy      =      -0.0892001353877906 [Eh]
	 SCS Opposite-Spin Energy  =      -1.0345543563099890 [Eh]
	 SCS Correlation Energy    =      -1.1237544916977797 [Eh]
	 SCS Total Energy          =    -591.5292311222120816 [Eh]
	-----------------------------------------------------------

  Dipole Moment: [D]
     X:    -0.8619      Y:    -0.3538      Z:     0.5030     Total:     1.0588

*** Psi4 exiting successfully. Buy a developer a beer!
