                               Psi4 1.3.2 release

  ==> Input File <==

--------------------------------------------------------------------------
#psi4
#
memory 32 gb

molecule  {
0 1
  S        1.4017960     0.0318670    -0.2267910
  C        0.3439980    -1.2907520     0.4304430
  C       -1.0366050    -1.1980160    -0.1526860
  C       -1.6877140    -0.0149620    -0.1717330
  C       -1.0273490     1.2315180     0.1753310
  C        0.5196184     1.3848676     0.1026551
  H        0.3192380    -1.2040060     1.5241050
  H        0.8310050    -2.2339400     0.1718380
  H       -1.5205060    -2.1086570    -0.4970330
  H       -2.7141090     0.0333350    -0.5285000
  H       -1.6282610     2.1139460     0.3806850
  H        0.8050420     2.3317560     0.2174670
units angstrom
no_reorient  #important for SAPT in psi4, default
symmetry c1  #important for SAPT in psi4, default
}

set PROPERTIES_ORIGIN ["COM"]
properties('MP2/aug-cc-pvtz', properties = ['dipole'])
--------------------------------------------------------------------------

    Molecular point group: c1
  Charge       = 0
  Multiplicity = 1
  Basis Set: AUG-CC-PVTZ
    Blend: AUG-CC-PVTZ
  Basis Set: (AUG-CC-PVTZ AUX)
    Blend: AUG-CC-PVTZ-JKFIT

    Orbital Energies [Eh]
    ---------------------

    Doubly Occupied:

       1A    -91.971512     2A    -11.282745     3A    -11.273160
       4A    -11.258393     5A    -11.241752     6A    -11.240092
       7A     -8.973482     8A     -6.654948     9A     -6.653838
      10A     -6.653084    11A     -1.139593    12A     -1.039884
      13A     -1.004503    14A     -0.857620    15A     -0.826740
      16A     -0.702420    17A     -0.678810    18A     -0.607410
      19A     -0.599710    20A     -0.580437    21A     -0.537731
      22A     -0.512373    23A     -0.461754    24A     -0.433702
      25A     -0.371491    26A     -0.269433

  @DF-RHF Final Energy:  -590.35330307861409

   => Energetics <=

    Nuclear Repulsion Energy =            271.4159981551268856
    One-Electron Energy =               -1347.8853708945302969
    Two-Electron Energy =                 486.1160696607892646
    Total Energy =                       -590.3533030786140898
  Basis Set: (AUG-CC-PVTZ AUX)
    Blend: AUG-CC-PVTZ-RI
    Molecular point group: c1

    Geometry (in Angstrom), charge = 0, multiplicity = 1:

       Center              X                  Y                   Z               Mass
    ------------   -----------------  -----------------  -----------------  -----------------
         S            1.338302872119     0.018657304211    -0.212871576646    31.972071174400
         C            0.280504872119    -1.303961695789     0.444362423354    12.000000000000
         C           -1.100098127881    -1.211225695789    -0.138766576646    12.000000000000
         C           -1.751207127881    -0.028171695789    -0.157813576646    12.000000000000
         C           -1.090842127881     1.218308304211     0.189250423354    12.000000000000
         C            0.456125272119     1.371657904211     0.116574523354    12.000000000000
         H            0.255744872119    -1.217215695789     1.538024423354     1.007825032230
         H            0.767511872119    -2.247149695789     0.185757423354     1.007825032230
         H           -1.583999127881    -2.121866695789    -0.483113576646     1.007825032230
         H           -2.777602127881     0.020125304211    -0.514580576646     1.007825032230
         H           -1.691754127881     2.100736304211     0.394604423354     1.007825032230
         H            0.741548872119     2.318546304211     0.231386423354     1.007825032230

  Basis Set: AUG-CC-PVTZ
    Blend: AUG-CC-PVTZ
  Basis Set: (AUG-CC-PVTZ AUX)
    Blend: AUG-CC-PVTZ-JKFIT
	 Reference Energy          =    -590.3533030786140898 [Eh]
	 Singles Energy            =      -0.0000000000000000 [Eh]
	 Same-Spin Energy          =      -0.2732509284594505 [Eh]
	 Opposite-Spin Energy      =      -0.8709027363626213 [Eh]
	 Correlation Energy        =      -1.1441536648220718 [Eh]
	 Total Energy              =    -591.4974567434361461 [Eh]

	 ================> DF-SCS-MP2 Energies <==================
	-----------------------------------------------------------
	 SCS Same-Spin Scale       =       0.3333333333333333 [-]
	 SCS Opposite-Spin Scale   =       1.2000000000000000 [-]
	 SCS Same-Spin Energy      =      -0.0910836428198168 [Eh]
	 SCS Opposite-Spin Energy  =      -1.0450832836351456 [Eh]
	 SCS Correlation Energy    =      -1.1361669264549623 [Eh]
	 SCS Total Energy          =    -591.4894700050690517 [Eh]
	-----------------------------------------------------------

  Dipole Moment: [D]
     X:    -0.5906      Y:    -0.5260      Z:     0.4698     Total:     0.9199

*** Psi4 exiting successfully. Buy a developer a beer!
