                               Psi4 1.3.2 release

  ==> Input File <==

--------------------------------------------------------------------------
#psi4
#
memory 32 gb

molecule  {
0 1
  S        1.4017960     0.0318670    -0.2267910
  C        0.3439980    -1.2907520     0.4304430
  C       -1.0366050    -1.1980160    -0.1526860
  C       -1.6877140    -0.0149620    -0.1717330
  C       -1.0064823     1.2184942     0.1814763
  C        0.3208110     1.3651600     0.1119950
  H        0.3192380    -1.2040060     1.5241050
  H        0.8310050    -2.2339400     0.1718380
  H       -1.5205060    -2.1086570    -0.4970330
  H       -2.7141090     0.0333350    -0.5285000
  H       -1.6282610     2.1139460     0.3806850
  H        0.8050420     2.3317560     0.2174670
units angstrom
no_reorient  #important for SAPT in psi4, default
symmetry c1  #important for SAPT in psi4, default
}

set PROPERTIES_ORIGIN ["COM"]
properties('MP2/aug-cc-pvtz', properties = ['dipole'])
--------------------------------------------------------------------------

    Molecular point group: c1
  Charge       = 0
  Multiplicity = 1
  Basis Set: AUG-CC-PVTZ
    Blend: AUG-CC-PVTZ
  Basis Set: (AUG-CC-PVTZ AUX)
    Blend: AUG-CC-PVTZ-JKFIT

    Orbital Energies [Eh]
    ---------------------

    Doubly Occupied:

       1A    -91.960895     2A    -11.267757     3A    -11.265770
       4A    -11.243772     5A    -11.240414     6A    -11.239348
       7A     -8.961492     8A     -6.642731     9A     -6.641799
      10A     -6.640920    11A     -1.143692    12A     -1.028840
      13A     -1.018429    14A     -0.859501    15A     -0.816910
      16A     -0.695645    17A     -0.677082    18A     -0.610310
      19A     -0.598597    20A     -0.584047    21A     -0.536228
      22A     -0.481366    23A     -0.462860    24A     -0.452100
      25A     -0.363661    26A     -0.299662

  @DF-RHF Final Energy:  -590.40547683328839

   => Energetics <=

    Nuclear Repulsion Energy =            272.6116046407161662
    One-Electron Energy =               -1350.5665067189777346
    Two-Electron Energy =                 487.5494252449730652
    Total Energy =                       -590.4054768332885033
  Basis Set: (AUG-CC-PVTZ AUX)
    Blend: AUG-CC-PVTZ-RI
    Molecular point group: c1

    Geometry (in Angstrom), charge = 0, multiplicity = 1:

       Center              X                  Y                   Z               Mass
    ------------   -----------------  -----------------  -----------------  -----------------
         S            1.360087301000     0.022664452972    -0.214767355622    31.972071174400
         C            0.302289301000    -1.299954547028     0.442466644378    12.000000000000
         C           -1.078313699000    -1.207218547028    -0.140662355622    12.000000000000
         C           -1.729422699000    -0.024164547028    -0.159709355622    12.000000000000
         C           -1.048190999000     1.209291652972     0.193499944378    12.000000000000
         C            0.279102301000     1.355957452972     0.124018644378    12.000000000000
         H            0.277529301000    -1.213208547028     1.536128644378     1.007825032230
         H            0.789296301000    -2.243142547028     0.183861644378     1.007825032230
         H           -1.562214699000    -2.117859547028    -0.485009355622     1.007825032230
         H           -2.755817699000     0.024132452972    -0.516476355622     1.007825032230
         H           -1.669969699000     2.104743452972     0.392708644378     1.007825032230
         H            0.763333301000     2.322553452972     0.229490644378     1.007825032230

  Basis Set: AUG-CC-PVTZ
    Blend: AUG-CC-PVTZ
  Basis Set: (AUG-CC-PVTZ AUX)
    Blend: AUG-CC-PVTZ-JKFIT
	 Reference Energy          =    -590.4054768332883896 [Eh]
	 Singles Energy            =      -0.0000000000000000 [Eh]
	 Same-Spin Energy          =      -0.2676020054106407 [Eh]
	 Opposite-Spin Energy      =      -0.8621576009894574 [Eh]
	 Correlation Energy        =      -1.1297596064000981 [Eh]
	 Total Energy              =    -591.5352364396884468 [Eh]

	 ================> DF-SCS-MP2 Energies <==================
	-----------------------------------------------------------
	 SCS Same-Spin Scale       =       0.3333333333333333 [-]
	 SCS Opposite-Spin Scale   =       1.2000000000000000 [-]
	 SCS Same-Spin Energy      =      -0.0892006684702136 [Eh]
	 SCS Opposite-Spin Energy  =      -1.0345891211873488 [Eh]
	 SCS Correlation Energy    =      -1.1237897896575624 [Eh]
	 SCS Total Energy          =    -591.5292666229458973 [Eh]
	-----------------------------------------------------------

  Dipole Moment: [D]
     X:    -0.8880      Y:    -0.3570      Z:     0.4875     Total:     1.0741

*** Psi4 exiting successfully. Buy a developer a beer!
