                               Psi4 1.3.2 release

  ==> Input File <==

--------------------------------------------------------------------------
#psi4
#
memory 32 gb

molecule  {
0 1
  S        1.4017960     0.0318670    -0.2267910
  C        0.3439980    -1.2907520     0.4304430
  C       -0.9987633    -1.1759694    -0.1352469
  C       -1.6877140    -0.0149620    -0.1717330
  C       -1.0273490     1.2315180     0.1753310
  C        0.3208110     1.3651600     0.1119950
  H        0.3192380    -1.2040060     1.5241050
  H        0.8310050    -2.2339400     0.1718380
  H       -1.5205060    -2.1086570    -0.4970330
  H       -2.7141090     0.0333350    -0.5285000
  H       -1.6282610     2.1139460     0.3806850
  H        0.8050420     2.3317560     0.2174670
units angstrom
no_reorient  #important for SAPT in psi4, default
symmetry c1  #important for SAPT in psi4, default
}

set PROPERTIES_ORIGIN ["COM"]
properties('MP2/aug-cc-pvtz', properties = ['dipole'])
--------------------------------------------------------------------------

    Molecular point group: c1
  Charge       = 0
  Multiplicity = 1
  Basis Set: AUG-CC-PVTZ
    Blend: AUG-CC-PVTZ
  Basis Set: (AUG-CC-PVTZ AUX)
    Blend: AUG-CC-PVTZ-JKFIT

    Orbital Energies [Eh]
    ---------------------

    Doubly Occupied:

       1A    -91.962020     2A    -11.267759     3A    -11.266826
       4A    -11.245164     5A    -11.240394     6A    -11.238996
       7A     -8.962598     8A     -6.643820     9A     -6.642899
      10A     -6.642016    11A     -1.145767    12A     -1.029975
      13A     -1.018992    14A     -0.861706    15A     -0.814262
      16A     -0.696742    17A     -0.674890    18A     -0.612598
      19A     -0.602664    20A     -0.578952    21A     -0.542934
      22A     -0.478137    23A     -0.464187    24A     -0.451471
      25A     -0.363038    26A     -0.297009

  @DF-RHF Final Energy:  -590.40226869313881

   => Energetics <=

    Nuclear Repulsion Energy =            272.9489815280309699
    One-Electron Energy =               -1351.2108627815198361
    Two-Electron Energy =                 487.8596125603500013
    Total Energy =                       -590.4022686931388080
  Basis Set: (AUG-CC-PVTZ AUX)
    Blend: AUG-CC-PVTZ-RI
    Molecular point group: c1

    Geometry (in Angstrom), charge = 0, multiplicity = 1:

       Center              X                  Y                   Z               Mass
    ------------   -----------------  -----------------  -----------------  -----------------
         S            1.358009132935     0.018370951628    -0.216150001543    31.972071174400
         C            0.300211132935    -1.304248048372     0.441083998457    12.000000000000
         C           -1.042550167065    -1.189465448372    -0.124605901543    12.000000000000
         C           -1.731500867065    -0.028458048372    -0.161092001543    12.000000000000
         C           -1.071135867065     1.218021951628     0.185971998457    12.000000000000
         C            0.277024132935     1.351663951628     0.122635998457    12.000000000000
         H            0.275451132935    -1.217502048372     1.534745998457     1.007825032230
         H            0.787218132935    -2.247436048372     0.182478998457     1.007825032230
         H           -1.564292867065    -2.122153048372    -0.486392001543     1.007825032230
         H           -2.757895867065     0.019838951628    -0.517859001543     1.007825032230
         H           -1.672047867065     2.100449951628     0.391325998457     1.007825032230
         H            0.761255132935     2.318259951628     0.228107998457     1.007825032230

  Basis Set: AUG-CC-PVTZ
    Blend: AUG-CC-PVTZ
  Basis Set: (AUG-CC-PVTZ AUX)
    Blend: AUG-CC-PVTZ-JKFIT
	 Reference Energy          =    -590.4022686931388080 [Eh]
	 Singles Energy            =      -0.0000000000000000 [Eh]
	 Same-Spin Energy          =      -0.2683401336018389 [Eh]
	 Opposite-Spin Energy      =      -0.8630774521675617 [Eh]
	 Correlation Energy        =      -1.1314175857694007 [Eh]
	 Total Energy              =    -591.5336862789082488 [Eh]

	 ================> DF-SCS-MP2 Energies <==================
	-----------------------------------------------------------
	 SCS Same-Spin Scale       =       0.3333333333333333 [-]
	 SCS Opposite-Spin Scale   =       1.2000000000000000 [-]
	 SCS Same-Spin Energy      =      -0.0894467112006130 [Eh]
	 SCS Opposite-Spin Energy  =      -1.0356929426010739 [Eh]
	 SCS Correlation Energy    =      -1.1251396538016869 [Eh]
	 SCS Total Energy          =    -591.5274083469405468 [Eh]
	-----------------------------------------------------------

  Dipole Moment: [D]
     X:    -0.8479      Y:    -0.3542      Z:     0.5091     Total:     1.0505

*** Psi4 exiting successfully. Buy a developer a beer!
