                               Psi4 1.3.2 release

  ==> Input File <==

--------------------------------------------------------------------------
#psi4
#
memory 32 gb

molecule  {
0 1
  S        1.4017960     0.0318670    -0.2267910
  C        0.3439980    -1.2907520     0.4304430
  C       -1.0366050    -1.1980160    -0.1526860
  C       -1.8192315     0.0599785    -0.1573325
  C       -1.0273490     1.2315180     0.1753310
  C        0.3208110     1.3651600     0.1119950
  H        0.3192380    -1.2040060     1.5241050
  H        0.8310050    -2.2339400     0.1718380
  H       -1.5205060    -2.1086570    -0.4970330
  H       -2.7141090     0.0333350    -0.5285000
  H       -1.6282610     2.1139460     0.3806850
  H        0.8050420     2.3317560     0.2174670
units angstrom
no_reorient  #important for SAPT in psi4, default
symmetry c1  #important for SAPT in psi4, default
}

set PROPERTIES_ORIGIN ["COM"]
properties('MP2/aug-cc-pvtz', properties = ['dipole'])
--------------------------------------------------------------------------

    Molecular point group: c1
  Charge       = 0
  Multiplicity = 1
  Basis Set: AUG-CC-PVTZ
    Blend: AUG-CC-PVTZ
  Basis Set: (AUG-CC-PVTZ AUX)
    Blend: AUG-CC-PVTZ-JKFIT

    Orbital Energies [Eh]
    ---------------------

    Doubly Occupied:

       1A    -91.963561     2A    -11.272402     3A    -11.268894
       4A    -11.265013     5A    -11.247273     6A    -11.243655
       7A     -8.963973     8A     -6.645195     9A     -6.644267
      10A     -6.643397    11A     -1.133061    12A     -1.026723
      13A     -1.011634    14A     -0.861237    15A     -0.820077
      16A     -0.716047    17A     -0.675427    18A     -0.617192
      19A     -0.594978    20A     -0.567339    21A     -0.562859
      22A     -0.476616    23A     -0.461791    24A     -0.446447
      25A     -0.356228    26A     -0.287415

  @DF-RHF Final Energy:  -590.36878196241935

   => Energetics <=

    Nuclear Repulsion Energy =            269.9039454582110125
    One-Electron Energy =               -1345.0000526188334788
    Two-Electron Energy =                 484.7273251982031184
    Total Energy =                       -590.3687819624194617
  Basis Set: (AUG-CC-PVTZ AUX)
    Blend: AUG-CC-PVTZ-RI
    Molecular point group: c1

    Geometry (in Angstrom), charge = 0, multiplicity = 1:

       Center              X                  Y                   Z               Mass
    ------------   -----------------  -----------------  -----------------  -----------------
         S            1.378742969813     0.011895404422    -0.215778000277    31.972071174400
         C            0.320944969813    -1.310723595578     0.441455999723    12.000000000000
         C           -1.059658030187    -1.217987595578    -0.141673000277    12.000000000000
         C           -1.842284530187     0.040006904422    -0.146319500277    12.000000000000
         C           -1.050402030187     1.211546404422     0.186343999723    12.000000000000
         C            0.297757969813     1.345188404422     0.123007999723    12.000000000000
         H            0.296184969813    -1.223977595578     1.535117999723     1.007825032230
         H            0.807951969813    -2.253911595578     0.182850999723     1.007825032230
         H           -1.543559030187    -2.128628595578    -0.486020000277     1.007825032230
         H           -2.737162030187     0.013363404422    -0.517487000277     1.007825032230
         H           -1.651314030187     2.093974404422     0.391697999723     1.007825032230
         H            0.781988969813     2.311784404422     0.228479999723     1.007825032230

  Basis Set: AUG-CC-PVTZ
    Blend: AUG-CC-PVTZ
  Basis Set: (AUG-CC-PVTZ AUX)
    Blend: AUG-CC-PVTZ-JKFIT
	 Reference Energy          =    -590.3687819624193480 [Eh]
	 Singles Energy            =      -0.0000000000000000 [Eh]
	 Same-Spin Energy          =      -0.2700152300217526 [Eh]
	 Opposite-Spin Energy      =      -0.8677155151715394 [Eh]
	 Correlation Energy        =      -1.1377307451932921 [Eh]
	 Total Energy              =    -591.5065127076126146 [Eh]

	 ================> DF-SCS-MP2 Energies <==================
	-----------------------------------------------------------
	 SCS Same-Spin Scale       =       0.3333333333333333 [-]
	 SCS Opposite-Spin Scale   =       1.2000000000000000 [-]
	 SCS Same-Spin Energy      =      -0.0900050766739175 [Eh]
	 SCS Opposite-Spin Energy  =      -1.0412586182058472 [Eh]
	 SCS Correlation Energy    =      -1.1312636948797647 [Eh]
	 SCS Total Energy          =    -591.5000456572990970 [Eh]
	-----------------------------------------------------------

  Dipole Moment: [D]
     X:    -0.7902      Y:    -0.3620      Z:     0.4646     Total:     0.9855

*** Psi4 exiting successfully. Buy a developer a beer!
