                               Psi4 1.3.2 release

  ==> Input File <==

--------------------------------------------------------------------------
#psi4
#
memory 32 gb

molecule  {
0 1
  S        1.3532937    -0.0050082    -0.2309239
  C        0.3439980    -1.2907520     0.4304430
  C       -1.0366050    -1.1980160    -0.1526860
  C       -1.6877140    -0.0149620    -0.1717330
  C       -1.0273490     1.2315180     0.1753310
  C        0.3208110     1.3651600     0.1119950
  H        0.3192380    -1.2040060     1.5241050
  H        0.8310050    -2.2339400     0.1718380
  H       -1.5205060    -2.1086570    -0.4970330
  H       -2.7141090     0.0333350    -0.5285000
  H       -1.6282610     2.1139460     0.3806850
  H        0.8050420     2.3317560     0.2174670
units angstrom
no_reorient  #important for SAPT in psi4, default
symmetry c1  #important for SAPT in psi4, default
}

set PROPERTIES_ORIGIN ["COM"]
properties('MP2/aug-cc-pvtz', properties = ['dipole'])
--------------------------------------------------------------------------

    Molecular point group: c1
  Charge       = 0
  Multiplicity = 1
  Basis Set: AUG-CC-PVTZ
    Blend: AUG-CC-PVTZ
  Basis Set: (AUG-CC-PVTZ AUX)
    Blend: AUG-CC-PVTZ-JKFIT

    Orbital Energies [Eh]
    ---------------------

    Doubly Occupied:

       1A    -91.959051     2A    -11.267980     3A    -11.263942
       4A    -11.243757     5A    -11.241229     6A    -11.239007
       7A     -8.960595     8A     -6.641905     9A     -6.640993
      10A     -6.640059    11A     -1.146983    12A     -1.029431
      13A     -1.021913    14A     -0.856829    15A     -0.819444
      16A     -0.695674    17A     -0.680566    18A     -0.609446
      19A     -0.601198    20A     -0.588724    21A     -0.537940
      22A     -0.489433    23A     -0.460747    24A     -0.449438
      25A     -0.360671    26A     -0.298729

  @DF-RHF Final Energy:  -590.40425559872085

   => Energetics <=

    Nuclear Repulsion Energy =            274.0719650101547700
    One-Electron Energy =               -1353.4610706319772362
    Two-Electron Energy =                 488.9848500231015578
    Total Energy =                       -590.4042555987208516
  Basis Set: (AUG-CC-PVTZ AUX)
    Blend: AUG-CC-PVTZ-RI
    Molecular point group: c1

    Geometry (in Angstrom), charge = 0, multiplicity = 1:

       Center              X                  Y                   Z               Mass
    ------------   -----------------  -----------------  -----------------  -----------------
         S            1.329960203717    -0.003777150521    -0.216799837050    31.972071174400
         C            0.320664503717    -1.289520950521     0.444567062950    12.000000000000
         C           -1.059938496283    -1.196784950521    -0.138561937050    12.000000000000
         C           -1.711047496283    -0.013730950521    -0.157608937050    12.000000000000
         C           -1.050682496283     1.232749049479     0.189455062950    12.000000000000
         C            0.297477503717     1.366391049479     0.126119062950    12.000000000000
         H            0.295904503717    -1.202774950521     1.538229062950     1.007825032230
         H            0.807671503717    -2.232708950521     0.185962062950     1.007825032230
         H           -1.543839496283    -2.107425950521    -0.482908937050     1.007825032230
         H           -2.737442496283     0.034566049479    -0.514375937050     1.007825032230
         H           -1.651594496283     2.115177049479     0.394809062950     1.007825032230
         H            0.781708503717     2.332987049479     0.231591062950     1.007825032230

  Basis Set: AUG-CC-PVTZ
    Blend: AUG-CC-PVTZ
  Basis Set: (AUG-CC-PVTZ AUX)
    Blend: AUG-CC-PVTZ-JKFIT
	 Reference Energy          =    -590.4042555987208516 [Eh]
	 Singles Energy            =      -0.0000000000000000 [Eh]
	 Same-Spin Energy          =      -0.2683130542212295 [Eh]
	 Opposite-Spin Energy      =      -0.8625148541860230 [Eh]
	 Correlation Energy        =      -1.1308279084072526 [Eh]
	 Total Energy              =    -591.5350835071280926 [Eh]

	 ================> DF-SCS-MP2 Energies <==================
	-----------------------------------------------------------
	 SCS Same-Spin Scale       =       0.3333333333333333 [-]
	 SCS Opposite-Spin Scale   =       1.2000000000000000 [-]
	 SCS Same-Spin Energy      =      -0.0894376847404098 [Eh]
	 SCS Opposite-Spin Energy  =      -1.0350178250232276 [Eh]
	 SCS Correlation Energy    =      -1.1244555097636375 [Eh]
	 SCS Total Energy          =    -591.5287111084844582 [Eh]
	-----------------------------------------------------------

  Dipole Moment: [D]
     X:    -0.8631      Y:    -0.3453      Z:     0.5068     Total:     1.0588

*** Psi4 exiting successfully. Buy a developer a beer!
