                               Psi4 1.3.2 release

  ==> Input File <==

--------------------------------------------------------------------------
#psi4
#
memory 32 gb

molecule  {
0 1
  S        1.4017960     0.0318670    -0.2267910
  C        0.3436893    -1.3166536     0.4264658
  C       -1.0366050    -1.1980160    -0.1526860
  C       -1.6877140    -0.0149620    -0.1717330
  C       -1.0273490     1.2315180     0.1753310
  C        0.3208110     1.3651600     0.1119950
  H        0.3192380    -1.2040060     1.5241050
  H        0.8310050    -2.2339400     0.1718380
  H       -1.5205060    -2.1086570    -0.4970330
  H       -2.7141090     0.0333350    -0.5285000
  H       -1.6282610     2.1139460     0.3806850
  H        0.8050420     2.3317560     0.2174670
units angstrom
no_reorient  #important for SAPT in psi4, default
symmetry c1  #important for SAPT in psi4, default
}

set PROPERTIES_ORIGIN ["COM"]
properties('MP2/aug-cc-pvtz', properties = ['dipole'])
--------------------------------------------------------------------------

    Molecular point group: c1
  Charge       = 0
  Multiplicity = 1
  Basis Set: AUG-CC-PVTZ
    Blend: AUG-CC-PVTZ
  Basis Set: (AUG-CC-PVTZ AUX)
    Blend: AUG-CC-PVTZ-JKFIT

    Orbital Energies [Eh]
    ---------------------

    Doubly Occupied:

       1A    -91.961686     2A    -11.268880     3A    -11.268180
       4A    -11.243922     5A    -11.240910     6A    -11.239751
       7A     -8.961992     8A     -6.643209     9A     -6.642286
      10A     -6.641435    11A     -1.140410    12A     -1.027093
      13A     -1.017567    14A     -0.861423    15A     -0.816607
      16A     -0.695202    17A     -0.679471    18A     -0.612213
      19A     -0.599794    20A     -0.583333    21A     -0.536446
      22A     -0.483557    23A     -0.462365    24A     -0.450255
      25A     -0.363397    26A     -0.297110

  @DF-RHF Final Energy:  -590.40517719916772

   => Energetics <=

    Nuclear Repulsion Energy =            271.8204853057086439
    One-Electron Energy =               -1348.9743335705970821
    Two-Electron Energy =                 486.7486710657207141
    Total Energy =                       -590.4051771991677242
  Basis Set: (AUG-CC-PVTZ AUX)
    Blend: AUG-CC-PVTZ-RI
    Molecular point group: c1

    Geometry (in Angstrom), charge = 0, multiplicity = 1:

       Center              X                  Y                   Z               Mass
    ------------   -----------------  -----------------  -----------------  -----------------
         S            1.362679703949     0.024241020437    -0.213528106359    31.972071174400
         C            0.304573003949    -1.324279579563     0.439728693641    12.000000000000
         C           -1.075721296051    -1.205641979563    -0.139423106359    12.000000000000
         C           -1.726830296051    -0.022587979563    -0.158470106359    12.000000000000
         C           -1.066465296051     1.223892020437     0.188593893641    12.000000000000
         C            0.281694703949     1.357534020437     0.125257893641    12.000000000000
         H            0.280121703949    -1.211631979563     1.537367893641     1.007825032230
         H            0.791888703949    -2.241565979563     0.185100893641     1.007825032230
         H           -1.559622296051    -2.116282979563    -0.483770106359     1.007825032230
         H           -2.753225296051     0.025709020437    -0.515237106359     1.007825032230
         H           -1.667377296051     2.106320020437     0.393947893641     1.007825032230
         H            0.765925703949     2.324130020437     0.230729893641     1.007825032230

  Basis Set: AUG-CC-PVTZ
    Blend: AUG-CC-PVTZ
  Basis Set: (AUG-CC-PVTZ AUX)
    Blend: AUG-CC-PVTZ-JKFIT
	 Reference Energy          =    -590.4051771991677242 [Eh]
	 Singles Energy            =      -0.0000000000000000 [Eh]
	 Same-Spin Energy          =      -0.2676626188761186 [Eh]
	 Opposite-Spin Energy      =      -0.8624626512647016 [Eh]
	 Correlation Energy        =      -1.1301252701408202 [Eh]
	 Total Energy              =    -591.5353024693085899 [Eh]

	 ================> DF-SCS-MP2 Energies <==================
	-----------------------------------------------------------
	 SCS Same-Spin Scale       =       0.3333333333333333 [-]
	 SCS Opposite-Spin Scale   =       1.2000000000000000 [-]
	 SCS Same-Spin Energy      =      -0.0892208729587062 [Eh]
	 SCS Opposite-Spin Energy  =      -1.0349551815176419 [Eh]
	 SCS Correlation Energy    =      -1.1241760544763482 [Eh]
	 SCS Total Energy          =    -591.5293532536441035 [Eh]
	-----------------------------------------------------------

  Dipole Moment: [D]
     X:    -0.8662      Y:    -0.3783      Z:     0.5035     Total:     1.0709

*** Psi4 exiting successfully. Buy a developer a beer!
