                               Psi4 1.3.2 release

  ==> Input File <==

--------------------------------------------------------------------------
#psi4
#
memory 32 gb

molecule  {
0 1
  S        1.2534519    -0.0755067    -0.2280566
  C        0.3439980    -1.2907520     0.4304430
  C       -1.0366050    -1.1980160    -0.1526860
  C       -1.6877140    -0.0149620    -0.1717330
  C       -1.0273490     1.2315180     0.1753310
  C        0.3208110     1.3651600     0.1119950
  H        0.3192380    -1.2040060     1.5241050
  H        0.8310050    -2.2339400     0.1718380
  H       -1.5205060    -2.1086570    -0.4970330
  H       -2.7141090     0.0333350    -0.5285000
  H       -1.6282610     2.1139460     0.3806850
  H        0.8050420     2.3317560     0.2174670
units angstrom
no_reorient  #important for SAPT in psi4, default
symmetry c1  #important for SAPT in psi4, default
}

set PROPERTIES_ORIGIN ["COM"]
properties('MP2/aug-cc-pvtz', properties = ['dipole'])
--------------------------------------------------------------------------

    Molecular point group: c1
  Charge       = 0
  Multiplicity = 1
  Basis Set: AUG-CC-PVTZ
    Blend: AUG-CC-PVTZ
  Basis Set: (AUG-CC-PVTZ AUX)
    Blend: AUG-CC-PVTZ-JKFIT

    Orbital Energies [Eh]
    ---------------------

    Doubly Occupied:

       1A    -91.951501     2A    -11.266641     3A    -11.256228
       4A    -11.244658     5A    -11.241448     6A    -11.238566
       7A     -8.955906     8A     -6.637484     9A     -6.636397
      10A     -6.635332    11A     -1.161832    12A     -1.043257
      13A     -1.021745    14A     -0.851069    15A     -0.824200
      16A     -0.699741    17A     -0.682140    18A     -0.611896
      19A     -0.605851    20A     -0.598543    21A     -0.545249
      22A     -0.499822    23A     -0.456783    24A     -0.443047
      25A     -0.352393    26A     -0.300650

  @DF-RHF Final Energy:  -590.38957697819342

   => Energetics <=

    Nuclear Repulsion Energy =            278.1700866567299499
    One-Electron Energy =               -1361.5945654914219176
    Two-Electron Energy =                 493.0349018564984362
    Total Energy =                       -590.3895769781934177
  Basis Set: (AUG-CC-PVTZ AUX)
    Blend: AUG-CC-PVTZ-RI
    Molecular point group: c1

    Geometry (in Angstrom), charge = 0, multiplicity = 1:

       Center              X                  Y                   Z               Mass
    ------------   -----------------  -----------------  -----------------  -----------------
         S            1.262685033043    -0.051280286680    -0.214867799598    31.972071174400
         C            0.353231133043    -1.266525586680     0.443631800402    12.000000000000
         C           -1.027371866957    -1.173789586680    -0.139497199598    12.000000000000
         C           -1.678480866957     0.009264413320    -0.158544199598    12.000000000000
         C           -1.018115866957     1.255744413320     0.188519800402    12.000000000000
         C            0.330044133043     1.389386413320     0.125183800402    12.000000000000
         H            0.328471133043    -1.179779586680     1.537293800402     1.007825032230
         H            0.840238133043    -2.209713586680     0.185026800402     1.007825032230
         H           -1.511272866957    -2.084430586680    -0.483844199598     1.007825032230
         H           -2.704875866957     0.057561413320    -0.515311199598     1.007825032230
         H           -1.619027866957     2.138172413320     0.393873800402     1.007825032230
         H            0.814275133043     2.355982413320     0.230655800402     1.007825032230

  Basis Set: AUG-CC-PVTZ
    Blend: AUG-CC-PVTZ
  Basis Set: (AUG-CC-PVTZ AUX)
    Blend: AUG-CC-PVTZ-JKFIT
	 Reference Energy          =    -590.3895769781934177 [Eh]
	 Singles Energy            =      -0.0000000000000000 [Eh]
	 Same-Spin Energy          =      -0.2699304492462846 [Eh]
	 Opposite-Spin Energy      =      -0.8630891002598426 [Eh]
	 Correlation Energy        =      -1.1330195495061273 [Eh]
	 Total Energy              =    -591.5225965276995339 [Eh]

	 ================> DF-SCS-MP2 Energies <==================
	-----------------------------------------------------------
	 SCS Same-Spin Scale       =       0.3333333333333333 [-]
	 SCS Opposite-Spin Scale   =       1.2000000000000000 [-]
	 SCS Same-Spin Energy      =      -0.0899768164154282 [Eh]
	 SCS Opposite-Spin Energy  =      -1.0357069203118112 [Eh]
	 SCS Correlation Energy    =      -1.1256837367272394 [Eh]
	 SCS Total Energy          =    -591.5152607149206005 [Eh]
	-----------------------------------------------------------

  Dipole Moment: [D]
     X:    -0.8848      Y:    -0.3494      Z:     0.5351     Total:     1.0915

*** Psi4 exiting successfully. Buy a developer a beer!
