                               Psi4 1.3.2 release

  ==> Input File <==

--------------------------------------------------------------------------
#psi4
#
memory 32 gb

molecule  {
0 1
  S        1.4017960     0.0318670    -0.2267910
  C        0.3439980    -1.2907520     0.4304430
  C       -1.0366050    -1.1980160    -0.1526860
  C       -1.6877140    -0.0149620    -0.1717330
  C       -1.0696794     1.2564226     0.1627251
  C        0.3208110     1.3651600     0.1119950
  H        0.3192380    -1.2040060     1.5241050
  H        0.8310050    -2.2339400     0.1718380
  H       -1.5205060    -2.1086570    -0.4970330
  H       -2.7141090     0.0333350    -0.5285000
  H       -1.6282610     2.1139460     0.3806850
  H        0.8050420     2.3317560     0.2174670
units angstrom
no_reorient  #important for SAPT in psi4, default
symmetry c1  #important for SAPT in psi4, default
}

set PROPERTIES_ORIGIN ["COM"]
properties('MP2/aug-cc-pvtz', properties = ['dipole'])
--------------------------------------------------------------------------

    Molecular point group: c1
  Charge       = 0
  Multiplicity = 1
  Basis Set: AUG-CC-PVTZ
    Blend: AUG-CC-PVTZ
  Basis Set: (AUG-CC-PVTZ AUX)
    Blend: AUG-CC-PVTZ-JKFIT

    Orbital Energies [Eh]
    ---------------------

    Doubly Occupied:

       1A    -91.964506     2A    -11.274750     3A    -11.268092
       4A    -11.243006     5A    -11.242559     6A    -11.239654
       7A     -8.964824     8A     -6.646059     9A     -6.645093
      10A     -6.644267    11A     -1.138191    12A     -1.022053
      13A     -1.020073    14A     -0.860688    15A     -0.817016
      16A     -0.691449    17A     -0.687241    18A     -0.611265
      19A     -0.597908    20A     -0.583529    21A     -0.532072
      22A     -0.489102    23A     -0.464087    24A     -0.446642
      25A     -0.364543    26A     -0.293762

  @DF-RHF Final Energy:  -590.40057274244521

   => Energetics <=

    Nuclear Repulsion Energy =            271.4122346056038850
    One-Electron Energy =               -1348.1207513514732454
    Two-Electron Energy =                 486.3079440034242680
    Total Energy =                       -590.4005727424452061
  Basis Set: (AUG-CC-PVTZ AUX)
    Blend: AUG-CC-PVTZ-RI
    Molecular point group: c1

    Geometry (in Angstrom), charge = 0, multiplicity = 1:

       Center              X                  Y                   Z               Mass
    ------------   -----------------  -----------------  -----------------  -----------------
         S            1.367824219707     0.018021060357    -0.212471735886    31.972071174400
         C            0.310026219707    -1.304597939643     0.444762264114    12.000000000000
         C           -1.070576780293    -1.211861939643    -0.138366735886    12.000000000000
         C           -1.721685780293    -0.028807939643    -0.157413735886    12.000000000000
         C           -1.103651180293     1.242576660357     0.177044364114    12.000000000000
         C            0.286839219707     1.351314060357     0.126314264114    12.000000000000
         H            0.285266219707    -1.217851939643     1.538424264114     1.007825032230
         H            0.797033219707    -2.247785939643     0.186157264114     1.007825032230
         H           -1.554477780293    -2.122502939643    -0.482713735886     1.007825032230
         H           -2.748080780293     0.019489060357    -0.514180735886     1.007825032230
         H           -1.662232780293     2.100100060357     0.395004264114     1.007825032230
         H            0.771070219707     2.317910060357     0.231786264114     1.007825032230

  Basis Set: AUG-CC-PVTZ
    Blend: AUG-CC-PVTZ
  Basis Set: (AUG-CC-PVTZ AUX)
    Blend: AUG-CC-PVTZ-JKFIT
	 Reference Energy          =    -590.4005727424452061 [Eh]
	 Singles Energy            =      -0.0000000000000000 [Eh]
	 Same-Spin Energy          =      -0.2683476608448790 [Eh]
	 Opposite-Spin Energy      =      -0.8637912018726845 [Eh]
	 Correlation Energy        =      -1.1321388627175635 [Eh]
	 Total Energy              =    -591.5327116051627172 [Eh]

	 ================> DF-SCS-MP2 Energies <==================
	-----------------------------------------------------------
	 SCS Same-Spin Scale       =       0.3333333333333333 [-]
	 SCS Opposite-Spin Scale   =       1.2000000000000000 [-]
	 SCS Same-Spin Energy      =      -0.0894492202816263 [Eh]
	 SCS Opposite-Spin Energy  =      -1.0365494422472215 [Eh]
	 SCS Correlation Energy    =      -1.1259986625288478 [Eh]
	 SCS Total Energy          =    -591.5265714049741064 [Eh]
	-----------------------------------------------------------

  Dipole Moment: [D]
     X:    -0.7994      Y:    -0.3647      Z:     0.5107     Total:     1.0163

*** Psi4 exiting successfully. Buy a developer a beer!
