                               Psi4 1.3.2 release

  ==> Input File <==

--------------------------------------------------------------------------
#psi4
#
memory 32 gb

molecule  {
0 1
  S        1.4017960     0.0318670    -0.2267910
  C        0.3439980    -1.2907520     0.4304430
  C       -1.0366050    -1.1980160    -0.1526860
  C       -1.5912910    -0.1901609    -0.1689123
  C       -1.0273490     1.2315180     0.1753310
  C        0.3208110     1.3651600     0.1119950
  H        0.3192380    -1.2040060     1.5241050
  H        0.8310050    -2.2339400     0.1718380
  H       -1.5205060    -2.1086570    -0.4970330
  H       -2.7141090     0.0333350    -0.5285000
  H       -1.6282610     2.1139460     0.3806850
  H        0.8050420     2.3317560     0.2174670
units angstrom
no_reorient  #important for SAPT in psi4, default
symmetry c1  #important for SAPT in psi4, default
}

set PROPERTIES_ORIGIN ["COM"]
properties('MP2/aug-cc-pvtz', properties = ['dipole'])
--------------------------------------------------------------------------

    Molecular point group: c1
  Charge       = 0
  Multiplicity = 1
  Basis Set: AUG-CC-PVTZ
    Blend: AUG-CC-PVTZ
  Basis Set: (AUG-CC-PVTZ AUX)
    Blend: AUG-CC-PVTZ-JKFIT

    Orbital Energies [Eh]
    ---------------------

    Doubly Occupied:

       1A    -91.959397     2A    -11.266273     3A    -11.265720
       4A    -11.246057     5A    -11.227743     6A    -11.209737
       7A     -8.960108     8A     -6.641387     9A     -6.640411
      10A     -6.639531    11A     -1.159845    12A     -1.053642
      13A     -1.008530    14A     -0.870411    15A     -0.794465
      16A     -0.690892    17A     -0.672895    18A     -0.617931
      19A     -0.605369    20A     -0.593879    21A     -0.510540
      22A     -0.473799    23A     -0.459256    24A     -0.448258
      25A     -0.383695    26A     -0.311038

  @DF-RHF Final Energy:  -590.33970244760815

   => Energetics <=

    Nuclear Repulsion Energy =            274.5105940339665267
    One-Electron Energy =               -1354.2789741065096223
    Two-Electron Energy =                 489.4286776249349487
    Total Energy =                       -590.3397024476081469
  Basis Set: (AUG-CC-PVTZ AUX)
    Blend: AUG-CC-PVTZ-RI
    Molecular point group: c1

    Geometry (in Angstrom), charge = 0, multiplicity = 1:

       Center              X                  Y                   Z               Mass
    ------------   -----------------  -----------------  -----------------  -----------------
         S            1.350837304547     0.042518774846    -0.214360340745    31.972071174400
         C            0.293039304547    -1.280100225154     0.442873659255    12.000000000000
         C           -1.087563695453    -1.187364225154    -0.140255340745    12.000000000000
         C           -1.642249695453    -0.179509125154    -0.156481640745    12.000000000000
         C           -1.078307695453     1.242169774846     0.187761659255    12.000000000000
         C            0.269852304547     1.375811774846     0.124425659255    12.000000000000
         H            0.268279304547    -1.193354225154     1.536535659255     1.007825032230
         H            0.780046304547    -2.223288225154     0.184268659255     1.007825032230
         H           -1.571464695453    -2.098005225154    -0.484602340745     1.007825032230
         H           -2.765067695453     0.043986774846    -0.516069340745     1.007825032230
         H           -1.679219695453     2.124597774846     0.393115659255     1.007825032230
         H            0.754083304547     2.342407774846     0.229897659255     1.007825032230

  Basis Set: AUG-CC-PVTZ
    Blend: AUG-CC-PVTZ
  Basis Set: (AUG-CC-PVTZ AUX)
    Blend: AUG-CC-PVTZ-JKFIT
	 Reference Energy          =    -590.3397024476081469 [Eh]
	 Singles Energy            =      -0.0000000000000000 [Eh]
	 Same-Spin Energy          =      -0.2655840323307594 [Eh]
	 Opposite-Spin Energy      =      -0.8592107248187891 [Eh]
	 Correlation Energy        =      -1.1247947571495485 [Eh]
	 Total Energy              =    -591.4644972047576630 [Eh]

	 ================> DF-SCS-MP2 Energies <==================
	-----------------------------------------------------------
	 SCS Same-Spin Scale       =       0.3333333333333333 [-]
	 SCS Opposite-Spin Scale   =       1.2000000000000000 [-]
	 SCS Same-Spin Energy      =      -0.0885280107769198 [Eh]
	 SCS Opposite-Spin Energy  =      -1.0310528697825470 [Eh]
	 SCS Correlation Energy    =      -1.1195808805594667 [Eh]
	 SCS Total Energy          =    -591.4592833281676576 [Eh]
	-----------------------------------------------------------

  Dipole Moment: [D]
     X:    -0.9244      Y:    -0.4088      Z:     0.5059     Total:     1.1303

*** Psi4 exiting successfully. Buy a developer a beer!
