                               Psi4 1.3.2 release

  ==> Input File <==

--------------------------------------------------------------------------
#psi4
#
memory 32 gb

molecule  {
0 1
  S        1.4017960     0.0318670    -0.2267910
  C        0.3439980    -1.2907520     0.4304430
  C       -1.0366050    -1.1980160    -0.1526860
  C       -1.6877140    -0.0149620    -0.1717330
  C       -1.0273490     1.2315180     0.1753310
  C        0.3091988     1.4573504     0.1300915
  H        0.3192380    -1.2040060     1.5241050
  H        0.8310050    -2.2339400     0.1718380
  H       -1.5205060    -2.1086570    -0.4970330
  H       -2.7141090     0.0333350    -0.5285000
  H       -1.6282610     2.1139460     0.3806850
  H        0.8050420     2.3317560     0.2174670
units angstrom
no_reorient  #important for SAPT in psi4, default
symmetry c1  #important for SAPT in psi4, default
}

set PROPERTIES_ORIGIN ["COM"]
properties('MP2/aug-cc-pvtz', properties = ['dipole'])
--------------------------------------------------------------------------

    Molecular point group: c1
  Charge       = 0
  Multiplicity = 1
  Basis Set: AUG-CC-PVTZ
    Blend: AUG-CC-PVTZ
  Basis Set: (AUG-CC-PVTZ AUX)
    Blend: AUG-CC-PVTZ-JKFIT

    Orbital Energies [Eh]
    ---------------------

    Doubly Occupied:

       1A    -91.958146     2A    -11.267854     3A    -11.267502
       4A    -11.247634     5A    -11.245856     6A    -11.242120
       7A     -8.957499     8A     -6.638616     9A     -6.637818
      10A     -6.636946    11A     -1.136807    12A     -1.029657
      13A     -1.012297    14A     -0.853412    15A     -0.827561
      16A     -0.708113    17A     -0.681584    18A     -0.613373
      19A     -0.601979    20A     -0.584527    21A     -0.536377
      22A     -0.484240    23A     -0.453069    24A     -0.443047
      25A     -0.359943    26A     -0.302731

  @DF-RHF Final Energy:  -590.39817937653697

   => Energetics <=

    Nuclear Repulsion Energy =            270.5516491847999418
    One-Electron Energy =               -1346.4422357415480747
    Two-Electron Energy =                 485.4924071802110461
    Total Energy =                       -590.3981793765369730
  Basis Set: (AUG-CC-PVTZ AUX)
    Blend: AUG-CC-PVTZ-RI
    Molecular point group: c1

    Geometry (in Angstrom), charge = 0, multiplicity = 1:

       Center              X                  Y                   Z               Mass
    ------------   -----------------  -----------------  -----------------  -----------------
         S            1.364063537394     0.009783581664    -0.216230483880    31.972071174400
         C            0.306265537394    -1.312835418336     0.441003516120    12.000000000000
         C           -1.074337462606    -1.220099418336    -0.142125483880    12.000000000000
         C           -1.725446462606    -0.037045418336    -0.161172483880    12.000000000000
         C           -1.065081462606     1.209434581664     0.185891516120    12.000000000000
         C            0.271466337394     1.435266981664     0.140652016120    12.000000000000
         H            0.281505537394    -1.226089418336     1.534665516120     1.007825032230
         H            0.793272537394    -2.256023418336     0.182398516120     1.007825032230
         H           -1.558238462606    -2.130740418336    -0.486472483880     1.007825032230
         H           -2.751841462606     0.011251581664    -0.517939483880     1.007825032230
         H           -1.665993462606     2.091862581664     0.391245516120     1.007825032230
         H            0.767309537394     2.309672581664     0.228027516120     1.007825032230

  Basis Set: AUG-CC-PVTZ
    Blend: AUG-CC-PVTZ
  Basis Set: (AUG-CC-PVTZ AUX)
    Blend: AUG-CC-PVTZ-JKFIT
	 Reference Energy          =    -590.3981793765369730 [Eh]
	 Singles Energy            =      -0.0000000000000000 [Eh]
	 Same-Spin Energy          =      -0.2668581985490054 [Eh]
	 Opposite-Spin Energy      =      -0.8624404124793397 [Eh]
	 Correlation Energy        =      -1.1292986110283452 [Eh]
	 Total Energy              =    -591.5274779875653621 [Eh]

	 ================> DF-SCS-MP2 Energies <==================
	-----------------------------------------------------------
	 SCS Same-Spin Scale       =       0.3333333333333333 [-]
	 SCS Opposite-Spin Scale   =       1.2000000000000000 [-]
	 SCS Same-Spin Energy      =      -0.0889527328496685 [Eh]
	 SCS Opposite-Spin Energy  =      -1.0349284949752076 [Eh]
	 SCS Correlation Energy    =      -1.1238812278248760 [Eh]
	 SCS Total Energy          =    -591.5220606043618545 [Eh]
	-----------------------------------------------------------

  Dipole Moment: [D]
     X:    -1.0764      Y:    -0.2962      Z:     0.5156     Total:     1.2297

*** Psi4 exiting successfully. Buy a developer a beer!
