                               Psi4 1.3.2 release

  ==> Input File <==

--------------------------------------------------------------------------
#psi4
#
memory 32 gb

molecule  {
0 1
  S        1.4017960     0.0318670    -0.2267910
  C        0.3439980    -1.2907520     0.4304430
  C       -1.0366050    -1.1980160    -0.1526860
  C       -1.6877140    -0.0149620    -0.1717330
  C       -1.0273490     1.2315180     0.1753310
  C        0.3226893     1.3419930     0.1075157
  H        0.3192380    -1.2040060     1.5241050
  H        0.8310050    -2.2339400     0.1718380
  H       -1.5205060    -2.1086570    -0.4970330
  H       -2.7141090     0.0333350    -0.5285000
  H       -1.6282610     2.1139460     0.3806850
  H        0.8050420     2.3317560     0.2174670
units angstrom
no_reorient  #important for SAPT in psi4, default
symmetry c1  #important for SAPT in psi4, default
}

set PROPERTIES_ORIGIN ["COM"]
properties('MP2/aug-cc-pvtz', properties = ['dipole'])
--------------------------------------------------------------------------

    Molecular point group: c1
  Charge       = 0
  Multiplicity = 1
  Basis Set: AUG-CC-PVTZ
    Blend: AUG-CC-PVTZ
  Basis Set: (AUG-CC-PVTZ AUX)
    Blend: AUG-CC-PVTZ-JKFIT

    Orbital Energies [Eh]
    ---------------------

    Doubly Occupied:

       1A    -91.962916     2A    -11.269189     3A    -11.267902
       4A    -11.242491     5A    -11.240102     6A    -11.238763
       7A     -8.963770     8A     -6.645046     9A     -6.644045
      10A     -6.643189    11A     -1.143309    12A     -1.025997
      13A     -1.020651    14A     -0.861266    15A     -0.814782
      16A     -0.691895    17A     -0.679361    18A     -0.609213
      19A     -0.599233    20A     -0.582640    21A     -0.534628
      22A     -0.483594    23A     -0.466636    24A     -0.451038
      25A     -0.364799    26A     -0.296486

  @DF-RHF Final Energy:  -590.40443543427796

   => Energetics <=

    Nuclear Repulsion Energy =            272.6350453259997835
    One-Electron Energy =               -1350.5930818129445470
    Two-Electron Energy =                 487.5536010526668633
    Total Energy =                       -590.4044354342779570
  Basis Set: (AUG-CC-PVTZ AUX)
    Blend: AUG-CC-PVTZ-RI
    Molecular point group: c1

    Geometry (in Angstrom), charge = 0, multiplicity = 1:

       Center              X                  Y                   Z               Mass
    ------------   -----------------  -----------------  -----------------  -----------------
         S            1.362411959998     0.023906236437    -0.213466636658    31.972071174400
         C            0.304613959998    -1.298712763563     0.443767363342    12.000000000000
         C           -1.075989040002    -1.205976763563    -0.139361636658    12.000000000000
         C           -1.727098040002    -0.022922763563    -0.158408636658    12.000000000000
         C           -1.066733040002     1.223557236437     0.188655363342    12.000000000000
         C            0.283305259998     1.334032236437     0.120840063342    12.000000000000
         H            0.279853959998    -1.211966763563     1.537429363342     1.007825032230
         H            0.791620959998    -2.241900763563     0.185162363342     1.007825032230
         H           -1.559890040002    -2.116617763563    -0.483708636658     1.007825032230
         H           -2.753493040002     0.025374236437    -0.515175636658     1.007825032230
         H           -1.667645040002     2.105985236437     0.394009363342     1.007825032230
         H            0.765657959998     2.323795236437     0.230791363342     1.007825032230

  Basis Set: AUG-CC-PVTZ
    Blend: AUG-CC-PVTZ
  Basis Set: (AUG-CC-PVTZ AUX)
    Blend: AUG-CC-PVTZ-JKFIT
	 Reference Energy          =    -590.4044354342779570 [Eh]
	 Singles Energy            =      -0.0000000000000000 [Eh]
	 Same-Spin Energy          =      -0.2681270739452784 [Eh]
	 Opposite-Spin Energy      =      -0.8628196100990220 [Eh]
	 Correlation Energy        =      -1.1309466840443003 [Eh]
	 Total Energy              =    -591.5353821183222180 [Eh]

	 ================> DF-SCS-MP2 Energies <==================
	-----------------------------------------------------------
	 SCS Same-Spin Scale       =       0.3333333333333333 [-]
	 SCS Opposite-Spin Scale   =       1.2000000000000000 [-]
	 SCS Same-Spin Energy      =      -0.0893756913150928 [Eh]
	 SCS Opposite-Spin Energy  =      -1.0353835321188263 [Eh]
	 SCS Correlation Energy    =      -1.1247592234339190 [Eh]
	 SCS Total Energy          =    -591.5291946577118551 [Eh]
	-----------------------------------------------------------

  Dipole Moment: [D]
     X:    -0.8065      Y:    -0.3728      Z:     0.4904     Total:     1.0149

*** Psi4 exiting successfully. Buy a developer a beer!
