                               Psi4 1.3.2 release

  ==> Input File <==

--------------------------------------------------------------------------
#psi4
#
memory 32 gb

molecule  {
0 1
  S        1.4017960     0.0318670    -0.2267910
  C        0.3439980    -1.2907520     0.4304430
  C       -1.0366050    -1.1980160    -0.1526860
  C       -1.6877140    -0.0149620    -0.1717330
  C       -1.0484168     1.2441621     0.1690800
  C        0.3208110     1.3651600     0.1119950
  H        0.3192380    -1.2040060     1.5241050
  H        0.8310050    -2.2339400     0.1718380
  H       -1.5205060    -2.1086570    -0.4970330
  H       -2.7141090     0.0333350    -0.5285000
  H       -1.6282610     2.1139460     0.3806850
  H        0.8050420     2.3317560     0.2174670
units angstrom
no_reorient  #important for SAPT in psi4, default
symmetry c1  #important for SAPT in psi4, default
}

set PROPERTIES_ORIGIN ["COM"]
properties('MP2/aug-cc-pvtz', properties = ['dipole'])
--------------------------------------------------------------------------

    Molecular point group: c1
  Charge       = 0
  Multiplicity = 1
  Basis Set: AUG-CC-PVTZ
    Blend: AUG-CC-PVTZ
  Basis Set: (AUG-CC-PVTZ AUX)
    Blend: AUG-CC-PVTZ-JKFIT

    Orbital Energies [Eh]
    ---------------------

    Doubly Occupied:

       1A    -91.963253     2A    -11.271688     3A    -11.267958
       4A    -11.243244     5A    -11.241778     6A    -11.239501
       7A     -8.963663     8A     -6.644901     9A     -6.643945
      10A     -6.643101    11A     -1.139872    12A     -1.024128
      13A     -1.019555    14A     -0.860058    15A     -0.817116
      16A     -0.692806    17A     -0.683603    18A     -0.609404
      19A     -0.599451    20A     -0.583931    21A     -0.533512
      22A     -0.486410    23A     -0.463800    24A     -0.448745
      25A     -0.364202    26A     -0.295738

  @DF-RHF Final Energy:  -590.40383995395359

   => Energetics <=

    Nuclear Repulsion Energy =            271.8049095032339437
    One-Electron Energy =               -1348.9267737768755069
    Two-Electron Energy =                 486.7180243196881406
    Total Energy =                       -590.4038399539535931
  Basis Set: (AUG-CC-PVTZ AUX)
    Blend: AUG-CC-PVTZ-RI
    Molecular point group: c1

    Geometry (in Angstrom), charge = 0, multiplicity = 1:

       Center              X                  Y                   Z               Mass
    ------------   -----------------  -----------------  -----------------  -----------------
         S            1.365221141279     0.019522054735    -0.213249735900    31.972071174400
         C            0.307423141279    -1.303096945265     0.443984264100    12.000000000000
         C           -1.073179858721    -1.210360945265    -0.139144735900    12.000000000000
         C           -1.724288858721    -0.027306945265    -0.158191735900    12.000000000000
         C           -1.084991658721     1.231817154735     0.182621264100    12.000000000000
         C            0.284236141279     1.352815054735     0.125536264100    12.000000000000
         H            0.282663141279    -1.216350945265     1.537646264100     1.007825032230
         H            0.794430141279    -2.246284945265     0.185379264100     1.007825032230
         H           -1.557080858721    -2.121001945265    -0.483491735900     1.007825032230
         H           -2.750683858721     0.020990054735    -0.514958735900     1.007825032230
         H           -1.664835858721     2.101601054735     0.394226264100     1.007825032230
         H            0.768467141279     2.319411054735     0.231008264100     1.007825032230

  Basis Set: AUG-CC-PVTZ
    Blend: AUG-CC-PVTZ
  Basis Set: (AUG-CC-PVTZ AUX)
    Blend: AUG-CC-PVTZ-JKFIT
	 Reference Energy          =    -590.4038399539535931 [Eh]
	 Singles Energy            =      -0.0000000000000000 [Eh]
	 Same-Spin Energy          =      -0.2680522969067214 [Eh]
	 Opposite-Spin Energy      =      -0.8631458234077143 [Eh]
	 Correlation Energy        =      -1.1311981203144357 [Eh]
	 Total Energy              =    -591.5350380742680727 [Eh]

	 ================> DF-SCS-MP2 Energies <==================
	-----------------------------------------------------------
	 SCS Same-Spin Scale       =       0.3333333333333333 [-]
	 SCS Opposite-Spin Scale   =       1.2000000000000000 [-]
	 SCS Same-Spin Energy      =      -0.0893507656355738 [Eh]
	 SCS Opposite-Spin Energy  =      -1.0357749880892571 [Eh]
	 SCS Correlation Energy    =      -1.1251257537248309 [Eh]
	 SCS Total Energy          =    -591.5289657076784806 [Eh]
	-----------------------------------------------------------

  Dipole Moment: [D]
     X:    -0.8298      Y:    -0.3598      Z:     0.5032     Total:     1.0351

*** Psi4 exiting successfully. Buy a developer a beer!
