                               Psi4 1.3.2 release

  ==> Input File <==

--------------------------------------------------------------------------
#psi4
#
memory 32 gb

molecule  {
0 1
  S        1.4017960     0.0318670    -0.2267910
  C        0.4604539    -1.1451412     0.3580863
  C       -1.0366050    -1.1980160    -0.1526860
  C       -1.6877140    -0.0149620    -0.1717330
  C       -1.0273490     1.2315180     0.1753310
  C        0.3208110     1.3651600     0.1119950
  H        0.3192380    -1.2040060     1.5241050
  H        0.8310050    -2.2339400     0.1718380
  H       -1.5205060    -2.1086570    -0.4970330
  H       -2.7141090     0.0333350    -0.5285000
  H       -1.6282610     2.1139460     0.3806850
  H        0.8050420     2.3317560     0.2174670
units angstrom
no_reorient  #important for SAPT in psi4, default
symmetry c1  #important for SAPT in psi4, default
}

set PROPERTIES_ORIGIN ["COM"]
properties('MP2/aug-cc-pvtz', properties = ['dipole'])
--------------------------------------------------------------------------

    Molecular point group: c1
  Charge       = 0
  Multiplicity = 1
  Basis Set: AUG-CC-PVTZ
    Blend: AUG-CC-PVTZ
  Basis Set: (AUG-CC-PVTZ AUX)
    Blend: AUG-CC-PVTZ-JKFIT

    Orbital Energies [Eh]
    ---------------------

    Doubly Occupied:

       1A    -91.960211     2A    -11.271559     3A    -11.268166
       4A    -11.247543     5A    -11.243915     6A    -11.237311
       7A     -8.964946     8A     -6.646703     9A     -6.645261
      10A     -6.644203    11A     -1.155621    12A     -1.044357
      13A     -1.016429    14A     -0.844268    15A     -0.824841
      16A     -0.691431    17A     -0.676365    18A     -0.608735
      19A     -0.593121    20A     -0.580062    21A     -0.535848
      22A     -0.506418    23A     -0.448858    24A     -0.440556
      25A     -0.368643    26A     -0.295787

  @DF-RHF Final Energy:  -590.36865282278040

   => Energetics <=

    Nuclear Repulsion Energy =            275.1647050936045957
    One-Electron Energy =               -1355.5444004394387321
    Two-Electron Energy =                 490.0110425230536180
    Total Energy =                       -590.3686528227804047
  Basis Set: (AUG-CC-PVTZ AUX)
    Blend: AUG-CC-PVTZ-RI
    Molecular point group: c1

    Geometry (in Angstrom), charge = 0, multiplicity = 1:

       Center              X                  Y                   Z               Mass
    ------------   -----------------  -----------------  -----------------  -----------------
         S            1.348384772409     0.003243577580    -0.205156731206    31.972071174400
         C            0.407042672410    -1.173764622420     0.379720568794    12.000000000000
         C           -1.090016227590    -1.226639422420    -0.131051731206    12.000000000000
         C           -1.741125227590    -0.043585422420    -0.150098731206    12.000000000000
         C           -1.080760227590     1.202894577580     0.196965268794    12.000000000000
         C            0.267399772410     1.336536577580     0.133629268794    12.000000000000
         H            0.265826772410    -1.232629422420     1.545739268794     1.007825032230
         H            0.777593772410    -2.262563422420     0.193472268794     1.007825032230
         H           -1.573917227590    -2.137280422420    -0.475398731206     1.007825032230
         H           -2.767520227590     0.004711577580    -0.506865731206     1.007825032230
         H           -1.681672227590     2.085322577580     0.402319268794     1.007825032230
         H            0.751630772410     2.303132577580     0.239101268794     1.007825032230

  Basis Set: AUG-CC-PVTZ
    Blend: AUG-CC-PVTZ
  Basis Set: (AUG-CC-PVTZ AUX)
    Blend: AUG-CC-PVTZ-JKFIT
	 Reference Energy          =    -590.3686528227804047 [Eh]
	 Singles Energy            =      -0.0000000000000000 [Eh]
	 Same-Spin Energy          =      -0.2699380750020151 [Eh]
	 Opposite-Spin Energy      =      -0.8652518628787743 [Eh]
	 Correlation Energy        =      -1.1351899378807895 [Eh]
	 Total Energy              =    -591.5038427606612004 [Eh]

	 ================> DF-SCS-MP2 Energies <==================
	-----------------------------------------------------------
	 SCS Same-Spin Scale       =       0.3333333333333333 [-]
	 SCS Opposite-Spin Scale   =       1.2000000000000000 [-]
	 SCS Same-Spin Energy      =      -0.0899793583340050 [Eh]
	 SCS Opposite-Spin Energy  =      -1.0383022354545290 [Eh]
	 SCS Correlation Energy    =      -1.1282815937885340 [Eh]
	 SCS Total Energy          =    -591.4969344165689336 [Eh]
	-----------------------------------------------------------

  Dipole Moment: [D]
     X:    -0.8331      Y:    -0.2251      Z:     0.3334     Total:     0.9251

*** Psi4 exiting successfully. Buy a developer a beer!
