                               Psi4 1.4a3.dev225

  ==> Input File <==

--------------------------------------------------------------------------
#psi4
#
memory 32 gb

molecule  {
0 1
  S        1.4017960     0.0318670    -0.2267910
  C        0.3439980    -1.2907520     0.4304430
  C       -1.0366050    -1.1980160    -0.1526860
  C       -1.6877140    -0.0149620    -0.1717330
  C       -1.0273490     1.2315180     0.1753310
  C        0.3208110     1.3651600     0.1119950
  H        0.3192380    -1.2040060     1.5241050
  H        0.8310050    -2.2339400     0.1718380
  H       -1.5205060    -2.1086570    -0.4970330
  H       -2.7329817     0.0342231    -0.5350600
  H       -1.6282610     2.1139460     0.3806850
  H        0.8050420     2.3317560     0.2174670
units angstrom
no_reorient  #important for SAPT in psi4, default
symmetry c1  #important for SAPT in psi4, default
}

set PROPERTIES_ORIGIN ["COM"]
properties('MP2/aug-cc-pvtz', properties = ['dipole'])
--------------------------------------------------------------------------

    Molecular point group: c1
  Charge       = 0
  Multiplicity = 1
  Basis Set: AUG-CC-PVTZ
    Blend: AUG-CC-PVTZ
  Basis Set: (AUG-CC-PVTZ AUX)
    Blend: AUG-CC-PVTZ-JKFIT

    Orbital Energies [Eh]
    ---------------------

    Doubly Occupied:

       1A    -91.962139     2A    -11.268830     3A    -11.267990
       4A    -11.243823     5A    -11.241876     6A    -11.240915
       7A     -8.962642     8A     -6.643881     9A     -6.642937
      10A     -6.642075    11A     -1.141678    12A     -1.026520
      13A     -1.018435    14A     -0.859308    15A     -0.816605
      16A     -0.691731    17A     -0.680226    18A     -0.608681
      19A     -0.599962    20A     -0.584012    21A     -0.532951
      22A     -0.483893    23A     -0.463420    24A     -0.450592
      25A     -0.363996    26A     -0.297809

  @DF-RHF Final Energy:  -590.40484892188761

   => Energetics <=

    Nuclear Repulsion Energy =            272.1068440677441913
    One-Electron Energy =               -1349.5495336956487336
    Two-Electron Energy =                 487.0378407060170503
    Total Energy =                       -590.4048489218876057
  Basis Set: (AUG-CC-PVTZ AUX)
    Blend: AUG-CC-PVTZ-RI
    Molecular point group: c1

    Geometry (in Angstrom), charge = 0, multiplicity = 1:

       Center              X                  Y                   Z               Mass
    ------------   -----------------  -----------------  -----------------  -----------------
         S            1.362835959125     0.021060880041    -0.213947566452    31.972071174400
         C            0.305037959125    -1.301558119959     0.443286433548    12.000000000000
         C           -1.075565040875    -1.208822119959    -0.139842566452    12.000000000000
         C           -1.726674040875    -0.025768119959    -0.158889566452    12.000000000000
         C           -1.066309040875     1.220711880041     0.188174433548    12.000000000000
         C            0.281850959125     1.354353880041     0.124838433548    12.000000000000
         H            0.280277959125    -1.214812119959     1.536948433548     1.007825032230
         H            0.792044959125    -2.244746119959     0.184681433548     1.007825032230
         H           -1.559466040875    -2.119463119959    -0.484189566452     1.007825032230
         H           -2.771941740875     0.023416980041    -0.522216566452     1.007825032230
         H           -1.667221040875     2.103139880041     0.393528433548     1.007825032230
         H            0.766081959125     2.320949880041     0.230310433548     1.007825032230

  Basis Set: AUG-CC-PVTZ
    Blend: AUG-CC-PVTZ
  Basis Set: (AUG-CC-PVTZ AUX)
    Blend: AUG-CC-PVTZ-JKFIT
	 Reference Energy          =    -590.4048489218876057 [Eh]
	 Singles Energy            =      -0.0000000000000000 [Eh]
	 Same-Spin Energy          =      -0.2678361946111105 [Eh]
	 Opposite-Spin Energy      =      -0.8627333079964128 [Eh]
	 Correlation Energy        =      -1.1305695026075233 [Eh]
	 Total Energy              =    -591.5354184244951057 [Eh]

	 ================> DF-SCS-MP2 Energies <==================
	-----------------------------------------------------------
	 SCS Same-Spin Scale       =       0.3333333333333333 [-]
	 SCS Opposite-Spin Scale   =       1.2000000000000000 [-]
	 SCS Same-Spin Energy      =      -0.0892787315370368 [Eh]
	 SCS Opposite-Spin Energy  =      -1.0352799695956953 [Eh]
	 SCS Correlation Energy    =      -1.1245587011327323 [Eh]
	 SCS Total Energy          =    -591.5294076230203473 [Eh]
	-----------------------------------------------------------

  Dipole Moment: [D]
     X:    -0.8510      Y:    -0.3564      Z:     0.4973     Total:     1.0481

*** Psi4 exiting successfully. Buy a developer a beer!
