                               Psi4 1.3.2 release

  ==> Input File <==

--------------------------------------------------------------------------
#psi4
#
memory 32 gb

molecule  {
0 1
  S        1.4017960     0.0318670    -0.2267910
  C        0.3439980    -1.2907520     0.4304430
  C       -1.0366050    -1.1980160    -0.1526860
  C       -1.6877140    -0.0149620    -0.1717330
  C       -1.0273490     1.2315180     0.1753310
  C        0.3208110     1.3651600     0.1119950
  H        0.3192380    -1.2040060     1.5241050
  H        0.8310050    -2.2339400     0.1718380
  H       -1.5205060    -2.1086570    -0.4970330
  H       -2.7141090     0.0333350    -0.5285000
  H       -1.7388068     2.2762805     0.4184626
  H        0.8050420     2.3317560     0.2174670
units angstrom
no_reorient  #important for SAPT in psi4, default
symmetry c1  #important for SAPT in psi4, default
}

set PROPERTIES_ORIGIN ["COM"]
properties('MP2/aug-cc-pvtz', properties = ['dipole'])
--------------------------------------------------------------------------

    Molecular point group: c1
  Charge       = 0
  Multiplicity = 1
  Basis Set: AUG-CC-PVTZ
    Blend: AUG-CC-PVTZ
  Basis Set: (AUG-CC-PVTZ AUX)
    Blend: AUG-CC-PVTZ-JKFIT

    Orbital Energies [Eh]
    ---------------------

    Doubly Occupied:

       1A    -91.963678     2A    -11.270375     3A    -11.268993
       4A    -11.262203     5A    -11.245251     6A    -11.242076
       7A     -8.964149     8A     -6.645385     9A     -6.644428
      10A     -6.643558    11A     -1.142192    12A     -1.025642
      13A     -1.017886    14A     -0.855178    15A     -0.816276
      16A     -0.694780    17A     -0.665517    18A     -0.604924
      19A     -0.590470    20A     -0.577004    21A     -0.536356
      22A     -0.478645    23A     -0.461409    24A     -0.449288
      25A     -0.365300    26A     -0.299044

  @DF-RHF Final Energy:  -590.38351983511234

   => Energetics <=

    Nuclear Repulsion Energy =            271.3119355481455841
    One-Electron Energy =               -1347.9308921411673055
    Two-Electron Energy =                 486.2354367579094401
    Total Energy =                       -590.3835198351123381
  Basis Set: (AUG-CC-PVTZ AUX)
    Blend: AUG-CC-PVTZ-RI
    Molecular point group: c1

    Geometry (in Angstrom), charge = 0, multiplicity = 1:

       Center              X                  Y                   Z               Mass
    ------------   -----------------  -----------------  -----------------  -----------------
         S            1.363778535818     0.019400898937    -0.214403442694    31.972071174400
         C            0.305980535818    -1.303218101063     0.442830557306    12.000000000000
         C           -1.074622464182    -1.210482101063    -0.140298442694    12.000000000000
         C           -1.725731464182    -0.027428101063    -0.159345442694    12.000000000000
         C           -1.065366464182     1.219051898937     0.187718557306    12.000000000000
         C            0.282793535818     1.352693898937     0.124382557306    12.000000000000
         H            0.281220535818    -1.216472101063     1.536492557306     1.007825032230
         H            0.792987535818    -2.246406101063     0.184225557306     1.007825032230
         H           -1.558523464182    -2.121123101063    -0.484645442694     1.007825032230
         H           -2.752126464182     0.020868898937    -0.516112442694     1.007825032230
         H           -1.776824264182     2.263814398937     0.430850157306     1.007825032230
         H            0.767024535818     2.319289898937     0.229854557306     1.007825032230

  Basis Set: AUG-CC-PVTZ
    Blend: AUG-CC-PVTZ
  Basis Set: (AUG-CC-PVTZ AUX)
    Blend: AUG-CC-PVTZ-JKFIT
	 Reference Energy          =    -590.3835198351123381 [Eh]
	 Singles Energy            =      -0.0000000000000000 [Eh]
	 Same-Spin Energy          =      -0.2682112678190585 [Eh]
	 Opposite-Spin Energy      =      -0.8645280111126354 [Eh]
	 Correlation Energy        =      -1.1327392789316939 [Eh]
	 Total Energy              =    -591.5162591140440327 [Eh]

	 ================> DF-SCS-MP2 Energies <==================
	-----------------------------------------------------------
	 SCS Same-Spin Scale       =       0.3333333333333333 [-]
	 SCS Opposite-Spin Scale   =       1.2000000000000000 [-]
	 SCS Same-Spin Energy      =      -0.0894037559396862 [Eh]
	 SCS Opposite-Spin Energy  =      -1.0374336133351625 [Eh]
	 SCS Correlation Energy    =      -1.1268373692748486 [Eh]
	 SCS Total Energy          =    -591.5103572043872191 [Eh]
	-----------------------------------------------------------

  Dipole Moment: [D]
     X:    -0.8090      Y:    -0.4558      Z:     0.4778     Total:     1.0442

*** Psi4 exiting successfully. Buy a developer a beer!
