                               Psi4 1.3.2 release

  ==> Input File <==

--------------------------------------------------------------------------
#psi4
#
memory 32 gb

molecule  {
0 1
  S        1.2525761    -0.0737076    -0.2379317
  C        0.3439980    -1.2907520     0.4304430
  C       -1.0366050    -1.1980160    -0.1526860
  C       -1.6877140    -0.0149620    -0.1717330
  C       -1.0273490     1.2315180     0.1753310
  C        0.3208110     1.3651600     0.1119950
  H        0.3192380    -1.2040060     1.5241050
  H        0.8310050    -2.2339400     0.1718380
  H       -1.5205060    -2.1086570    -0.4970330
  H       -2.7141090     0.0333350    -0.5285000
  H       -1.6282610     2.1139460     0.3806850
  H        0.8050420     2.3317560     0.2174670
units angstrom
no_reorient  #important for SAPT in psi4, default
symmetry c1  #important for SAPT in psi4, default
}

set PROPERTIES_ORIGIN ["COM"]
properties('MP2/aug-cc-pvtz', properties = ['dipole'])
--------------------------------------------------------------------------

    Molecular point group: c1
  Charge       = 0
  Multiplicity = 1
  Basis Set: AUG-CC-PVTZ
    Blend: AUG-CC-PVTZ
  Basis Set: (AUG-CC-PVTZ AUX)
    Blend: AUG-CC-PVTZ-JKFIT

    Orbital Energies [Eh]
    ---------------------

    Doubly Occupied:

       1A    -91.951795     2A    -11.266505     3A    -11.256555
       4A    -11.244695     5A    -11.241515     6A    -11.238435
       7A     -8.956045     8A     -6.637604     9A     -6.636541
      10A     -6.635477    11A     -1.161233    12A     -1.042548
      13A     -1.021658    14A     -0.851276    15A     -0.823821
      16A     -0.699604    17A     -0.682291    18A     -0.611605
      19A     -0.605249    20A     -0.598362    21A     -0.544925
      22A     -0.499498    23A     -0.456955    24A     -0.443360
      25A     -0.351946    26A     -0.301114

  @DF-RHF Final Energy:  -590.39039039742397

   => Energetics <=

    Nuclear Repulsion Energy =            278.0664845295248142
    One-Electron Energy =               -1361.3925266083917904
    Two-Electron Energy =                 492.9356516814429483
    Total Energy =                       -590.3903903974239711
  Basis Set: (AUG-CC-PVTZ AUX)
    Blend: AUG-CC-PVTZ-RI
    Molecular point group: c1

    Geometry (in Angstrom), charge = 0, multiplicity = 1:

       Center              X                  Y                   Z               Mass
    ------------   -----------------  -----------------  -----------------  -----------------
         S            1.262094903513    -0.050068021280    -0.221521816632    31.972071174400
         C            0.353516803513    -1.267112421280     0.446852883368    12.000000000000
         C           -1.027086196487    -1.174376421280    -0.136276116632    12.000000000000
         C           -1.678195196487     0.008677578720    -0.155323116632    12.000000000000
         C           -1.017830196487     1.255157578720     0.191740883368    12.000000000000
         C            0.330329803513     1.388799578720     0.128404883368    12.000000000000
         H            0.328756803513    -1.180366421280     1.540514883368     1.007825032230
         H            0.840523803513    -2.210300421280     0.188247883368     1.007825032230
         H           -1.510987196487    -2.085017421280    -0.480623116632     1.007825032230
         H           -2.704590196487     0.056974578720    -0.512090116632     1.007825032230
         H           -1.618742196487     2.137585578720     0.397094883368     1.007825032230
         H            0.814560803513     2.355395578720     0.233876883368     1.007825032230

  Basis Set: AUG-CC-PVTZ
    Blend: AUG-CC-PVTZ
  Basis Set: (AUG-CC-PVTZ AUX)
    Blend: AUG-CC-PVTZ-JKFIT
	 Reference Energy          =    -590.3903903974239711 [Eh]
	 Singles Energy            =      -0.0000000000000000 [Eh]
	 Same-Spin Energy          =      -0.2698943490216487 [Eh]
	 Opposite-Spin Energy      =      -0.8630887684339517 [Eh]
	 Correlation Energy        =      -1.1329831174556004 [Eh]
	 Total Energy              =    -591.5233735148796086 [Eh]

	 ================> DF-SCS-MP2 Energies <==================
	-----------------------------------------------------------
	 SCS Same-Spin Scale       =       0.3333333333333333 [-]
	 SCS Opposite-Spin Scale   =       1.2000000000000000 [-]
	 SCS Same-Spin Energy      =      -0.0899647830072162 [Eh]
	 SCS Opposite-Spin Energy  =      -1.0357065221207420 [Eh]
	 SCS Correlation Energy    =      -1.1256713051279583 [Eh]
	 SCS Total Energy          =    -591.5160617025519514 [Eh]
	-----------------------------------------------------------

  Dipole Moment: [D]
     X:    -0.8829      Y:    -0.3479      Z:     0.5358     Total:     1.0898

*** Psi4 exiting successfully. Buy a developer a beer!
