                               Psi4 1.3.2 release

  ==> Input File <==

--------------------------------------------------------------------------
#psi4
#
memory 32 gb

molecule  {
0 1
  S        1.4017960     0.0318670    -0.2267910
  C        0.3439980    -1.2907520     0.4304430
  C       -1.0366050    -1.1980160    -0.1526860
  C       -1.6877140    -0.0149620    -0.1717330
  C       -1.0273490     1.2315180     0.1753310
  C        0.3241563     1.3187924     0.1030570
  H        0.3192380    -1.2040060     1.5241050
  H        0.8310050    -2.2339400     0.1718380
  H       -1.5205060    -2.1086570    -0.4970330
  H       -2.7141090     0.0333350    -0.5285000
  H       -1.6282610     2.1139460     0.3806850
  H        0.8050420     2.3317560     0.2174670
units angstrom
no_reorient  #important for SAPT in psi4, default
symmetry c1  #important for SAPT in psi4, default
}

set PROPERTIES_ORIGIN ["COM"]
properties('MP2/aug-cc-pvtz', properties = ['dipole'])
--------------------------------------------------------------------------

    Molecular point group: c1
  Charge       = 0
  Multiplicity = 1
  Basis Set: AUG-CC-PVTZ
    Blend: AUG-CC-PVTZ
  Basis Set: (AUG-CC-PVTZ AUX)
    Blend: AUG-CC-PVTZ-JKFIT

    Orbital Energies [Eh]
    ---------------------

    Doubly Occupied:

       1A    -91.963755     2A    -11.269789     3A    -11.267953
       4A    -11.241490     5A    -11.239258     6A    -11.238128
       7A     -8.964984     8A     -6.646302     9A     -6.645236
      10A     -6.644386    11A     -1.145083    12A     -1.026150
      13A     -1.021886    14A     -0.862861    15A     -0.812598
      16A     -0.690233    17A     -0.678152    18A     -0.609796
      19A     -0.598985    20A     -0.580601    21A     -0.534403
      22A     -0.483588    23A     -0.469677    24A     -0.451093
      25A     -0.365641    26A     -0.295284

  @DF-RHF Final Energy:  -590.40227469109550

   => Energetics <=

    Nuclear Repulsion Energy =            273.0715729564026333
    One-Electron Energy =               -1351.4530768462032029
    Two-Electron Energy =                 487.9792291987050703
    Total Energy =                       -590.4022746910954993
  Basis Set: (AUG-CC-PVTZ AUX)
    Blend: AUG-CC-PVTZ-RI
    Molecular point group: c1

    Geometry (in Angstrom), charge = 0, multiplicity = 1:

       Center              X                  Y                   Z               Mass
    ------------   -----------------  -----------------  -----------------  -----------------
         S            1.362232362204     0.026746574936    -0.212920779341    31.972071174400
         C            0.304434362204    -1.295872425064     0.444313220659    12.000000000000
         C           -1.076168637796    -1.203136425064    -0.138815779341    12.000000000000
         C           -1.727277637796    -0.020082425064    -0.157862779341    12.000000000000
         C           -1.066912637796     1.226397574936     0.189201220659    12.000000000000
         C            0.284592662204     1.313671974936     0.116927220659    12.000000000000
         H            0.279674362204    -1.209126425064     1.537975220659     1.007825032230
         H            0.791441362204    -2.239060425064     0.185708220659     1.007825032230
         H           -1.560069637796    -2.113777425064    -0.483162779341     1.007825032230
         H           -2.753672637796     0.028214574936    -0.514629779341     1.007825032230
         H           -1.667824637796     2.108825574936     0.394555220659     1.007825032230
         H            0.765478362204     2.326635574936     0.231337220659     1.007825032230

  Basis Set: AUG-CC-PVTZ
    Blend: AUG-CC-PVTZ
  Basis Set: (AUG-CC-PVTZ AUX)
    Blend: AUG-CC-PVTZ-JKFIT
	 Reference Energy          =    -590.4022746910954993 [Eh]
	 Singles Energy            =      -0.0000000000000000 [Eh]
	 Same-Spin Energy          =      -0.2684846115096813 [Eh]
	 Opposite-Spin Energy      =      -0.8631108643912517 [Eh]
	 Correlation Energy        =      -1.1315954759009330 [Eh]
	 Total Energy              =    -591.5338701669963939 [Eh]

	 ================> DF-SCS-MP2 Energies <==================
	-----------------------------------------------------------
	 SCS Same-Spin Scale       =       0.3333333333333333 [-]
	 SCS Opposite-Spin Scale   =       1.2000000000000000 [-]
	 SCS Same-Spin Energy      =      -0.0894948705032271 [Eh]
	 SCS Opposite-Spin Energy  =      -1.0357330372695019 [Eh]
	 SCS Correlation Energy    =      -1.1252279077727290 [Eh]
	 SCS Total Energy          =    -591.5275025988681818 [Eh]
	-----------------------------------------------------------

  Dipole Moment: [D]
     X:    -0.7539      Y:    -0.3888      Z:     0.4853     Total:     0.9773

*** Psi4 exiting successfully. Buy a developer a beer!
