                               Psi4 1.3.2 release

  ==> Input File <==

--------------------------------------------------------------------------
#psi4
#
memory 32 gb

molecule  {
0 1
  S        1.4017960     0.0318670    -0.2267910
  C        0.3358454    -1.4454620     0.4039597
  C       -1.0366050    -1.1980160    -0.1526860
  C       -1.6877140    -0.0149620    -0.1717330
  C       -1.0273490     1.2315180     0.1753310
  C        0.3208110     1.3651600     0.1119950
  H        0.3192380    -1.2040060     1.5241050
  H        0.8310050    -2.2339400     0.1718380
  H       -1.5205060    -2.1086570    -0.4970330
  H       -2.7141090     0.0333350    -0.5285000
  H       -1.6282610     2.1139460     0.3806850
  H        0.8050420     2.3317560     0.2174670
units angstrom
no_reorient  #important for SAPT in psi4, default
symmetry c1  #important for SAPT in psi4, default
}

set PROPERTIES_ORIGIN ["COM"]
properties('MP2/aug-cc-pvtz', properties = ['dipole'])
--------------------------------------------------------------------------

    Molecular point group: c1
  Charge       = 0
  Multiplicity = 1
  Basis Set: AUG-CC-PVTZ
    Blend: AUG-CC-PVTZ
  Basis Set: (AUG-CC-PVTZ AUX)
    Blend: AUG-CC-PVTZ-JKFIT

    Orbital Energies [Eh]
    ---------------------

    Doubly Occupied:

       1A    -91.959597     2A    -11.272840     3A    -11.269896
       4A    -11.247207     5A    -11.242564     6A    -11.239632
       7A     -8.959115     8A     -6.640214     9A     -6.639385
      10A     -6.638555    11A     -1.135449    12A     -1.031479
      13A     -1.012130    14A     -0.871776    15A     -0.815269
      16A     -0.704889    17A     -0.676306    18A     -0.631375
      19A     -0.598074    20A     -0.580507    21A     -0.539753
      22A     -0.483536    23A     -0.455934    24A     -0.442709
      25A     -0.360483    26A     -0.293943

  @DF-RHF Final Energy:  -590.38124833097390

   => Energetics <=

    Nuclear Repulsion Energy =            269.9643718496105294
    One-Electron Energy =               -1345.2060076778523126
    Two-Electron Energy =                 484.8603874972677090
    Total Energy =                       -590.3812483309739036
  Basis Set: (AUG-CC-PVTZ AUX)
    Blend: AUG-CC-PVTZ-RI
    Molecular point group: c1

    Geometry (in Angstrom), charge = 0, multiplicity = 1:

       Center              X                  Y                   Z               Mass
    ------------   -----------------  -----------------  -----------------  -----------------
         S            1.363639995112     0.040010416809    -0.210772792174    31.972071174400
         C            0.297689395112    -1.437318583191     0.419977907826    12.000000000000
         C           -1.074761004888    -1.189872583191    -0.136667792174    12.000000000000
         C           -1.725870004888    -0.006818583191    -0.155714792174    12.000000000000
         C           -1.065505004888     1.239661416809     0.191349207826    12.000000000000
         C            0.282654995112     1.373303416809     0.128013207826    12.000000000000
         H            0.281081995112    -1.195862583191     1.540123207826     1.007825032230
         H            0.792848995112    -2.225796583191     0.187856207826     1.007825032230
         H           -1.558662004888    -2.100513583191    -0.481014792174     1.007825032230
         H           -2.752265004888     0.041478416809    -0.512481792174     1.007825032230
         H           -1.666417004888     2.122089416809     0.396703207826     1.007825032230
         H            0.766885995112     2.339899416809     0.233485207826     1.007825032230

  Basis Set: AUG-CC-PVTZ
    Blend: AUG-CC-PVTZ
  Basis Set: (AUG-CC-PVTZ AUX)
    Blend: AUG-CC-PVTZ-JKFIT
	 Reference Energy          =    -590.3812483309739036 [Eh]
	 Singles Energy            =      -0.0000000000000000 [Eh]
	 Same-Spin Energy          =      -0.2675437573715579 [Eh]
	 Opposite-Spin Energy      =      -0.8631438687785440 [Eh]
	 Correlation Energy        =      -1.1306876261501020 [Eh]
	 Total Energy              =    -591.5119359571240238 [Eh]

	 ================> DF-SCS-MP2 Energies <==================
	-----------------------------------------------------------
	 SCS Same-Spin Scale       =       0.3333333333333333 [-]
	 SCS Opposite-Spin Scale   =       1.2000000000000000 [-]
	 SCS Same-Spin Energy      =      -0.0891812524571860 [Eh]
	 SCS Opposite-Spin Energy  =      -1.0357726425342528 [Eh]
	 SCS Correlation Energy    =      -1.1249538949914388 [Eh]
	 SCS Total Energy          =    -591.5062022259653531 [Eh]
	-----------------------------------------------------------

  Dipole Moment: [D]
     X:    -0.9065      Y:    -0.4695      Z:     0.5348     Total:     1.1525

*** Psi4 exiting successfully. Buy a developer a beer!
