                               Psi4 1.3.2 release

  ==> Input File <==

--------------------------------------------------------------------------
#psi4
#
memory 32 gb

molecule  {
0 1
  S        1.4017960     0.0318670    -0.2267910
  C        0.3439980    -1.2907520     0.4304430
  C       -1.0366050    -1.1980160    -0.1526860
  C       -1.6877140    -0.0149620    -0.1717330
  C       -1.0273490     1.2315180     0.1753310
  C        0.3208110     1.3651600     0.1119950
  H        0.3169817    -1.1961011     1.6237665
  H        0.8310050    -2.2339400     0.1718380
  H       -1.5205060    -2.1086570    -0.4970330
  H       -2.7141090     0.0333350    -0.5285000
  H       -1.6282610     2.1139460     0.3806850
  H        0.8050420     2.3317560     0.2174670
units angstrom
no_reorient  #important for SAPT in psi4, default
symmetry c1  #important for SAPT in psi4, default
}

set PROPERTIES_ORIGIN ["COM"]
properties('MP2/aug-cc-pvtz', properties = ['dipole'])
--------------------------------------------------------------------------

    Molecular point group: c1
  Charge       = 0
  Multiplicity = 1
  Basis Set: AUG-CC-PVTZ
    Blend: AUG-CC-PVTZ
  Basis Set: (AUG-CC-PVTZ AUX)
    Blend: AUG-CC-PVTZ-JKFIT

    Orbital Energies [Eh]
    ---------------------

    Doubly Occupied:

       1A    -91.963226     2A    -11.278571     3A    -11.269227
       4A    -11.244247     5A    -11.241658     6A    -11.239985
       7A     -8.963645     8A     -6.644878     9A     -6.643932
      10A     -6.643078    11A     -1.141045    12A     -1.025412
      13A     -1.017646    14A     -0.855533    15A     -0.817153
      16A     -0.693941    17A     -0.674229    18A     -0.608277
      19A     -0.596723    20A     -0.576382    21A     -0.535195
      22A     -0.484303    23A     -0.461834    24A     -0.448723
      25A     -0.364460    26A     -0.297530

  @DF-RHF Final Energy:  -590.39880994313944

   => Energetics <=

    Nuclear Repulsion Energy =            271.7420168020334472
    One-Electron Energy =               -1348.8199911017779868
    Two-Electron Energy =                 486.6791643566050425
    Total Energy =                       -590.3988099431394403
  Basis Set: (AUG-CC-PVTZ AUX)
    Blend: AUG-CC-PVTZ-RI
    Molecular point group: c1

    Geometry (in Angstrom), charge = 0, multiplicity = 1:

       Center              X                  Y                   Z               Mass
    ------------   -----------------  -----------------  -----------------  -----------------
         S            1.362665110410     0.020988733772    -0.215039728822    31.972071174400
         C            0.304867110410    -1.301630266228     0.442194271178    12.000000000000
         C           -1.075735889590    -1.208894266228    -0.140934728822    12.000000000000
         C           -1.726844889590    -0.025840266228    -0.159981728822    12.000000000000
         C           -1.066479889590     1.220639733772     0.187082271178    12.000000000000
         C            0.281680110410     1.354281733772     0.123746271178    12.000000000000
         H            0.277850810410    -1.206979366228     1.635517771178     1.007825032230
         H            0.791874110410    -2.244818266228     0.183589271178     1.007825032230
         H           -1.559636889590    -2.119535266228    -0.485281728822     1.007825032230
         H           -2.753239889590     0.022456733772    -0.516748728822     1.007825032230
         H           -1.667391889590     2.103067733772     0.392436271178     1.007825032230
         H            0.765911110410     2.320877733772     0.229218271178     1.007825032230

  Basis Set: AUG-CC-PVTZ
    Blend: AUG-CC-PVTZ
  Basis Set: (AUG-CC-PVTZ AUX)
    Blend: AUG-CC-PVTZ-JKFIT
	 Reference Energy          =    -590.3988099431394403 [Eh]
	 Singles Energy            =      -0.0000000000000000 [Eh]
	 Same-Spin Energy          =      -0.2680774237894694 [Eh]
	 Opposite-Spin Energy      =      -0.8634540616537323 [Eh]
	 Correlation Energy        =      -1.1315314854432017 [Eh]
	 Total Energy              =    -591.5303414285826875 [Eh]

	 ================> DF-SCS-MP2 Energies <==================
	-----------------------------------------------------------
	 SCS Same-Spin Scale       =       0.3333333333333333 [-]
	 SCS Opposite-Spin Scale   =       1.2000000000000000 [-]
	 SCS Same-Spin Energy      =      -0.0893591412631565 [Eh]
	 SCS Opposite-Spin Energy  =      -1.0361448739844787 [Eh]
	 SCS Correlation Energy    =      -1.1255040152476352 [Eh]
	 SCS Total Energy          =    -591.5243139583870970 [Eh]
	-----------------------------------------------------------

  Dipole Moment: [D]
     X:    -0.8641      Y:    -0.3122      Z:     0.4301     Total:     1.0144

*** Psi4 exiting successfully. Buy a developer a beer!
