                               Psi4 1.3.2 release

  ==> Input File <==

--------------------------------------------------------------------------
#psi4
#
memory 32 gb

molecule  {
0 1
  S        1.4017960     0.0318670    -0.2267910
  C        0.3439980    -1.2907520     0.4304430
  C       -1.0366050    -1.1980160    -0.1526860
  C       -1.6395025    -0.1025615    -0.1703227
  C       -1.0273490     1.2315180     0.1753310
  C        0.3208110     1.3651600     0.1119950
  H        0.3192380    -1.2040060     1.5241050
  H        0.8310050    -2.2339400     0.1718380
  H       -1.5205060    -2.1086570    -0.4970330
  H       -2.7141090     0.0333350    -0.5285000
  H       -1.6282610     2.1139460     0.3806850
  H        0.8050420     2.3317560     0.2174670
units angstrom
no_reorient  #important for SAPT in psi4, default
symmetry c1  #important for SAPT in psi4, default
}

set PROPERTIES_ORIGIN ["COM"]
properties('MP2/aug-cc-pvtz', properties = ['dipole'])
--------------------------------------------------------------------------

    Molecular point group: c1
  Charge       = 0
  Multiplicity = 1
  Basis Set: AUG-CC-PVTZ
    Blend: AUG-CC-PVTZ
  Basis Set: (AUG-CC-PVTZ AUX)
    Blend: AUG-CC-PVTZ-JKFIT

    Orbital Energies [Eh]
    ---------------------

    Doubly Occupied:

       1A    -91.960463     2A    -11.267147     3A    -11.266587
       4A    -11.243483     5A    -11.233973     6A    -11.226936
       7A     -8.961082     8A     -6.642343     9A     -6.641382
      10A     -6.640511    11A     -1.147851    12A     -1.038576
      13A     -1.014190    14A     -0.865118    15A     -0.806755
      16A     -0.689261    17A     -0.678986    18A     -0.610648
      19A     -0.603694    20A     -0.590003    21A     -0.518721
      22A     -0.478927    23A     -0.462006    24A     -0.451785
      25A     -0.373159    26A     -0.306002

  @DF-RHF Final Energy:  -590.39438897717309

   => Energetics <=

    Nuclear Repulsion Energy =            273.2575580673105833
    One-Electron Energy =               -1351.8647133943484278
    Two-Electron Energy =                 488.2127663498647507
    Total Energy =                       -590.3943889771730937
  Basis Set: (AUG-CC-PVTZ AUX)
    Blend: AUG-CC-PVTZ-RI
    Molecular point group: c1

    Geometry (in Angstrom), charge = 0, multiplicity = 1:

       Center              X                  Y                   Z               Mass
    ------------   -----------------  -----------------  -----------------  -----------------
         S            1.356739607916     0.031794399257    -0.214187672218    31.972071174400
         C            0.298941607916    -1.290824600743     0.443046327782    12.000000000000
         C           -1.081661392084    -1.198088600743    -0.140082672218    12.000000000000
         C           -1.684558892084    -0.102634100743    -0.157719372218    12.000000000000
         C           -1.072405392084     1.231445399257     0.187934327782    12.000000000000
         C            0.275754607916     1.365087399257     0.124598327782    12.000000000000
         H            0.274181607916    -1.204078600743     1.536708327782     1.007825032230
         H            0.785948607916    -2.234012600743     0.184441327782     1.007825032230
         H           -1.565562392084    -2.108729600743    -0.484429672218     1.007825032230
         H           -2.759165392084     0.033262399257    -0.515896672218     1.007825032230
         H           -1.673317392084     2.113873399257     0.393288327782     1.007825032230
         H            0.759985607916     2.331683399257     0.230070327782     1.007825032230

  Basis Set: AUG-CC-PVTZ
    Blend: AUG-CC-PVTZ
  Basis Set: (AUG-CC-PVTZ AUX)
    Blend: AUG-CC-PVTZ-JKFIT
	 Reference Energy          =    -590.3943889771730937 [Eh]
	 Singles Energy            =      -0.0000000000000000 [Eh]
	 Same-Spin Energy          =      -0.2661524167532758 [Eh]
	 Opposite-Spin Energy      =      -0.8601055352027511 [Eh]
	 Correlation Energy        =      -1.1262579519560270 [Eh]
	 Total Energy              =    -591.5206469291291569 [Eh]

	 ================> DF-SCS-MP2 Energies <==================
	-----------------------------------------------------------
	 SCS Same-Spin Scale       =       0.3333333333333333 [-]
	 SCS Opposite-Spin Scale   =       1.2000000000000000 [-]
	 SCS Same-Spin Energy      =      -0.0887174722510919 [Eh]
	 SCS Opposite-Spin Energy  =      -1.0321266422433013 [Eh]
	 SCS Correlation Energy    =      -1.1208441144943933 [Eh]
	 SCS Total Energy          =    -591.5152330916674828 [Eh]
	-----------------------------------------------------------

  Dipole Moment: [D]
     X:    -0.9075      Y:    -0.3750      Z:     0.4971     Total:     1.1006

*** Psi4 exiting successfully. Buy a developer a beer!
