                               Psi4 1.3.2 release

  ==> Input File <==

--------------------------------------------------------------------------
#psi4
#
memory 32 gb

molecule  {
0 1
  S        1.4017960     0.0318670    -0.2267910
  C        0.3431883    -1.2651211     0.4358471
  C       -1.0366050    -1.1980160    -0.1526860
  C       -1.6877140    -0.0149620    -0.1717330
  C       -1.0273490     1.2315180     0.1753310
  C        0.3208110     1.3651600     0.1119950
  H        0.3192380    -1.2040060     1.5241050
  H        0.8310050    -2.2339400     0.1718380
  H       -1.5205060    -2.1086570    -0.4970330
  H       -2.7141090     0.0333350    -0.5285000
  H       -1.6282610     2.1139460     0.3806850
  H        0.8050420     2.3317560     0.2174670
units angstrom
no_reorient  #important for SAPT in psi4, default
symmetry c1  #important for SAPT in psi4, default
}

set PROPERTIES_ORIGIN ["COM"]
properties('MP2/aug-cc-pvtz', properties = ['dipole'])
--------------------------------------------------------------------------

    Molecular point group: c1
  Charge       = 0
  Multiplicity = 1
  Basis Set: AUG-CC-PVTZ
    Blend: AUG-CC-PVTZ
  Basis Set: (AUG-CC-PVTZ AUX)
    Blend: AUG-CC-PVTZ-JKFIT

    Orbital Energies [Eh]
    ---------------------

    Doubly Occupied:

       1A    -91.962399     2A    -11.268491     3A    -11.267693
       4A    -11.243160     5A    -11.241194     6A    -11.239076
       7A     -8.963091     8A     -6.644351     9A     -6.643382
      10A     -6.642512    11A     -1.143040    12A     -1.025817
      13A     -1.020360    14A     -0.858079    15A     -0.817530
      16A     -0.693455    17A     -0.681090    18A     -0.606569
      19A     -0.599301    20A     -0.584966    21A     -0.533086
      22A     -0.484327    23A     -0.463518    24A     -0.450930
      25A     -0.364302    26A     -0.298349

  @DF-RHF Final Energy:  -590.40443155540413

   => Energetics <=

    Nuclear Repulsion Energy =            272.5751859454968553
    One-Electron Energy =               -1350.4790996155907123
    Two-Electron Energy =                 487.4994821146898971
    Total Energy =                       -590.4044315554040168
  Basis Set: (AUG-CC-PVTZ AUX)
    Blend: AUG-CC-PVTZ-RI
    Molecular point group: c1

    Geometry (in Angstrom), charge = 0, multiplicity = 1:

       Center              X                  Y                   Z               Mass
    ------------   -----------------  -----------------  -----------------  -----------------
         S            1.362741038983     0.017932142921    -0.214676614051    31.972071174400
         C            0.304133338983    -1.279055957079     0.447961485949    12.000000000000
         C           -1.075659961017    -1.211950857079    -0.140571614051    12.000000000000
         C           -1.726768961017    -0.028896857079    -0.159618614051    12.000000000000
         C           -1.066403961017     1.217583142921     0.187445385949    12.000000000000
         C            0.281756038983     1.351225142921     0.124109385949    12.000000000000
         H            0.280183038983    -1.217940857079     1.536219385949     1.007825032230
         H            0.791950038983    -2.247874857079     0.183952385949     1.007825032230
         H           -1.559560961017    -2.122591857079    -0.484918614051     1.007825032230
         H           -2.753163961017     0.019400142921    -0.516385614051     1.007825032230
         H           -1.667315961017     2.100011142921     0.392799385949     1.007825032230
         H            0.765987038983     2.317821142921     0.229581385949     1.007825032230

  Basis Set: AUG-CC-PVTZ
    Blend: AUG-CC-PVTZ
  Basis Set: (AUG-CC-PVTZ AUX)
    Blend: AUG-CC-PVTZ-JKFIT
	 Reference Energy          =    -590.4044315554041304 [Eh]
	 Singles Energy            =      -0.0000000000000000 [Eh]
	 Same-Spin Energy          =      -0.2679805022192858 [Eh]
	 Opposite-Spin Energy      =      -0.8628321601210980 [Eh]
	 Correlation Energy        =      -1.1308126623403838 [Eh]
	 Total Energy              =    -591.5352442177445482 [Eh]

	 ================> DF-SCS-MP2 Energies <==================
	-----------------------------------------------------------
	 SCS Same-Spin Scale       =       0.3333333333333333 [-]
	 SCS Opposite-Spin Scale   =       1.2000000000000000 [-]
	 SCS Same-Spin Energy      =      -0.0893268340730952 [Eh]
	 SCS Opposite-Spin Energy  =      -1.0353985921453175 [Eh]
	 SCS Correlation Energy    =      -1.1247254262184128 [Eh]
	 SCS Total Energy          =    -591.5291569816225774 [Eh]
	-----------------------------------------------------------

  Dipole Moment: [D]
     X:    -0.8538      Y:    -0.3361      Z:     0.4885     Total:     1.0395

*** Psi4 exiting successfully. Buy a developer a beer!
