                               Psi4 1.3.2 release

  ==> Input File <==

--------------------------------------------------------------------------
#psi4
#
memory 32 gb

molecule  {
0 1
  S        1.4017960     0.0318670    -0.2267910
  C        0.3439980    -1.2907520     0.4304430
  C       -1.0366050    -1.1980160    -0.1526860
  C       -1.6685576    -0.0045104    -0.1628235
  C       -1.0273490     1.2315180     0.1753310
  C        0.3208110     1.3651600     0.1119950
  H        0.3192380    -1.2040060     1.5241050
  H        0.8310050    -2.2339400     0.1718380
  H       -1.5205060    -2.1086570    -0.4970330
  H       -2.7141090     0.0333350    -0.5285000
  H       -1.6282610     2.1139460     0.3806850
  H        0.8050420     2.3317560     0.2174670
units angstrom
no_reorient  #important for SAPT in psi4, default
symmetry c1  #important for SAPT in psi4, default
}

set PROPERTIES_ORIGIN ["COM"]
properties('MP2/aug-cc-pvtz', properties = ['dipole'])
--------------------------------------------------------------------------

    Molecular point group: c1
  Charge       = 0
  Multiplicity = 1
  Basis Set: AUG-CC-PVTZ
    Blend: AUG-CC-PVTZ
  Basis Set: (AUG-CC-PVTZ AUX)
    Blend: AUG-CC-PVTZ-JKFIT

    Orbital Energies [Eh]
    ---------------------

    Doubly Occupied:

       1A    -91.962457     2A    -11.269262     3A    -11.267235
       4A    -11.243057     5A    -11.240133     6A    -11.239204
       7A     -8.962938     8A     -6.644172     9A     -6.643228
      10A     -6.642375    11A     -1.143720    12A     -1.027090
      13A     -1.019592    14A     -0.858860    15A     -0.818877
      16A     -0.691916    17A     -0.680829    18A     -0.608499
      19A     -0.601917    20A     -0.584623    21A     -0.530450
      22A     -0.486007    23A     -0.463814    24A     -0.451212
      25A     -0.364175    26A     -0.296922

  @DF-RHF Final Energy:  -590.40422976094544

   => Energetics <=

    Nuclear Repulsion Energy =            272.5595745656915483
    One-Electron Energy =               -1350.4424779412961470
    Two-Electron Energy =                 487.4786736146591579
    Total Energy =                       -590.4042297609455545
  Basis Set: (AUG-CC-PVTZ AUX)
    Blend: AUG-CC-PVTZ-RI
    Molecular point group: c1

    Geometry (in Angstrom), charge = 0, multiplicity = 1:

       Center              X                  Y                   Z               Mass
    ------------   -----------------  -----------------  -----------------  -----------------
         S            1.360296684850     0.019790472024    -0.215105763408    31.972071174400
         C            0.302498684850    -1.302828527976     0.442128236592    12.000000000000
         C           -1.078104315150    -1.210092527976    -0.141000763408    12.000000000000
         C           -1.710056915150    -0.016586927976    -0.151138263408    12.000000000000
         C           -1.068848315150     1.219441472024     0.187016236592    12.000000000000
         C            0.279311684850     1.353083472024     0.123680236592    12.000000000000
         H            0.277738684850    -1.216082527976     1.535790236592     1.007825032230
         H            0.789505684850    -2.246016527976     0.183523236592     1.007825032230
         H           -1.562005315150    -2.120733527976    -0.485347763408     1.007825032230
         H           -2.755608315150     0.021258472024    -0.516814763408     1.007825032230
         H           -1.669760315150     2.101869472024     0.392370236592     1.007825032230
         H            0.763542684850     2.319679472024     0.229152236592     1.007825032230

  Basis Set: AUG-CC-PVTZ
    Blend: AUG-CC-PVTZ
  Basis Set: (AUG-CC-PVTZ AUX)
    Blend: AUG-CC-PVTZ-JKFIT
	 Reference Energy          =    -590.4042297609454408 [Eh]
	 Singles Energy            =      -0.0000000000000000 [Eh]
	 Same-Spin Energy          =      -0.2682214300460042 [Eh]
	 Opposite-Spin Energy      =      -0.8629543708496388 [Eh]
	 Correlation Energy        =      -1.1311758008956430 [Eh]
	 Total Energy              =    -591.5354055618411167 [Eh]

	 ================> DF-SCS-MP2 Energies <==================
	-----------------------------------------------------------
	 SCS Same-Spin Scale       =       0.3333333333333333 [-]
	 SCS Opposite-Spin Scale   =       1.2000000000000000 [-]
	 SCS Same-Spin Energy      =      -0.0894071433486681 [Eh]
	 SCS Opposite-Spin Energy  =      -1.0355452450195666 [Eh]
	 SCS Correlation Energy    =      -1.1249523883682346 [Eh]
	 SCS Total Energy          =    -591.5291821493136695 [Eh]
	-----------------------------------------------------------

  Dipole Moment: [D]
     X:    -0.8361      Y:    -0.3458      Z:     0.5010     Total:     1.0342

*** Psi4 exiting successfully. Buy a developer a beer!
