                               Psi4 1.3.2 release

  ==> Input File <==

--------------------------------------------------------------------------
#psi4
#
memory 32 gb

molecule  {
0 1
  S        1.4017960     0.0318670    -0.2267910
  C        0.3439980    -1.2907520     0.4304430
  C       -1.0366050    -1.1980160    -0.1526860
  C       -1.6877140    -0.0149620    -0.1717330
  C       -1.0273490     1.2315180     0.1753310
  C        0.1220036     1.3454524     0.1213349
  H        0.3192380    -1.2040060     1.5241050
  H        0.8310050    -2.2339400     0.1718380
  H       -1.5205060    -2.1086570    -0.4970330
  H       -2.7141090     0.0333350    -0.5285000
  H       -1.6282610     2.1139460     0.3806850
  H        0.8050420     2.3317560     0.2174670
units angstrom
no_reorient  #important for SAPT in psi4, default
symmetry c1  #important for SAPT in psi4, default
}

set PROPERTIES_ORIGIN ["COM"]
properties('MP2/aug-cc-pvtz', properties = ['dipole'])
--------------------------------------------------------------------------

    Molecular point group: c1
  Charge       = 0
  Multiplicity = 1
  Basis Set: AUG-CC-PVTZ
    Blend: AUG-CC-PVTZ
  Basis Set: (AUG-CC-PVTZ AUX)
    Blend: AUG-CC-PVTZ-JKFIT

    Orbital Energies [Eh]
    ---------------------

    Doubly Occupied:

       1A    -91.956316     2A    -11.263885     3A    -11.253608
       4A    -11.244699     5A    -11.240111     6A    -11.213221
       7A     -8.955526     8A     -6.636604     9A     -6.635589
      10A     -6.634732    11A     -1.163301    12A     -1.056102
      13A     -1.003677    14A     -0.862594    15A     -0.806985
      16A     -0.697509    17A     -0.667567    18A     -0.625009
      19A     -0.604225    20A     -0.575027    21A     -0.532533
      22A     -0.486407    23A     -0.467535    24A     -0.428924
      25A     -0.356466    26A     -0.324396

  @DF-RHF Final Energy:  -590.34349384987468

   => Energetics <=

    Nuclear Repulsion Energy =            273.5964499183764929
    One-Electron Energy =               -1352.4947908220181034
    Two-Electron Energy =                 488.5548470537669346
    Total Energy =                       -590.3434938498746760
  Basis Set: (AUG-CC-PVTZ AUX)
    Blend: AUG-CC-PVTZ-RI
    Molecular point group: c1

    Geometry (in Angstrom), charge = 0, multiplicity = 1:

       Center              X                  Y                   Z               Mass
    ------------   -----------------  -----------------  -----------------  -----------------
         S            1.386980950449     0.023482718640    -0.215158455222    31.972071174400
         C            0.329182950449    -1.299136281360     0.442075544778    12.000000000000
         C           -1.051420049551    -1.206400281360    -0.141053455222    12.000000000000
         C           -1.702529049551    -0.023346281360    -0.160100455222    12.000000000000
         C           -1.042164049551     1.223133718640     0.186963544778    12.000000000000
         C            0.107188550449     1.337068118640     0.132967444778    12.000000000000
         H            0.304422950449    -1.212390281360     1.535737544778     1.007825032230
         H            0.816189950449    -2.242324281360     0.183470544778     1.007825032230
         H           -1.535321049551    -2.117041281360    -0.485400455222     1.007825032230
         H           -2.728924049551     0.024950718640    -0.516867455222     1.007825032230
         H           -1.643076049551     2.105561718640     0.392317544778     1.007825032230
         H            0.790226950449     2.323371718640     0.229099544778     1.007825032230

  Basis Set: AUG-CC-PVTZ
    Blend: AUG-CC-PVTZ
  Basis Set: (AUG-CC-PVTZ AUX)
    Blend: AUG-CC-PVTZ-JKFIT
	 Reference Energy          =    -590.3434938498746760 [Eh]
	 Singles Energy            =      -0.0000000000000000 [Eh]
	 Same-Spin Energy          =      -0.2658937591350133 [Eh]
	 Opposite-Spin Energy      =      -0.8601918610956589 [Eh]
	 Correlation Energy        =      -1.1260856202306724 [Eh]
	 Total Energy              =    -591.4695794701053728 [Eh]

	 ================> DF-SCS-MP2 Energies <==================
	-----------------------------------------------------------
	 SCS Same-Spin Scale       =       0.3333333333333333 [-]
	 SCS Opposite-Spin Scale   =       1.2000000000000000 [-]
	 SCS Same-Spin Energy      =      -0.0886312530450044 [Eh]
	 SCS Opposite-Spin Energy  =      -1.0322302333147906 [Eh]
	 SCS Correlation Energy    =      -1.1208614863597950 [Eh]
	 SCS Total Energy          =    -591.4643553362344619 [Eh]
	-----------------------------------------------------------

  Dipole Moment: [D]
     X:    -1.2261      Y:    -0.2176      Z:     0.5356     Total:     1.3555

*** Psi4 exiting successfully. Buy a developer a beer!
