                               Psi4 1.4a3.dev225

  ==> Input File <==

--------------------------------------------------------------------------
#psi4
#
memory 32 gb

molecule  {
0 1
  S        1.4017960     0.0318670    -0.2267910
  C        0.3556436    -1.2761909     0.4232073
  C       -1.0366050    -1.1980160    -0.1526860
  C       -1.6877140    -0.0149620    -0.1717330
  C       -1.0273490     1.2315180     0.1753310
  C        0.3208110     1.3651600     0.1119950
  H        0.3192380    -1.2040060     1.5241050
  H        0.8310050    -2.2339400     0.1718380
  H       -1.5205060    -2.1086570    -0.4970330
  H       -2.7141090     0.0333350    -0.5285000
  H       -1.6282610     2.1139460     0.3806850
  H        0.8050420     2.3317560     0.2174670
units angstrom
no_reorient  #important for SAPT in psi4, default
symmetry c1  #important for SAPT in psi4, default
}

set PROPERTIES_ORIGIN ["COM"]
properties('MP2/aug-cc-pvtz', properties = ['dipole'])
--------------------------------------------------------------------------

    Molecular point group: c1
  Charge       = 0
  Multiplicity = 1
  Basis Set: AUG-CC-PVTZ
    Blend: AUG-CC-PVTZ
  Basis Set: (AUG-CC-PVTZ AUX)
    Blend: AUG-CC-PVTZ-JKFIT

    Orbital Energies [Eh]
    ---------------------

    Doubly Occupied:

       1A    -91.962208     2A    -11.268643     3A    -11.267715
       4A    -11.243771     5A    -11.241305     6A    -11.239130
       7A     -8.962972     8A     -6.644241     9A     -6.643289
      10A     -6.642407    11A     -1.142499    12A     -1.025409
      13A     -1.020996    14A     -0.858375    15A     -0.817692
      16A     -0.693804    17A     -0.679633    18A     -0.607607
      19A     -0.599093    20A     -0.584170    21A     -0.534620
      22A     -0.486006    23A     -0.463109    24A     -0.450014
      25A     -0.364691    26A     -0.297746

  @DF-RHF Final Energy:  -590.40509951375429

   => Energetics <=

    Nuclear Repulsion Energy =            272.4781239632527559
    One-Electron Energy =               -1350.2841597546398589
    Two-Electron Energy =                 487.4009362776328089
    Total Energy =                       -590.4050995137542941
  Basis Set: (AUG-CC-PVTZ AUX)
    Blend: AUG-CC-PVTZ-RI
    Molecular point group: c1

    Geometry (in Angstrom), charge = 0, multiplicity = 1:

       Center              X                  Y                   Z               Mass
    ------------   -----------------  -----------------  -----------------  -----------------
         S            1.361216196172     0.019287365593    -0.213129183788    31.972071174400
         C            0.315063796172    -1.288770534407     0.436869116212    12.000000000000
         C           -1.077184803828    -1.210595634407    -0.139024183788    12.000000000000
         C           -1.728293803828    -0.027541634407    -0.158071183788    12.000000000000
         C           -1.067928803828     1.218938365593     0.188992816212    12.000000000000
         C            0.280231196172     1.352580365593     0.125656816212    12.000000000000
         H            0.278658196172    -1.216585634407     1.537766816212     1.007825032230
         H            0.790425196172    -2.246519634407     0.185499816212     1.007825032230
         H           -1.561085803828    -2.121236634407    -0.483371183788     1.007825032230
         H           -2.754688803828     0.020755365593    -0.514838183788     1.007825032230
         H           -1.668840803828     2.101366365593     0.394346816212     1.007825032230
         H            0.764462196172     2.319176365593     0.231128816212     1.007825032230

  Basis Set: AUG-CC-PVTZ
    Blend: AUG-CC-PVTZ
  Basis Set: (AUG-CC-PVTZ AUX)
    Blend: AUG-CC-PVTZ-JKFIT
	 Reference Energy          =    -590.4050995137542941 [Eh]
	 Singles Energy            =      -0.0000000000000000 [Eh]
	 Same-Spin Energy          =      -0.2678496896697325 [Eh]
	 Opposite-Spin Energy      =      -0.8626153687525363 [Eh]
	 Correlation Energy        =      -1.1304650584222689 [Eh]
	 Total Energy              =    -591.5355645721765541 [Eh]

	 ================> DF-SCS-MP2 Energies <==================
	-----------------------------------------------------------
	 SCS Same-Spin Scale       =       0.3333333333333333 [-]
	 SCS Opposite-Spin Scale   =       1.2000000000000000 [-]
	 SCS Same-Spin Energy      =      -0.0892832298899108 [Eh]
	 SCS Opposite-Spin Energy  =      -1.0351384425030434 [Eh]
	 SCS Correlation Energy    =      -1.1244216723929543 [Eh]
	 SCS Total Energy          =    -591.5295211861472353 [Eh]
	-----------------------------------------------------------

  Dipole Moment: [D]
     X:    -0.8547      Y:    -0.3429      Z:     0.4810     Total:     1.0390

*** Psi4 exiting successfully. Buy a developer a beer!
