                               Psi4 1.3.2 release

  ==> Input File <==

--------------------------------------------------------------------------
#psi4
#
memory 32 gb

molecule  {
0 1
  S        1.4017960     0.0318670    -0.2267910
  C        0.3439980    -1.2907520     0.4304430
  C       -1.0366050    -1.1980160    -0.1526860
  C       -1.6877140    -0.0149620    -0.1717330
  C       -1.0273490     1.2315180     0.1753310
  C        0.3208110     1.3651600     0.1119950
  H        0.3192380    -1.2040060     1.5241050
  H        0.8310050    -2.2339400     0.1718380
  H       -1.5205060    -2.1086570    -0.4970330
  H       -2.7141090     0.0333350    -0.5285000
  H       -1.5729881     2.0327788     0.3617962
  H        0.8050420     2.3317560     0.2174670
units angstrom
no_reorient  #important for SAPT in psi4, default
symmetry c1  #important for SAPT in psi4, default
}

set PROPERTIES_ORIGIN ["COM"]
properties('MP2/aug-cc-pvtz', properties = ['dipole'])
--------------------------------------------------------------------------

    Molecular point group: c1
  Charge       = 0
  Multiplicity = 1
  Basis Set: AUG-CC-PVTZ
    Blend: AUG-CC-PVTZ
  Basis Set: (AUG-CC-PVTZ AUX)
    Blend: AUG-CC-PVTZ-JKFIT

    Orbital Energies [Eh]
    ---------------------

    Doubly Occupied:

       1A    -91.961584     2A    -11.268341     3A    -11.267487
       4A    -11.242861     5A    -11.238600     6A    -11.229042
       7A     -8.962097     8A     -6.643337     9A     -6.642397
      10A     -6.641540    11A     -1.142246    12A     -1.029089
      13A     -1.019505    14A     -0.864453    15A     -0.818177
      16A     -0.697244    17A     -0.690183    18A     -0.616010
      19A     -0.600557    20A     -0.584336    21A     -0.534349
      22A     -0.486213    23A     -0.463826    24A     -0.450688
      25A     -0.363467    26A     -0.297382

  @DF-RHF Final Energy:  -590.39954434846447

   => Energetics <=

    Nuclear Repulsion Energy =            272.7370580915020355
    One-Electron Energy =               -1350.7631789760855554
    Two-Electron Energy =                 487.6265765361192166
    Total Energy =                       -590.3995443484643602
  Basis Set: (AUG-CC-PVTZ AUX)
    Blend: AUG-CC-PVTZ-RI
    Molecular point group: c1

    Geometry (in Angstrom), charge = 0, multiplicity = 1:

       Center              X                  Y                   Z               Mass
    ------------   -----------------  -----------------  -----------------  -----------------
         S            1.362073599017     0.021904567156    -0.213820802554    31.972071174400
         C            0.304275599017    -1.300714432844     0.443413197446    12.000000000000
         C           -1.076327400983    -1.207978432844    -0.139715802554    12.000000000000
         C           -1.727436400983    -0.024924432844    -0.158762802554    12.000000000000
         C           -1.067071400983     1.221555567156     0.188301197446    12.000000000000
         C            0.281088599017     1.355197567156     0.124965197446    12.000000000000
         H            0.279515599017    -1.213968432844     1.537075197446     1.007825032230
         H            0.791282599017    -2.243902432844     0.184808197446     1.007825032230
         H           -1.560228400983    -2.118619432844    -0.484062802554     1.007825032230
         H           -2.753831400983     0.023372567156    -0.515529802554     1.007825032230
         H           -1.612710500983     2.022816367156     0.374766397446     1.007825032230
         H            0.765319599017     2.321793567156     0.230437197446     1.007825032230

  Basis Set: AUG-CC-PVTZ
    Blend: AUG-CC-PVTZ
  Basis Set: (AUG-CC-PVTZ AUX)
    Blend: AUG-CC-PVTZ-JKFIT
	 Reference Energy          =    -590.3995443484644738 [Eh]
	 Singles Energy            =      -0.0000000000000000 [Eh]
	 Same-Spin Energy          =      -0.2676881757438391 [Eh]
	 Opposite-Spin Energy      =      -0.8622287649343791 [Eh]
	 Correlation Energy        =      -1.1299169406782181 [Eh]
	 Total Energy              =    -591.5294612891426596 [Eh]

	 ================> DF-SCS-MP2 Energies <==================
	-----------------------------------------------------------
	 SCS Same-Spin Scale       =       0.3333333333333333 [-]
	 SCS Opposite-Spin Scale   =       1.2000000000000000 [-]
	 SCS Same-Spin Energy      =      -0.0892293919146130 [Eh]
	 SCS Opposite-Spin Energy  =      -1.0346745179212549 [Eh]
	 SCS Correlation Energy    =      -1.1239039098358679 [Eh]
	 SCS Total Energy          =    -591.5234482583003910 [Eh]
	-----------------------------------------------------------

  Dipole Moment: [D]
     X:    -0.8687      Y:    -0.3288      Z:     0.4995     Total:     1.0546

*** Psi4 exiting successfully. Buy a developer a beer!
