                               Psi4 1.3.2 release

  ==> Input File <==

--------------------------------------------------------------------------
#psi4
#
memory 32 gb

molecule  {
0 1
  S        1.4017960     0.0318670    -0.2267910
  C        0.3439980    -1.2907520     0.4304430
  C       -1.0366050    -1.1980160    -0.1526860
  C       -1.6099570     0.0246510    -0.1360872
  C       -1.0273490     1.2315180     0.1753310
  C        0.3208110     1.3651600     0.1119950
  H        0.3192380    -1.2040060     1.5241050
  H        0.8310050    -2.2339400     0.1718380
  H       -1.5205060    -2.1086570    -0.4970330
  H       -2.7141090     0.0333350    -0.5285000
  H       -1.6282610     2.1139460     0.3806850
  H        0.8050420     2.3317560     0.2174670
units angstrom
no_reorient  #important for SAPT in psi4, default
symmetry c1  #important for SAPT in psi4, default
}

set PROPERTIES_ORIGIN ["COM"]
properties('MP2/aug-cc-pvtz', properties = ['dipole'])
--------------------------------------------------------------------------

    Molecular point group: c1
  Charge       = 0
  Multiplicity = 1
  Basis Set: AUG-CC-PVTZ
    Blend: AUG-CC-PVTZ
  Basis Set: (AUG-CC-PVTZ AUX)
    Blend: AUG-CC-PVTZ-JKFIT

    Orbital Energies [Eh]
    ---------------------

    Doubly Occupied:

       1A    -91.963908     2A    -11.271261     3A    -11.265582
       4A    -11.242249     5A    -11.240297     6A    -11.235941
       7A     -8.964323     8A     -6.645541     9A     -6.644599
      10A     -6.643772    11A     -1.150756    12A     -1.031236
      13A     -1.020149    14A     -0.856871    15A     -0.824845
      16A     -0.690283    17A     -0.678991    18A     -0.610455
      19A     -0.607020    20A     -0.586131    21A     -0.515850
      22A     -0.491349    23A     -0.466384    24A     -0.450485
      25A     -0.365299    26A     -0.294538

  @DF-RHF Final Energy:  -590.39251257074136

   => Energetics <=

    Nuclear Repulsion Energy =            273.6663456518152771
    One-Electron Energy =               -1352.6014817781265265
    Two-Electron Energy =                 488.5426235555697758
    Total Energy =                       -590.3925125707413599
  Basis Set: (AUG-CC-PVTZ AUX)
    Blend: AUG-CC-PVTZ-RI
    Molecular point group: c1

    Geometry (in Angstrom), charge = 0, multiplicity = 1:

       Center              X                  Y                   Z               Mass
    ------------   -----------------  -----------------  -----------------  -----------------
         S            1.353122493655     0.016220381289    -0.218378960748    31.972071174400
         C            0.295324493655    -1.306398618711     0.438855039252    12.000000000000
         C           -1.085278506345    -1.213662618711    -0.144273960748    12.000000000000
         C           -1.658630506345     0.009004381289    -0.127675160748    12.000000000000
         C           -1.076022506345     1.215871381289     0.183743039252    12.000000000000
         C            0.272137493655     1.349513381289     0.120407039252    12.000000000000
         H            0.270564493655    -1.219652618711     1.532517039252     1.007825032230
         H            0.782331493655    -2.249586618711     0.180250039252     1.007825032230
         H           -1.569179506345    -2.124303618711    -0.488620960748     1.007825032230
         H           -2.762782506345     0.017688381289    -0.520087960748     1.007825032230
         H           -1.676934506345     2.098299381289     0.389097039252     1.007825032230
         H            0.756368493655     2.316109381289     0.225879039252     1.007825032230

  Basis Set: AUG-CC-PVTZ
    Blend: AUG-CC-PVTZ
  Basis Set: (AUG-CC-PVTZ AUX)
    Blend: AUG-CC-PVTZ-JKFIT
	 Reference Energy          =    -590.3925125707413599 [Eh]
	 Singles Energy            =      -0.0000000000000000 [Eh]
	 Same-Spin Energy          =      -0.2696960952147432 [Eh]
	 Opposite-Spin Energy      =      -0.8645122015285946 [Eh]
	 Correlation Energy        =      -1.1342082967433378 [Eh]
	 Total Energy              =    -591.5267208674846415 [Eh]

	 ================> DF-SCS-MP2 Energies <==================
	-----------------------------------------------------------
	 SCS Same-Spin Scale       =       0.3333333333333333 [-]
	 SCS Opposite-Spin Scale   =       1.2000000000000000 [-]
	 SCS Same-Spin Energy      =      -0.0898986984049144 [Eh]
	 SCS Opposite-Spin Energy  =      -1.0374146418343135 [Eh]
	 SCS Correlation Energy    =      -1.1273133402392279 [Eh]
	 SCS Total Energy          =    -591.5198259109805576 [Eh]
	-----------------------------------------------------------

  Dipole Moment: [D]
     X:    -0.7506      Y:    -0.3107      Z:     0.5212     Total:     0.9652

*** Psi4 exiting successfully. Buy a developer a beer!
