                               Psi4 1.3.2 release

  ==> Input File <==

--------------------------------------------------------------------------
#psi4
#
memory 32 gb

molecule  {
0 1
  S        1.4017960     0.0318670    -0.2267910
  C        0.3439980    -1.2907520     0.4304430
  C       -1.0366050    -1.1980160    -0.1526860
  C       -1.5700067     0.0422346    -0.1182838
  C       -1.0273490     1.2315180     0.1753310
  C        0.3208110     1.3651600     0.1119950
  H        0.3192380    -1.2040060     1.5241050
  H        0.8310050    -2.2339400     0.1718380
  H       -1.5205060    -2.1086570    -0.4970330
  H       -2.7141090     0.0333350    -0.5285000
  H       -1.6282610     2.1139460     0.3806850
  H        0.8050420     2.3317560     0.2174670
units angstrom
no_reorient  #important for SAPT in psi4, default
symmetry c1  #important for SAPT in psi4, default
}

set PROPERTIES_ORIGIN ["COM"]
properties('MP2/aug-cc-pvtz', properties = ['dipole'])
--------------------------------------------------------------------------

    Molecular point group: c1
  Charge       = 0
  Multiplicity = 1
  Basis Set: AUG-CC-PVTZ
    Blend: AUG-CC-PVTZ
  Basis Set: (AUG-CC-PVTZ AUX)
    Blend: AUG-CC-PVTZ-JKFIT

    Orbital Energies [Eh]
    ---------------------

    Doubly Occupied:

       1A    -91.965080     2A    -11.272867     3A    -11.264651
       4A    -11.242341     5A    -11.240781     6A    -11.233548
       7A     -8.965451     8A     -6.646657     9A     -6.645717
      10A     -6.644907    11A     -1.156326    12A     -1.035153
      13A     -1.020044    14A     -0.855996    15A     -0.828928
      16A     -0.692441    17A     -0.675904    18A     -0.617372
      19A     -0.606027    20A     -0.586691    21A     -0.507938
      22A     -0.493375    23A     -0.468890    24A     -0.447000
      25A     -0.366301    26A     -0.292974

  @DF-RHF Final Energy:  -590.37821905300416

   => Energetics <=

    Nuclear Repulsion Energy =            274.4368712453713215
    One-Electron Energy =               -1354.0834636502495414
    Two-Electron Energy =                 489.2683733518740610
    Total Energy =                       -590.3782190530041589
  Basis Set: (AUG-CC-PVTZ AUX)
    Blend: AUG-CC-PVTZ-RI
    Molecular point group: c1

    Geometry (in Angstrom), charge = 0, multiplicity = 1:

       Center              X                  Y                   Z               Mass
    ------------   -----------------  -----------------  -----------------  -----------------
         S            1.348231569492     0.014067705236    -0.220558545864    31.972071174400
         C            0.290433569492    -1.308551294764     0.436675454136    12.000000000000
         C           -1.090169430508    -1.215815294764    -0.146453545864    12.000000000000
         C           -1.623571130508     0.024435305236    -0.112051345864    12.000000000000
         C           -1.080913430508     1.213718705236     0.181563454136    12.000000000000
         C            0.267246569492     1.347360705236     0.118227454136    12.000000000000
         H            0.265673569492    -1.221805294764     1.530337454136     1.007825032230
         H            0.777440569492    -2.251739294764     0.178070454136     1.007825032230
         H           -1.574070430508    -2.126456294764    -0.490800545864     1.007825032230
         H           -2.767673430508     0.015535705236    -0.522267545864     1.007825032230
         H           -1.681825430508     2.096146705236     0.386917454136     1.007825032230
         H            0.751477569492     2.313956705236     0.223699454136     1.007825032230

  Basis Set: AUG-CC-PVTZ
    Blend: AUG-CC-PVTZ
  Basis Set: (AUG-CC-PVTZ AUX)
    Blend: AUG-CC-PVTZ-JKFIT
	 Reference Energy          =    -590.3782190530041589 [Eh]
	 Singles Energy            =      -0.0000000000000000 [Eh]
	 Same-Spin Energy          =      -0.2708494547556542 [Eh]
	 Opposite-Spin Energy      =      -0.8659378968534527 [Eh]
	 Correlation Energy        =      -1.1367873516091069 [Eh]
	 Total Energy              =    -591.5150064046132456 [Eh]

	 ================> DF-SCS-MP2 Energies <==================
	-----------------------------------------------------------
	 SCS Same-Spin Scale       =       0.3333333333333333 [-]
	 SCS Opposite-Spin Scale   =       1.2000000000000000 [-]
	 SCS Same-Spin Energy      =      -0.0902831515852181 [Eh]
	 SCS Opposite-Spin Energy  =      -1.0391254762241431 [Eh]
	 SCS Correlation Energy    =      -1.1294086278093611 [Eh]
	 SCS Total Energy          =    -591.5076276808134708 [Eh]
	-----------------------------------------------------------

  Dipole Moment: [D]
     X:    -0.6801      Y:    -0.2866      Z:     0.5383     Total:     0.9135

*** Psi4 exiting successfully. Buy a developer a beer!
