                               Psi4 1.3.2 release

  ==> Input File <==

--------------------------------------------------------------------------
#psi4
#
memory 32 gb

molecule  {
0 1
  S        1.4017960     0.0318670    -0.2267910
  C        0.3439980    -1.2907520     0.4304430
  C       -1.0731051    -1.1868544    -0.0550753
  C       -1.6877140    -0.0149620    -0.1717330
  C       -1.0273490     1.2315180     0.1753310
  C        0.3208110     1.3651600     0.1119950
  H        0.3192380    -1.2040060     1.5241050
  H        0.8310050    -2.2339400     0.1718380
  H       -1.5205060    -2.1086570    -0.4970330
  H       -2.7141090     0.0333350    -0.5285000
  H       -1.6282610     2.1139460     0.3806850
  H        0.8050420     2.3317560     0.2174670
units angstrom
no_reorient  #important for SAPT in psi4, default
symmetry c1  #important for SAPT in psi4, default
}

set PROPERTIES_ORIGIN ["COM"]
properties('MP2/aug-cc-pvtz', properties = ['dipole'])
--------------------------------------------------------------------------

    Molecular point group: c1
  Charge       = 0
  Multiplicity = 1
  Basis Set: AUG-CC-PVTZ
    Blend: AUG-CC-PVTZ
  Basis Set: (AUG-CC-PVTZ AUX)
    Blend: AUG-CC-PVTZ-JKFIT

    Orbital Energies [Eh]
    ---------------------

    Doubly Occupied:

       1A    -91.961966     2A    -11.269070     3A    -11.267408
       4A    -11.242744     5A    -11.240857     6A    -11.236821
       7A     -8.962503     8A     -6.643766     9A     -6.642791
      10A     -6.641923    11A     -1.143308    12A     -1.027580
      13A     -1.020778    14A     -0.861903    15A     -0.815066
      16A     -0.694598    17A     -0.675272    18A     -0.613093
      19A     -0.600282    20A     -0.580980    21A     -0.533603
      22A     -0.481762    23A     -0.465286    24A     -0.449383
      25A     -0.367641    26A     -0.298401

  @DF-RHF Final Energy:  -590.40321111971366

   => Energetics <=

    Nuclear Repulsion Energy =            272.2573573342327791
    One-Electron Energy =               -1349.8435716285155195
    Two-Electron Energy =                 487.1830031745691940
    Total Energy =                       -590.4032111197136601
  Basis Set: (AUG-CC-PVTZ AUX)
    Blend: AUG-CC-PVTZ-RI
    Molecular point group: c1

    Geometry (in Angstrom), charge = 0, multiplicity = 1:

       Center              X                  Y                   Z               Mass
    ------------   -----------------  -----------------  -----------------  -----------------
         S            1.367110443962     0.019703550119    -0.225965027102    31.972071174400
         C            0.309312443962    -1.302915449881     0.431268972898    12.000000000000
         C           -1.107790656038    -1.199017849881    -0.054249327102    12.000000000000
         C           -1.722399556038    -0.027125449881    -0.170907027102    12.000000000000
         C           -1.062034556038     1.219354550119     0.176156972898    12.000000000000
         C            0.286125443962     1.352996550119     0.112820972898    12.000000000000
         H            0.284552443962    -1.216169449881     1.524930972898     1.007825032230
         H            0.796319443962    -2.246103449881     0.172663972898     1.007825032230
         H           -1.555191556038    -2.120820449881    -0.496207027102     1.007825032230
         H           -2.748794556038     0.021171550119    -0.527674027102     1.007825032230
         H           -1.662946556038     2.101782550119     0.381510972898     1.007825032230
         H            0.770356443962     2.319592550119     0.218292972898     1.007825032230

  Basis Set: AUG-CC-PVTZ
    Blend: AUG-CC-PVTZ
  Basis Set: (AUG-CC-PVTZ AUX)
    Blend: AUG-CC-PVTZ-JKFIT
	 Reference Energy          =    -590.4032111197136601 [Eh]
	 Singles Energy            =      -0.0000000000000000 [Eh]
	 Same-Spin Energy          =      -0.2673433585863823 [Eh]
	 Opposite-Spin Energy      =      -0.8620834830901893 [Eh]
	 Correlation Energy        =      -1.1294268416765716 [Eh]
	 Total Energy              =    -591.5326379613902645 [Eh]

	 ================> DF-SCS-MP2 Energies <==================
	-----------------------------------------------------------
	 SCS Same-Spin Scale       =       0.3333333333333333 [-]
	 SCS Opposite-Spin Scale   =       1.2000000000000000 [-]
	 SCS Same-Spin Energy      =      -0.0891144528621274 [Eh]
	 SCS Opposite-Spin Energy  =      -1.0345001797082272 [Eh]
	 SCS Correlation Energy    =      -1.1236146325703547 [Eh]
	 SCS Total Energy          =    -591.5268257522840258 [Eh]
	-----------------------------------------------------------

  Dipole Moment: [D]
     X:    -0.8419      Y:    -0.3144      Z:     0.4097     Total:     0.9877

*** Psi4 exiting successfully. Buy a developer a beer!
