                               Psi4 1.3.2 release

  ==> Input File <==

--------------------------------------------------------------------------
#psi4
#
memory 32 gb

molecule  {
0 1
  S        1.3636714    -0.0372711    -0.3997774
  C        0.3439980    -1.2907520     0.4304430
  C       -1.0366050    -1.1980160    -0.1526860
  C       -1.6877140    -0.0149620    -0.1717330
  C       -1.0273490     1.2315180     0.1753310
  C        0.3208110     1.3651600     0.1119950
  H        0.3192380    -1.2040060     1.5241050
  H        0.8310050    -2.2339400     0.1718380
  H       -1.5205060    -2.1086570    -0.4970330
  H       -2.7141090     0.0333350    -0.5285000
  H       -1.6282610     2.1139460     0.3806850
  H        0.8050420     2.3317560     0.2174670
units angstrom
no_reorient  #important for SAPT in psi4, default
symmetry c1  #important for SAPT in psi4, default
}

set PROPERTIES_ORIGIN ["COM"]
properties('MP2/aug-cc-pvtz', properties = ['dipole'])
--------------------------------------------------------------------------

    Molecular point group: c1
  Charge       = 0
  Multiplicity = 1
  Basis Set: AUG-CC-PVTZ
    Blend: AUG-CC-PVTZ
  Basis Set: (AUG-CC-PVTZ AUX)
    Blend: AUG-CC-PVTZ-JKFIT

    Orbital Energies [Eh]
    ---------------------

    Doubly Occupied:

       1A    -91.963313     2A    -11.270890     3A    -11.267360
       4A    -11.245012     5A    -11.244536     6A    -11.238227
       7A     -8.962370     8A     -6.643469     9A     -6.642595
      10A     -6.641721    11A     -1.138550    12A     -1.026267
      13A     -1.010312    14A     -0.854449    15A     -0.816231
      16A     -0.693462    17A     -0.684986    18A     -0.607552
      19A     -0.593052    20A     -0.584028    21A     -0.534531
      22A     -0.480662    23A     -0.458017    24A     -0.449007
      25A     -0.352917    26A     -0.307906

  @DF-RHF Final Energy:  -590.39988956351829

   => Energetics <=

    Nuclear Repulsion Energy =            271.2828827599272472
    One-Electron Energy =               -1347.9427056307631574
    Two-Electron Energy =                 486.2599333073175103
    Total Energy =                       -590.3998895635182862
  Basis Set: (AUG-CC-PVTZ AUX)
    Blend: AUG-CC-PVTZ-RI
    Molecular point group: c1

    Geometry (in Angstrom), charge = 0, multiplicity = 1:

       Center              X                  Y                   Z               Mass
    ------------   -----------------  -----------------  -----------------  -----------------
         S            1.336952881520    -0.025516463153    -0.330576311747    31.972071174400
         C            0.317279481520    -1.278997363153     0.499644088253    12.000000000000
         C           -1.063323518480    -1.186261363153    -0.083484911747    12.000000000000
         C           -1.714432518480    -0.003207363153    -0.102531911747    12.000000000000
         C           -1.054067518480     1.243272636847     0.244532088253    12.000000000000
         C            0.294092481520     1.376914636847     0.181196088253    12.000000000000
         H            0.292519481520    -1.192251363153     1.593306088253     1.007825032230
         H            0.804286481520    -2.222185363153     0.241039088253     1.007825032230
         H           -1.547224518480    -2.096902363153    -0.427831911747     1.007825032230
         H           -2.740827518480     0.045089636847    -0.459298911747     1.007825032230
         H           -1.654979518480     2.125700636847     0.449886088253     1.007825032230
         H            0.778323481520     2.343510636847     0.286668088253     1.007825032230

  Basis Set: AUG-CC-PVTZ
    Blend: AUG-CC-PVTZ
  Basis Set: (AUG-CC-PVTZ AUX)
    Blend: AUG-CC-PVTZ-JKFIT
	 Reference Energy          =    -590.3998895635182862 [Eh]
	 Singles Energy            =      -0.0000000000000000 [Eh]
	 Same-Spin Energy          =      -0.2676069329421530 [Eh]
	 Opposite-Spin Energy      =      -0.8635623843105170 [Eh]
	 Correlation Energy        =      -1.1311693172526700 [Eh]
	 Total Energy              =    -591.5310588807709564 [Eh]

	 ================> DF-SCS-MP2 Energies <==================
	-----------------------------------------------------------
	 SCS Same-Spin Scale       =       0.3333333333333333 [-]
	 SCS Opposite-Spin Scale   =       1.2000000000000000 [-]
	 SCS Same-Spin Energy      =      -0.0892023109807177 [Eh]
	 SCS Opposite-Spin Energy  =      -1.0362748611726205 [Eh]
	 SCS Correlation Energy    =      -1.1254771721533381 [Eh]
	 SCS Total Energy          =    -591.5253667356715823 [Eh]
	-----------------------------------------------------------

  Dipole Moment: [D]
     X:    -0.9593      Y:    -0.2869      Z:     0.5292     Total:     1.1325

*** Psi4 exiting successfully. Buy a developer a beer!
