                               Psi4 1.3.2 release

  ==> Input File <==

--------------------------------------------------------------------------
#psi4
#
memory 32 gb

molecule  {
0 1
  S        1.4017960     0.0318670    -0.2267910
  C        0.3439980    -1.2907520     0.4304430
  C       -1.0366050    -1.1980160    -0.1526860
  C       -1.6877140    -0.0149620    -0.1717330
  C       -1.0154584     1.1386065     0.1616389
  C        0.3208110     1.3651600     0.1119950
  H        0.3192380    -1.2040060     1.5241050
  H        0.8310050    -2.2339400     0.1718380
  H       -1.5205060    -2.1086570    -0.4970330
  H       -2.7141090     0.0333350    -0.5285000
  H       -1.6282610     2.1139460     0.3806850
  H        0.8050420     2.3317560     0.2174670
units angstrom
no_reorient  #important for SAPT in psi4, default
symmetry c1  #important for SAPT in psi4, default
}

set PROPERTIES_ORIGIN ["COM"]
properties('MP2/aug-cc-pvtz', properties = ['dipole'])
--------------------------------------------------------------------------

    Molecular point group: c1
  Charge       = 0
  Multiplicity = 1
  Basis Set: AUG-CC-PVTZ
    Blend: AUG-CC-PVTZ
  Basis Set: (AUG-CC-PVTZ AUX)
    Blend: AUG-CC-PVTZ-JKFIT

    Orbital Energies [Eh]
    ---------------------

    Doubly Occupied:

       1A    -91.959936     2A    -11.269481     3A    -11.268279
       4A    -11.245656     5A    -11.242941     6A    -11.234574
       7A     -8.960622     8A     -6.641826     9A     -6.640966
      10A     -6.640080    11A     -1.151127    12A     -1.027280
      13A     -1.024797    14A     -0.854642    15A     -0.826344
      16A     -0.701023    17A     -0.671915    18A     -0.615389
      19A     -0.594665    20A     -0.580677    21A     -0.543410
      22A     -0.483386    23A     -0.464180    24A     -0.445663
      25A     -0.366293    26A     -0.292902

  @DF-RHF Final Energy:  -590.39254785321168

   => Energetics <=

    Nuclear Repulsion Energy =            273.6633679395362151
    One-Electron Energy =               -1352.6157255564485240
    Two-Electron Energy =                 488.5598097637005139
    Total Energy =                       -590.3925478532116813
  Basis Set: (AUG-CC-PVTZ AUX)
    Blend: AUG-CC-PVTZ-RI
    Molecular point group: c1

    Geometry (in Angstrom), charge = 0, multiplicity = 1:

       Center              X                  Y                   Z               Mass
    ------------   -----------------  -----------------  -----------------  -----------------
         S            1.361186201994     0.032444722012    -0.212338757615    31.972071174400
         C            0.303388201994    -1.290174277988     0.444895242385    12.000000000000
         C           -1.077214798006    -1.197438277988    -0.138233757615    12.000000000000
         C           -1.728323798006    -0.014384277988    -0.157280757615    12.000000000000
         C           -1.056068198006     1.139184222012     0.176091142385    12.000000000000
         C            0.280201201994     1.365737722012     0.126447242385    12.000000000000
         H            0.278628201994    -1.203428277988     1.538557242385     1.007825032230
         H            0.790395201994    -2.233362277988     0.186290242385     1.007825032230
         H           -1.561115798006    -2.108079277988    -0.482580757615     1.007825032230
         H           -2.754718798006     0.033912722012    -0.514047757615     1.007825032230
         H           -1.668870798006     2.114523722012     0.395137242385     1.007825032230
         H            0.764432201994     2.332333722012     0.231919242385     1.007825032230

  Basis Set: AUG-CC-PVTZ
    Blend: AUG-CC-PVTZ
  Basis Set: (AUG-CC-PVTZ AUX)
    Blend: AUG-CC-PVTZ-JKFIT
	 Reference Energy          =    -590.3925478532116813 [Eh]
	 Singles Energy            =      -0.0000000000000000 [Eh]
	 Same-Spin Energy          =      -0.2696850626862562 [Eh]
	 Opposite-Spin Energy      =      -0.8644419246918358 [Eh]
	 Correlation Energy        =      -1.1341269873780919 [Eh]
	 Total Energy              =    -591.5266748405897488 [Eh]

	 ================> DF-SCS-MP2 Energies <==================
	-----------------------------------------------------------
	 SCS Same-Spin Scale       =       0.3333333333333333 [-]
	 SCS Opposite-Spin Scale   =       1.2000000000000000 [-]
	 SCS Same-Spin Energy      =      -0.0898950208954187 [Eh]
	 SCS Opposite-Spin Energy  =      -1.0373303096302029 [Eh]
	 SCS Correlation Energy    =      -1.1272253305256217 [Eh]
	 SCS Total Energy          =    -591.5197731837373567 [Eh]
	-----------------------------------------------------------

  Dipole Moment: [D]
     X:    -0.8641      Y:    -0.3676      Z:     0.4845     Total:     1.0567

*** Psi4 exiting successfully. Buy a developer a beer!
