                               Psi4 1.3.2 release

  ==> Input File <==

--------------------------------------------------------------------------
#psi4
#
memory 32 gb

molecule  {
0 1
  S        1.4017960     0.0318670    -0.2267910
  C        0.3439980    -1.2907520     0.4304430
  C       -0.8527167    -1.2103679    -0.0750166
  C       -1.6877140    -0.0149620    -0.1717330
  C       -1.0273490     1.2315180     0.1753310
  C        0.3208110     1.3651600     0.1119950
  H        0.3192380    -1.2040060     1.5241050
  H        0.8310050    -2.2339400     0.1718380
  H       -1.5205060    -2.1086570    -0.4970330
  H       -2.7141090     0.0333350    -0.5285000
  H       -1.6282610     2.1139460     0.3806850
  H        0.8050420     2.3317560     0.2174670
units angstrom
no_reorient  #important for SAPT in psi4, default
symmetry c1  #important for SAPT in psi4, default
}

set PROPERTIES_ORIGIN ["COM"]
properties('MP2/aug-cc-pvtz', properties = ['dipole'])
--------------------------------------------------------------------------

    Molecular point group: c1
  Charge       = 0
  Multiplicity = 1
  Basis Set: AUG-CC-PVTZ
    Blend: AUG-CC-PVTZ
  Basis Set: (AUG-CC-PVTZ AUX)
    Blend: AUG-CC-PVTZ-JKFIT

    Orbital Energies [Eh]
    ---------------------

    Doubly Occupied:

       1A    -91.965119     2A    -11.266864     3A    -11.259639
       4A    -11.257001     5A    -11.251979     6A    -11.240230
       7A     -8.965749     8A     -6.646880     9A     -6.646014
      10A     -6.645067    11A     -1.161025    12A     -1.054286
      13A     -1.004508    14A     -0.865226    15A     -0.809336
      16A     -0.701895    17A     -0.673498    18A     -0.628612
      19A     -0.613486    20A     -0.570395    21A     -0.557214
      22A     -0.470731    23A     -0.457732    24A     -0.447628
      25A     -0.353253    26A     -0.284768

  @DF-RHF Final Energy:  -590.34269282040941

   => Energetics <=

    Nuclear Repulsion Energy =            274.2228287066174062
    One-Electron Energy =               -1353.5347717728511725
    Two-Electron Energy =                 488.9692502458241847
    Total Energy =                       -590.3426928204094111
  Basis Set: (AUG-CC-PVTZ AUX)
    Blend: AUG-CC-PVTZ-RI
    Molecular point group: c1

    Geometry (in Angstrom), charge = 0, multiplicity = 1:

       Center              X                  Y                   Z               Mass
    ------------   -----------------  -----------------  -----------------  -----------------
         S            1.340129346180     0.022582195469    -0.223523709114    31.972071174400
         C            0.282331346180    -1.300036804531     0.433710290886    12.000000000000
         C           -0.914383353820    -1.219652704531    -0.071749309114    12.000000000000
         C           -1.749380653820    -0.024246804531    -0.168465709114    12.000000000000
         C           -1.089015653820     1.222233195469     0.178598290886    12.000000000000
         C            0.259144346180     1.355875195469     0.115262290886    12.000000000000
         H            0.257571346180    -1.213290804531     1.527372290886     1.007825032230
         H            0.769338346180    -2.243224804531     0.175105290886     1.007825032230
         H           -1.582172653820    -2.117941804531    -0.493765709114     1.007825032230
         H           -2.775775653820     0.024050195469    -0.525232709114     1.007825032230
         H           -1.689927653820     2.104661195469     0.383952290886     1.007825032230
         H            0.743375346180     2.322471195469     0.220734290886     1.007825032230

  Basis Set: AUG-CC-PVTZ
    Blend: AUG-CC-PVTZ
  Basis Set: (AUG-CC-PVTZ AUX)
    Blend: AUG-CC-PVTZ-JKFIT
	 Reference Energy          =    -590.3426928204094111 [Eh]
	 Singles Energy            =      -0.0000000000000000 [Eh]
	 Same-Spin Energy          =      -0.2736224640690630 [Eh]
	 Opposite-Spin Energy      =      -0.8704035903719898 [Eh]
	 Correlation Energy        =      -1.1440260544410528 [Eh]
	 Total Energy              =    -591.4867188748504532 [Eh]

	 ================> DF-SCS-MP2 Energies <==================
	-----------------------------------------------------------
	 SCS Same-Spin Scale       =       0.3333333333333333 [-]
	 SCS Opposite-Spin Scale   =       1.2000000000000000 [-]
	 SCS Same-Spin Energy      =      -0.0912074880230210 [Eh]
	 SCS Opposite-Spin Energy  =      -1.0444843084463877 [Eh]
	 SCS Correlation Energy    =      -1.1356917964694087 [Eh]
	 SCS Total Energy          =    -591.4783846168787704 [Eh]
	-----------------------------------------------------------

  Dipole Moment: [D]
     X:    -0.7471      Y:    -0.2759      Z:     0.5270     Total:     0.9550

*** Psi4 exiting successfully. Buy a developer a beer!
