                               Psi4 1.3.2 release

  ==> Input File <==

--------------------------------------------------------------------------
#psi4
#
memory 32 gb

molecule  {
0 1
  S        1.4017960     0.0318670    -0.2267910
  C        0.3439980    -1.2907520     0.4304430
  C       -1.0366050    -1.1980160    -0.1526860
  C       -1.6877140    -0.0149620    -0.1717330
  C       -1.0273490     1.2315180     0.1753310
  C        0.3208110     1.3651600     0.1119950
  H        0.3192380    -1.2040060     1.5241050
  H        0.8310050    -2.2339400     0.1718380
  H       -1.5205060    -2.1086570    -0.4970330
  H       -2.6197456     0.0288947    -0.4957000
  H       -1.6282610     2.1139460     0.3806850
  H        0.8050420     2.3317560     0.2174670
units angstrom
no_reorient  #important for SAPT in psi4, default
symmetry c1  #important for SAPT in psi4, default
}

set PROPERTIES_ORIGIN ["COM"]
properties('MP2/aug-cc-pvtz', properties = ['dipole'])
--------------------------------------------------------------------------

    Molecular point group: c1
  Charge       = 0
  Multiplicity = 1
  Basis Set: AUG-CC-PVTZ
    Blend: AUG-CC-PVTZ
  Basis Set: (AUG-CC-PVTZ AUX)
    Blend: AUG-CC-PVTZ-JKFIT

    Orbital Energies [Eh]
    ---------------------

    Doubly Occupied:

       1A    -91.961683     2A    -11.268086     3A    -11.267255
       4A    -11.242939     5A    -11.240040     6A    -11.227678
       7A     -8.962183     8A     -6.643423     9A     -6.642477
      10A     -6.641618    11A     -1.142194    12A     -1.026356
      13A     -1.022361    14A     -0.862403    15A     -0.820126
      16A     -0.708179    17A     -0.679996    18A     -0.610414
      19A     -0.599275    20A     -0.584568    21A     -0.543306
      22A     -0.483329    23A     -0.463005    24A     -0.450958
      25A     -0.363596    26A     -0.297300

  @DF-RHF Final Energy:  -590.39957100113179

   => Energetics <=

    Nuclear Repulsion Energy =            272.7333099535160272
    One-Electron Energy =               -1350.7562626528556393
    Two-Electron Energy =                 487.6233816982078793
    Total Energy =                       -590.3995710011317897
  Basis Set: (AUG-CC-PVTZ AUX)
    Blend: AUG-CC-PVTZ-RI
    Molecular point group: c1

    Geometry (in Angstrom), charge = 0, multiplicity = 1:

       Center              X                  Y                   Z               Mass
    ------------   -----------------  -----------------  -----------------  -----------------
         S            1.361671673107     0.021115666294    -0.214352263344    31.972071174400
         C            0.303873673107    -1.301503333706     0.442881736656    12.000000000000
         C           -1.076729326893    -1.208767333706    -0.140247263344    12.000000000000
         C           -1.727838326893    -0.025713333706    -0.159294263344    12.000000000000
         C           -1.067473326893     1.220766666294     0.187769736656    12.000000000000
         C            0.280686673107     1.354408666294     0.124433736656    12.000000000000
         H            0.279113673107    -1.214757333706     1.536543736656     1.007825032230
         H            0.790880673107    -2.244691333706     0.184276736656     1.007825032230
         H           -1.560630326893    -2.119408333706    -0.484594263344     1.007825032230
         H           -2.659869926893     0.018143366294    -0.483261263344     1.007825032230
         H           -1.668385326893     2.103194666294     0.393123736656     1.007825032230
         H            0.764917673107     2.321004666294     0.229905736656     1.007825032230

  Basis Set: AUG-CC-PVTZ
    Blend: AUG-CC-PVTZ
  Basis Set: (AUG-CC-PVTZ AUX)
    Blend: AUG-CC-PVTZ-JKFIT
	 Reference Energy          =    -590.3995710011317897 [Eh]
	 Singles Energy            =      -0.0000000000000000 [Eh]
	 Same-Spin Energy          =      -0.2676874089863036 [Eh]
	 Opposite-Spin Energy      =      -0.8622046170809949 [Eh]
	 Correlation Energy        =      -1.1298920260672984 [Eh]
	 Total Energy              =    -591.5294630271990854 [Eh]

	 ================> DF-SCS-MP2 Energies <==================
	-----------------------------------------------------------
	 SCS Same-Spin Scale       =       0.3333333333333333 [-]
	 SCS Opposite-Spin Scale   =       1.2000000000000000 [-]
	 SCS Same-Spin Energy      =      -0.0892291363287678 [Eh]
	 SCS Opposite-Spin Energy  =      -1.0346455404971939 [Eh]
	 SCS Correlation Energy    =      -1.1238746768259618 [Eh]
	 SCS Total Energy          =    -591.5234456779577386 [Eh]
	-----------------------------------------------------------

  Dipole Moment: [D]
     X:    -0.8918      Y:    -0.3625      Z:     0.4891     Total:     1.0798

*** Psi4 exiting successfully. Buy a developer a beer!
