                               Psi4 1.3.2 release

  ==> Input File <==

--------------------------------------------------------------------------
#psi4
#
memory 32 gb

molecule  {
0 1
  S        1.4017960     0.0318670    -0.2267910
  C        0.2275421    -1.4363628     0.5027997
  C       -1.0366050    -1.1980160    -0.1526860
  C       -1.6877140    -0.0149620    -0.1717330
  C       -1.0273490     1.2315180     0.1753310
  C        0.3208110     1.3651600     0.1119950
  H        0.3192380    -1.2040060     1.5241050
  H        0.8310050    -2.2339400     0.1718380
  H       -1.5205060    -2.1086570    -0.4970330
  H       -2.7141090     0.0333350    -0.5285000
  H       -1.6282610     2.1139460     0.3806850
  H        0.8050420     2.3317560     0.2174670
units angstrom
no_reorient  #important for SAPT in psi4, default
symmetry c1  #important for SAPT in psi4, default
}

set PROPERTIES_ORIGIN ["COM"]
properties('MP2/aug-cc-pvtz', properties = ['dipole'])
--------------------------------------------------------------------------

    Molecular point group: c1
  Charge       = 0
  Multiplicity = 1
  Basis Set: AUG-CC-PVTZ
    Blend: AUG-CC-PVTZ
  Basis Set: (AUG-CC-PVTZ AUX)
    Blend: AUG-CC-PVTZ-JKFIT

    Orbital Energies [Eh]
    ---------------------

    Doubly Occupied:

       1A    -91.956470     2A    -11.276694     3A    -11.269171
       4A    -11.244561     5A    -11.242073     6A    -11.237789
       7A     -8.955691     8A     -6.636681     9A     -6.635771
      10A     -6.635000    11A     -1.137607    12A     -1.036899
      13A     -1.004003    14A     -0.869603    15A     -0.813867
      16A     -0.699350    17A     -0.688083    18A     -0.626529
      19A     -0.607509    20A     -0.582800    21A     -0.537140
      22A     -0.475786    23A     -0.460110    24A     -0.439470
      25A     -0.352399    26A     -0.294823

  @DF-RHF Final Energy:  -590.38376428220045

   => Energetics <=

    Nuclear Repulsion Energy =            269.6094846928436368
    One-Electron Energy =               -1344.5547404370140612
    Two-Electron Energy =                 484.5614914619700357
    Total Energy =                       -590.3837642822004455
  Basis Set: (AUG-CC-PVTZ AUX)
    Blend: AUG-CC-PVTZ-RI
    Molecular point group: c1

    Geometry (in Angstrom), charge = 0, multiplicity = 1:

       Center              X                  Y                   Z               Mass
    ------------   -----------------  -----------------  -----------------  -----------------
         S            1.376899050159     0.038896445271    -0.222873300661    31.972071174400
         C            0.202645150159    -1.429333354729     0.506717399339    12.000000000000
         C           -1.061501949841    -1.190986554729    -0.148768300661    12.000000000000
         C           -1.712610949841    -0.007932554729    -0.167815300661    12.000000000000
         C           -1.052245949841     1.238547445271     0.179248699339    12.000000000000
         C            0.295914050159     1.372189445271     0.115912699339    12.000000000000
         H            0.294341050159    -1.196976554729     1.528022699339     1.007825032230
         H            0.806108050159    -2.226910554729     0.175755699339     1.007825032230
         H           -1.545402949841    -2.101627554729    -0.493115300661     1.007825032230
         H           -2.739005949841     0.040364445271    -0.524582300661     1.007825032230
         H           -1.653157949841     2.120975445271     0.384602699339     1.007825032230
         H            0.780145050159     2.338785445271     0.221384699339     1.007825032230

  Basis Set: AUG-CC-PVTZ
    Blend: AUG-CC-PVTZ
  Basis Set: (AUG-CC-PVTZ AUX)
    Blend: AUG-CC-PVTZ-JKFIT
	 Reference Energy          =    -590.3837642822004455 [Eh]
	 Singles Energy            =      -0.0000000000000000 [Eh]
	 Same-Spin Energy          =      -0.2688477875109822 [Eh]
	 Opposite-Spin Energy      =      -0.8648048844113427 [Eh]
	 Correlation Energy        =      -1.1336526719223250 [Eh]
	 Total Energy              =    -591.5174169541227229 [Eh]

	 ================> DF-SCS-MP2 Energies <==================
	-----------------------------------------------------------
	 SCS Same-Spin Scale       =       0.3333333333333333 [-]
	 SCS Opposite-Spin Scale   =       1.2000000000000000 [-]
	 SCS Same-Spin Energy      =      -0.0896159291703274 [Eh]
	 SCS Opposite-Spin Energy  =      -1.0377658612936111 [Eh]
	 SCS Correlation Energy    =      -1.1273817904639385 [Eh]
	 SCS Total Energy          =    -591.5111460726643600 [Eh]
	-----------------------------------------------------------

  Dipole Moment: [D]
     X:    -0.9300      Y:    -0.5065      Z:     0.6280     Total:     1.2312

*** Psi4 exiting successfully. Buy a developer a beer!
