                               Psi4 1.3.2 release

  ==> Input File <==

--------------------------------------------------------------------------
#psi4
#
memory 32 gb

molecule  {
0 1
  S        1.4017960     0.0318670    -0.2267910
  C        0.3439980    -1.2907520     0.4304430
  C       -1.0158202    -1.2037697    -0.2004552
  C       -1.6877140    -0.0149620    -0.1717330
  C       -1.0273490     1.2315180     0.1753310
  C        0.3208110     1.3651600     0.1119950
  H        0.3192380    -1.2040060     1.5241050
  H        0.8310050    -2.2339400     0.1718380
  H       -1.5205060    -2.1086570    -0.4970330
  H       -2.7141090     0.0333350    -0.5285000
  H       -1.6282610     2.1139460     0.3806850
  H        0.8050420     2.3317560     0.2174670
units angstrom
no_reorient  #important for SAPT in psi4, default
symmetry c1  #important for SAPT in psi4, default
}

set PROPERTIES_ORIGIN ["COM"]
properties('MP2/aug-cc-pvtz', properties = ['dipole'])
--------------------------------------------------------------------------

    Molecular point group: c1
  Charge       = 0
  Multiplicity = 1
  Basis Set: AUG-CC-PVTZ
    Blend: AUG-CC-PVTZ
  Basis Set: (AUG-CC-PVTZ AUX)
    Blend: AUG-CC-PVTZ-JKFIT

    Orbital Energies [Eh]
    ---------------------

    Doubly Occupied:

       1A    -91.962277     2A    -11.268990     3A    -11.268069
       4A    -11.244489     5A    -11.242264     6A    -11.240972
       7A     -8.962758     8A     -6.643982     9A     -6.643053
      10A     -6.642199    11A     -1.140916    12A     -1.026281
      13A     -1.017444    14A     -0.858345    15A     -0.818087
      16A     -0.694284    17A     -0.681499    18A     -0.607005
      19A     -0.600179    20A     -0.584438    21A     -0.535126
      22A     -0.484158    23A     -0.462410    24A     -0.450961
      25A     -0.361776    26A     -0.297382

  @DF-RHF Final Energy:  -590.40321540941500

   => Energetics <=

    Nuclear Repulsion Energy =            272.1265251219556944
    One-Electron Energy =               -1349.5807944700709413
    Two-Electron Energy =                 487.0510539387003064
    Total Energy =                       -590.4032154094149973
  Basis Set: (AUG-CC-PVTZ AUX)
    Blend: AUG-CC-PVTZ-RI
    Molecular point group: c1

    Geometry (in Angstrom), charge = 0, multiplicity = 1:

       Center              X                  Y                   Z               Mass
    ------------   -----------------  -----------------  -----------------  -----------------
         S            1.360097327626     0.021774409399    -0.208166861239    31.972071174400
         C            0.302299327626    -1.300844590601     0.449067138761    12.000000000000
         C           -1.057518872374    -1.213862290601    -0.181831061239    12.000000000000
         C           -1.729412672374    -0.025054590601    -0.153108861239    12.000000000000
         C           -1.069047672374     1.221425409399     0.193955138761    12.000000000000
         C            0.279112327626     1.355067409399     0.130619138761    12.000000000000
         H            0.277539327626    -1.214098590601     1.542729138761     1.007825032230
         H            0.789306327626    -2.244032590601     0.190462138761     1.007825032230
         H           -1.562204672374    -2.118749590601    -0.478408861239     1.007825032230
         H           -2.755807672374     0.023242409399    -0.509875861239     1.007825032230
         H           -1.669959672374     2.103853409399     0.399309138761     1.007825032230
         H            0.763343327626     2.321663409399     0.236091138761     1.007825032230

  Basis Set: AUG-CC-PVTZ
    Blend: AUG-CC-PVTZ
  Basis Set: (AUG-CC-PVTZ AUX)
    Blend: AUG-CC-PVTZ-JKFIT
	 Reference Energy          =    -590.4032154094149973 [Eh]
	 Singles Energy            =      -0.0000000000000000 [Eh]
	 Same-Spin Energy          =      -0.2682765713652923 [Eh]
	 Opposite-Spin Energy      =      -0.8633773347937004 [Eh]
	 Correlation Energy        =      -1.1316539061589928 [Eh]
	 Total Energy              =    -591.5348693155740420 [Eh]

	 ================> DF-SCS-MP2 Energies <==================
	-----------------------------------------------------------
	 SCS Same-Spin Scale       =       0.3333333333333333 [-]
	 SCS Opposite-Spin Scale   =       1.2000000000000000 [-]
	 SCS Same-Spin Energy      =      -0.0894255237884307 [Eh]
	 SCS Opposite-Spin Energy  =      -1.0360528017524404 [Eh]
	 SCS Correlation Energy    =      -1.1254783255408711 [Eh]
	 SCS Total Energy          =    -591.5286937349558229 [Eh]
	-----------------------------------------------------------

  Dipole Moment: [D]
     X:    -0.8626      Y:    -0.3541      Z:     0.5431     Total:     1.0790

*** Psi4 exiting successfully. Buy a developer a beer!
