                               Psi4 1.3.2 release

  ==> Input File <==

--------------------------------------------------------------------------
#psi4
#
memory 32 gb

molecule  {
0 1
  S        1.4119458     0.0517257    -0.1674326
  C        0.3439980    -1.2907520     0.4304430
  C       -1.0366050    -1.1980160    -0.1526860
  C       -1.6877140    -0.0149620    -0.1717330
  C       -1.0273490     1.2315180     0.1753310
  C        0.3208110     1.3651600     0.1119950
  H        0.3192380    -1.2040060     1.5241050
  H        0.8310050    -2.2339400     0.1718380
  H       -1.5205060    -2.1086570    -0.4970330
  H       -2.7141090     0.0333350    -0.5285000
  H       -1.6282610     2.1139460     0.3806850
  H        0.8050420     2.3317560     0.2174670
units angstrom
no_reorient  #important for SAPT in psi4, default
symmetry c1  #important for SAPT in psi4, default
}

set PROPERTIES_ORIGIN ["COM"]
properties('MP2/aug-cc-pvtz', properties = ['dipole'])
--------------------------------------------------------------------------

    Molecular point group: c1
  Charge       = 0
  Multiplicity = 1
  Basis Set: AUG-CC-PVTZ
    Blend: AUG-CC-PVTZ
  Basis Set: (AUG-CC-PVTZ AUX)
    Blend: AUG-CC-PVTZ-JKFIT

    Orbital Energies [Eh]
    ---------------------

    Doubly Occupied:

       1A    -91.961832     2A    -11.268264     3A    -11.267925
       4A    -11.243005     5A    -11.240167     6A    -11.239315
       7A     -8.962808     8A     -6.644089     9A     -6.643102
      10A     -6.642248    11A     -1.142811    12A     -1.027671
      13A     -1.020444    14A     -0.861164    15A     -0.817352
      16A     -0.694471    17A     -0.678517    18A     -0.609333
      19A     -0.602325    20A     -0.583830    21A     -0.534882
      22A     -0.485164    23A     -0.463695    24A     -0.451275
      25A     -0.367469    26A     -0.294345

  @DF-RHF Final Energy:  -590.40527128946621

   => Energetics <=

    Nuclear Repulsion Energy =            272.4586071716891524
    One-Electron Energy =               -1350.2327523493161152
    Two-Electron Energy =                 487.3688738881606355
    Total Energy =                       -590.4052712894663273
  Basis Set: (AUG-CC-PVTZ AUX)
    Blend: AUG-CC-PVTZ-RI
    Molecular point group: c1

    Geometry (in Angstrom), charge = 0, multiplicity = 1:

       Center              X                  Y                   Z               Mass
    ------------   -----------------  -----------------  -----------------  -----------------
         S            1.369481026037     0.034451154713    -0.174018276182    31.972071174400
         C            0.301533226037    -1.308026545287     0.423857323818    12.000000000000
         C           -1.079069773963    -1.215290545287    -0.159271676182    12.000000000000
         C           -1.730178773963    -0.032236545287    -0.178318676182    12.000000000000
         C           -1.069813773963     1.214243454713     0.168745323818    12.000000000000
         C            0.278346226037     1.347885454713     0.105409323818    12.000000000000
         H            0.276773226037    -1.221280545287     1.517519323818     1.007825032230
         H            0.788540226037    -2.251214545287     0.165252323818     1.007825032230
         H           -1.562970773963    -2.125931545287    -0.503618676182     1.007825032230
         H           -2.756573773963     0.016060454713    -0.535085676182     1.007825032230
         H           -1.670725773963     2.096671454713     0.374099323818     1.007825032230
         H            0.762577226037     2.314481454713     0.210881323818     1.007825032230

  Basis Set: AUG-CC-PVTZ
    Blend: AUG-CC-PVTZ
  Basis Set: (AUG-CC-PVTZ AUX)
    Blend: AUG-CC-PVTZ-JKFIT
	 Reference Energy          =    -590.4052712894662136 [Eh]
	 Singles Energy            =      -0.0000000000000000 [Eh]
	 Same-Spin Energy          =      -0.2679203575539468 [Eh]
	 Opposite-Spin Energy      =      -0.8624645752590656 [Eh]
	 Correlation Energy        =      -1.1303849328130124 [Eh]
	 Total Energy              =    -591.5356562222792718 [Eh]

	 ================> DF-SCS-MP2 Energies <==================
	-----------------------------------------------------------
	 SCS Same-Spin Scale       =       0.3333333333333333 [-]
	 SCS Opposite-Spin Scale   =       1.2000000000000000 [-]
	 SCS Same-Spin Energy      =      -0.0893067858513156 [Eh]
	 SCS Opposite-Spin Energy  =      -1.0349574903108787 [Eh]
	 SCS Correlation Energy    =      -1.1242642761621944 [Eh]
	 SCS Total Energy          =    -591.5295355656284073 [Eh]
	-----------------------------------------------------------

  Dipole Moment: [D]
     X:    -0.8245      Y:    -0.3788      Z:     0.4869     Total:     1.0298

*** Psi4 exiting successfully. Buy a developer a beer!
