                               Psi4 1.3.2 release

  ==> Input File <==

--------------------------------------------------------------------------
#psi4
#
memory 32 gb

molecule  {
0 1
  S        1.3035336    -0.0402140    -0.2346389
  C        0.3439980    -1.2907520     0.4304430
  C       -1.0366050    -1.1980160    -0.1526860
  C       -1.6877140    -0.0149620    -0.1717330
  C       -1.0273490     1.2315180     0.1753310
  C        0.3208110     1.3651600     0.1119950
  H        0.3192380    -1.2040060     1.5241050
  H        0.8310050    -2.2339400     0.1718380
  H       -1.5205060    -2.1086570    -0.4970330
  H       -2.7141090     0.0333350    -0.5285000
  H       -1.6282610     2.1139460     0.3806850
  H        0.8050420     2.3317560     0.2174670
units angstrom
no_reorient  #important for SAPT in psi4, default
symmetry c1  #important for SAPT in psi4, default
}

set PROPERTIES_ORIGIN ["COM"]
properties('MP2/aug-cc-pvtz', properties = ['dipole'])
--------------------------------------------------------------------------

    Molecular point group: c1
  Charge       = 0
  Multiplicity = 1
  Basis Set: AUG-CC-PVTZ
    Blend: AUG-CC-PVTZ
  Basis Set: (AUG-CC-PVTZ AUX)
    Blend: AUG-CC-PVTZ-JKFIT

    Orbital Energies [Eh]
    ---------------------

    Doubly Occupied:

       1A    -91.955618     2A    -11.267255     3A    -11.260171
       4A    -11.244150     5A    -11.241393     6A    -11.238688
       7A     -8.958404     8A     -6.639815     9A     -6.638877
      10A     -6.637870    11A     -1.153430    12A     -1.035582
      13A     -1.022098    14A     -0.854019    15A     -0.821714
      16A     -0.697467    17A     -0.681233    18A     -0.610287
      19A     -0.602943    20A     -0.593616    21A     -0.541335
      22A     -0.494740    23A     -0.458411    24A     -0.447131
      25A     -0.356689    26A     -0.299871

  @DF-RHF Final Energy:  -590.39945556263604

   => Energetics <=

    Nuclear Repulsion Energy =            276.0254618013794357
    One-Electron Energy =               -1357.3442194090544035
    Two-Electron Energy =                 490.9193020450389895
    Total Energy =                       -590.3994555626360352
  Basis Set: (AUG-CC-PVTZ AUX)
    Blend: AUG-CC-PVTZ-RI
    Molecular point group: c1

    Geometry (in Angstrom), charge = 0, multiplicity = 1:

       Center              X                  Y                   Z               Mass
    ------------   -----------------  -----------------  -----------------  -----------------
         S            1.296430968264    -0.027499441222    -0.219303069754    31.972071174400
         C            0.336895368264    -1.278037441222     0.445778830246    12.000000000000
         C           -1.043707631736    -1.185301441222    -0.137350169754    12.000000000000
         C           -1.694816631736    -0.002247441222    -0.156397169754    12.000000000000
         C           -1.034451631736     1.244232558778     0.190666830246    12.000000000000
         C            0.313708368264     1.377874558778     0.127330830246    12.000000000000
         H            0.312135368264    -1.191291441222     1.539440830246     1.007825032230
         H            0.823902368264    -2.221225441222     0.187173830246     1.007825032230
         H           -1.527608631736    -2.095942441222    -0.481697169754     1.007825032230
         H           -2.721211631736     0.046049558778    -0.513164169754     1.007825032230
         H           -1.635363631736     2.126660558778     0.396020830246     1.007825032230
         H            0.797939368264     2.344470558778     0.232802830246     1.007825032230

  Basis Set: AUG-CC-PVTZ
    Blend: AUG-CC-PVTZ
  Basis Set: (AUG-CC-PVTZ AUX)
    Blend: AUG-CC-PVTZ-JKFIT
	 Reference Energy          =    -590.3994555626360352 [Eh]
	 Singles Energy            =      -0.0000000000000000 [Eh]
	 Same-Spin Energy          =      -0.2690040001646118 [Eh]
	 Opposite-Spin Energy      =      -0.8626697896366791 [Eh]
	 Correlation Energy        =      -1.1316737898012910 [Eh]
	 Total Energy              =    -591.5311293524373468 [Eh]

	 ================> DF-SCS-MP2 Energies <==================
	-----------------------------------------------------------
	 SCS Same-Spin Scale       =       0.3333333333333333 [-]
	 SCS Opposite-Spin Scale   =       1.2000000000000000 [-]
	 SCS Same-Spin Energy      =      -0.0896680000548706 [Eh]
	 SCS Opposite-Spin Energy  =      -1.0352037475640148 [Eh]
	 SCS Correlation Energy    =      -1.1248717476188854 [Eh]
	 SCS Total Energy          =    -591.5243273102548756 [Eh]
	-----------------------------------------------------------

  Dipole Moment: [D]
     X:    -0.8715      Y:    -0.3419      Z:     0.5203     Total:     1.0710

*** Psi4 exiting successfully. Buy a developer a beer!
