                               Psi4 1.4a3.dev225

  ==> Input File <==

--------------------------------------------------------------------------
#psi4
#
memory 32 gb

molecule  {
0 1
  S        1.4017960     0.0318670    -0.2267910
  C        0.3439980    -1.2907520     0.4304430
  C       -1.0366050    -1.1980160    -0.1526860
  C       -1.6877140    -0.0149620    -0.1717330
  C       -1.0182573     1.2486792     0.1801093
  C        0.3208110     1.3651600     0.1119950
  H        0.3192380    -1.2040060     1.5241050
  H        0.8310050    -2.2339400     0.1718380
  H       -1.5205060    -2.1086570    -0.4970330
  H       -2.7141090     0.0333350    -0.5285000
  H       -1.6282610     2.1139460     0.3806850
  H        0.8050420     2.3317560     0.2174670
units angstrom
no_reorient  #important for SAPT in psi4, default
symmetry c1  #important for SAPT in psi4, default
}

set PROPERTIES_ORIGIN ["COM"]
properties('MP2/aug-cc-pvtz', properties = ['dipole'])
--------------------------------------------------------------------------

    Molecular point group: c1
  Charge       = 0
  Multiplicity = 1
  Basis Set: AUG-CC-PVTZ
    Blend: AUG-CC-PVTZ
  Basis Set: (AUG-CC-PVTZ AUX)
    Blend: AUG-CC-PVTZ-JKFIT

    Orbital Energies [Eh]
    ---------------------

    Doubly Occupied:

       1A    -91.962005     2A    -11.267736     3A    -11.267016
       4A    -11.243318     5A    -11.240817     6A    -11.239947
       7A     -8.962510     8A     -6.643757     9A     -6.642798
      10A     -6.641933    11A     -1.140757    12A     -1.028140
      13A     -1.016919    14A     -0.860865    15A     -0.814927
      16A     -0.693334    17A     -0.681321    18A     -0.611597
      19A     -0.597778    20A     -0.584307    21A     -0.533413
      22A     -0.482092    23A     -0.464282    24A     -0.450860
      25A     -0.363177    26A     -0.300003

  @DF-RHF Final Energy:  -590.40599967428921

   => Energetics <=

    Nuclear Repulsion Energy =            272.0706618588750416
    One-Electron Energy =               -1349.4821059268801946
    Two-Electron Energy =                 487.0054443937158908
    Total Energy =                       -590.4059996742892054
  Basis Set: (AUG-CC-PVTZ AUX)
    Blend: AUG-CC-PVTZ-RI
    Molecular point group: c1

    Geometry (in Angstrom), charge = 0, multiplicity = 1:

       Center              X                  Y                   Z               Mass
    ------------   -----------------  -----------------  -----------------  -----------------
         S            1.361528857935     0.018969047785    -0.214600000350    31.972071174400
         C            0.303730857935    -1.303649952215     0.442633999650    12.000000000000
         C           -1.076872142065    -1.210913952215    -0.140495000350    12.000000000000
         C           -1.727981142065    -0.027859952215    -0.159542000350    12.000000000000
         C           -1.058524442065     1.235781247785     0.192300299650    12.000000000000
         C            0.280543857935     1.352262047785     0.124185999650    12.000000000000
         H            0.278970857935    -1.216903952215     1.536295999650     1.007825032230
         H            0.790737857935    -2.246837952215     0.184028999650     1.007825032230
         H           -1.560773142065    -2.121554952215    -0.484842000350     1.007825032230
         H           -2.754376142065     0.020437047785    -0.516309000350     1.007825032230
         H           -1.668528142065     2.101048047785     0.392875999650     1.007825032230
         H            0.764774857935     2.318858047785     0.229657999650     1.007825032230

  Basis Set: AUG-CC-PVTZ
    Blend: AUG-CC-PVTZ
  Basis Set: (AUG-CC-PVTZ AUX)
    Blend: AUG-CC-PVTZ-JKFIT
	 Reference Energy          =    -590.4059996742892054 [Eh]
	 Singles Energy            =      -0.0000000000000000 [Eh]
	 Same-Spin Energy          =      -0.2672998900380811 [Eh]
	 Opposite-Spin Energy      =      -0.8620741675121870 [Eh]
	 Correlation Energy        =      -1.1293740575502680 [Eh]
	 Total Energy              =    -591.5353737318395133 [Eh]

	 ================> DF-SCS-MP2 Energies <==================
	-----------------------------------------------------------
	 SCS Same-Spin Scale       =       0.3333333333333333 [-]
	 SCS Opposite-Spin Scale   =       1.2000000000000000 [-]
	 SCS Same-Spin Energy      =      -0.0890999633460270 [Eh]
	 SCS Opposite-Spin Energy  =      -1.0344890010146244 [Eh]
	 SCS Correlation Energy    =      -1.1235889643606514 [Eh]
	 SCS Total Energy          =    -591.5295886386498978 [Eh]
	-----------------------------------------------------------

  Dipole Moment: [D]
     X:    -0.8718      Y:    -0.3584      Z:     0.4949     Total:     1.0646

*** Psi4 exiting successfully. Buy a developer a beer!
