                               Psi4 1.3.2 release

  ==> Input File <==

--------------------------------------------------------------------------
#psi4
#
memory 32 gb

molecule  {
0 1
  S        1.4017960     0.0318670    -0.2267910
  C        0.3439980    -1.2907520     0.4304430
  C       -1.0366050    -1.1980160    -0.1526860
  C       -1.7323087     0.0067795    -0.1612625
  C       -1.0273490     1.2315180     0.1753310
  C        0.3208110     1.3651600     0.1119950
  H        0.3192380    -1.2040060     1.5241050
  H        0.8310050    -2.2339400     0.1718380
  H       -1.5205060    -2.1086570    -0.4970330
  H       -2.7141090     0.0333350    -0.5285000
  H       -1.6282610     2.1139460     0.3806850
  H        0.8050420     2.3317560     0.2174670
units angstrom
no_reorient  #important for SAPT in psi4, default
symmetry c1  #important for SAPT in psi4, default
}

set PROPERTIES_ORIGIN ["COM"]
properties('MP2/aug-cc-pvtz', properties = ['dipole'])
--------------------------------------------------------------------------

    Molecular point group: c1
  Charge       = 0
  Multiplicity = 1
  Basis Set: AUG-CC-PVTZ
    Blend: AUG-CC-PVTZ
  Basis Set: (AUG-CC-PVTZ AUX)
    Blend: AUG-CC-PVTZ-JKFIT

    Orbital Energies [Eh]
    ---------------------

    Doubly Occupied:

       1A    -91.962451     2A    -11.269192     3A    -11.268754
       4A    -11.250330     5A    -11.242251     6A    -11.241254
       7A     -8.962924     8A     -6.644159     9A     -6.643219
      10A     -6.642356    11A     -1.138337    12A     -1.024988
      13A     -1.017401    14A     -0.858903    15A     -0.818722
      16A     -0.700276    17A     -0.678932    18A     -0.610834
      19A     -0.597129    20A     -0.579194    21A     -0.545651
      22A     -0.481831    23A     -0.463130    24A     -0.449267
      25A     -0.361116    26A     -0.294603

  @DF-RHF Final Energy:  -590.40038898673151

   => Energetics <=

    Nuclear Repulsion Energy =            271.4205372266284826
    One-Electron Energy =               -1348.1474457870829156
    Two-Electron Energy =                 486.3265195737228055
    Total Energy =                       -590.4003889867315138
  Basis Set: (AUG-CC-PVTZ AUX)
    Blend: AUG-CC-PVTZ-RI
    Molecular point group: c1

    Geometry (in Angstrom), charge = 0, multiplicity = 1:

       Center              X                  Y                   Z               Mass
    ------------   -----------------  -----------------  -----------------  -----------------
         S            1.368101427126     0.018408303562    -0.215296869173    31.972071174400
         C            0.310303427126    -1.304210696438     0.441937130827    12.000000000000
         C           -1.070299572874    -1.211474696438    -0.141191869173    12.000000000000
         C           -1.766003272874    -0.006679196438    -0.149768369173    12.000000000000
         C           -1.061043572874     1.218059303562     0.186825130827    12.000000000000
         C            0.287116427126     1.351701303562     0.123489130827    12.000000000000
         H            0.285543427126    -1.217464696438     1.535599130827     1.007825032230
         H            0.797310427126    -2.247398696438     0.183332130827     1.007825032230
         H           -1.554200572874    -2.122115696438    -0.485538869173     1.007825032230
         H           -2.747803572874     0.019876303562    -0.517005869173     1.007825032230
         H           -1.661955572874     2.100487303562     0.392179130827     1.007825032230
         H            0.771347427126     2.318297303562     0.228961130827     1.007825032230

  Basis Set: AUG-CC-PVTZ
    Blend: AUG-CC-PVTZ
  Basis Set: (AUG-CC-PVTZ AUX)
    Blend: AUG-CC-PVTZ-JKFIT
	 Reference Energy          =    -590.4003889867315138 [Eh]
	 Singles Energy            =      -0.0000000000000000 [Eh]
	 Same-Spin Energy          =      -0.2683315378805911 [Eh]
	 Opposite-Spin Energy      =      -0.8638301096230898 [Eh]
	 Correlation Energy        =      -1.1321616475036809 [Eh]
	 Total Energy              =    -591.5325506342352355 [Eh]

	 ================> DF-SCS-MP2 Energies <==================
	-----------------------------------------------------------
	 SCS Same-Spin Scale       =       0.3333333333333333 [-]
	 SCS Opposite-Spin Scale   =       1.2000000000000000 [-]
	 SCS Same-Spin Energy      =      -0.0894438459601970 [Eh]
	 SCS Opposite-Spin Energy  =      -1.0365961315477077 [Eh]
	 SCS Correlation Energy    =      -1.1260399775079046 [Eh]
	 SCS Total Energy          =    -591.5264289642394715 [Eh]
	-----------------------------------------------------------

  Dipole Moment: [D]
     X:    -0.8428      Y:    -0.3635      Z:     0.4794     Total:     1.0355

*** Psi4 exiting successfully. Buy a developer a beer!
