                               Psi4 1.3.2 release

  ==> Input File <==

--------------------------------------------------------------------------
#psi4
#
memory 32 gb

molecule  {
0 1
  S        1.5410771    -0.0395375    -0.1188094
  C        0.3439980    -1.2907520     0.4304430
  C       -1.0366050    -1.1980160    -0.1526860
  C       -1.6877140    -0.0149620    -0.1717330
  C       -1.0273490     1.2315180     0.1753310
  C        0.3208110     1.3651600     0.1119950
  H        0.3192380    -1.2040060     1.5241050
  H        0.8310050    -2.2339400     0.1718380
  H       -1.5205060    -2.1086570    -0.4970330
  H       -2.7141090     0.0333350    -0.5285000
  H       -1.6282610     2.1139460     0.3806850
  H        0.8050420     2.3317560     0.2174670
units angstrom
no_reorient  #important for SAPT in psi4, default
symmetry c1  #important for SAPT in psi4, default
}

set PROPERTIES_ORIGIN ["COM"]
properties('MP2/aug-cc-pvtz', properties = ['dipole'])
--------------------------------------------------------------------------

    Molecular point group: c1
  Charge       = 0
  Multiplicity = 1
  Basis Set: AUG-CC-PVTZ
    Blend: AUG-CC-PVTZ
  Basis Set: (AUG-CC-PVTZ AUX)
    Blend: AUG-CC-PVTZ-JKFIT

    Orbital Energies [Eh]
    ---------------------

    Doubly Occupied:

       1A    -91.966663     2A    -11.277983     3A    -11.266325
       4A    -11.245931     5A    -11.245115     6A    -11.241880
       7A     -8.964922     8A     -6.645987     9A     -6.644985
      10A     -6.644163    11A     -1.132801    12A     -1.026140
      13A     -1.010260    14A     -0.851979    15A     -0.820573
      16A     -0.691020    17A     -0.681999    18A     -0.609669
      19A     -0.600562    20A     -0.576994    21A     -0.532050
      22A     -0.473922    23A     -0.456089    24A     -0.446933
      25A     -0.368616    26A     -0.301511

  @DF-RHF Final Energy:  -590.39601100907350

   => Energetics <=

    Nuclear Repulsion Energy =            267.8330924485669584
    One-Electron Energy =               -1341.0080684699717040
    Two-Electron Energy =                 482.7789650123312413
    Total Energy =                       -590.3960110090735043
  Basis Set: (AUG-CC-PVTZ AUX)
    Blend: AUG-CC-PVTZ-RI
    Molecular point group: c1

    Geometry (in Angstrom), charge = 0, multiplicity = 1:

       Center              X                  Y                   Z               Mass
    ------------   -----------------  -----------------  -----------------  -----------------
         S            1.456491979834    -0.027043603557    -0.141255104057    31.972071174400
         C            0.259412879834    -1.278258103557     0.407997295943    12.000000000000
         C           -1.121190120166    -1.185522103557    -0.175131704057    12.000000000000
         C           -1.772299120166    -0.002468103557    -0.194178704057    12.000000000000
         C           -1.111934120166     1.244011896443     0.152885295943    12.000000000000
         C            0.236225879834     1.377653896443     0.089549295943    12.000000000000
         H            0.234652879834    -1.191512103557     1.501659295943     1.007825032230
         H            0.746419879834    -2.221446103557     0.149392295943     1.007825032230
         H           -1.605091120166    -2.096163103557    -0.519478704057     1.007825032230
         H           -2.798694120166     0.045828896443    -0.550945704057     1.007825032230
         H           -1.712846120166     2.126439896443     0.358239295943     1.007825032230
         H            0.720456879834     2.344249896443     0.195021295943     1.007825032230

  Basis Set: AUG-CC-PVTZ
    Blend: AUG-CC-PVTZ
  Basis Set: (AUG-CC-PVTZ AUX)
    Blend: AUG-CC-PVTZ-JKFIT
	 Reference Energy          =    -590.3960110090735043 [Eh]
	 Singles Energy            =      -0.0000000000000000 [Eh]
	 Same-Spin Energy          =      -0.2665150776882930 [Eh]
	 Opposite-Spin Energy      =      -0.8634391471279181 [Eh]
	 Correlation Energy        =      -1.1299542248162111 [Eh]
	 Total Energy              =    -591.5259652338896785 [Eh]

	 ================> DF-SCS-MP2 Energies <==================
	-----------------------------------------------------------
	 SCS Same-Spin Scale       =       0.3333333333333333 [-]
	 SCS Opposite-Spin Scale   =       1.2000000000000000 [-]
	 SCS Same-Spin Energy      =      -0.0888383592294310 [Eh]
	 SCS Opposite-Spin Energy  =      -1.0361269765535017 [Eh]
	 SCS Correlation Energy    =      -1.1249653357829328 [Eh]
	 SCS Total Energy          =    -591.5209763448564217 [Eh]
	-----------------------------------------------------------

  Dipole Moment: [D]
     X:    -1.0891      Y:    -0.2700      Z:     0.4638     Total:     1.2141

*** Psi4 exiting successfully. Buy a developer a beer!
