                               Psi4 1.3.2 release

  ==> Input File <==

--------------------------------------------------------------------------
#psi4
#
memory 32 gb

molecule  {
0 1
  S        1.4017960     0.0318670    -0.2267910
  C        0.4347877    -1.3732413     0.3983329
  C       -1.0366050    -1.1980160    -0.1526860
  C       -1.6877140    -0.0149620    -0.1717330
  C       -1.0273490     1.2315180     0.1753310
  C        0.3208110     1.3651600     0.1119950
  H        0.3192380    -1.2040060     1.5241050
  H        0.8310050    -2.2339400     0.1718380
  H       -1.5205060    -2.1086570    -0.4970330
  H       -2.7141090     0.0333350    -0.5285000
  H       -1.6282610     2.1139460     0.3806850
  H        0.8050420     2.3317560     0.2174670
units angstrom
no_reorient  #important for SAPT in psi4, default
symmetry c1  #important for SAPT in psi4, default
}

set PROPERTIES_ORIGIN ["COM"]
properties('MP2/aug-cc-pvtz', properties = ['dipole'])
--------------------------------------------------------------------------

    Molecular point group: c1
  Charge       = 0
  Multiplicity = 1
  Basis Set: AUG-CC-PVTZ
    Blend: AUG-CC-PVTZ
  Basis Set: (AUG-CC-PVTZ AUX)
    Blend: AUG-CC-PVTZ-JKFIT

    Orbital Energies [Eh]
    ---------------------

    Doubly Occupied:

       1A    -91.961563     2A    -11.269415     3A    -11.268641
       4A    -11.249790     5A    -11.241755     6A    -11.240147
       7A     -8.962011     8A     -6.643267     9A     -6.642456
      10A     -6.641544    11A     -1.136032    12A     -1.024981
      13A     -1.019510    14A     -0.867584    15A     -0.815440
      16A     -0.699622    17A     -0.675053    18A     -0.623304
      19A     -0.595577    20A     -0.581336    21A     -0.536315
      22A     -0.491998    23A     -0.459501    24A     -0.442735
      25A     -0.363157    26A     -0.296047

  @DF-RHF Final Energy:  -590.38811930917007

   => Energetics <=

    Nuclear Repulsion Energy =            270.9278792363506341
    One-Electron Energy =               -1347.1344382677714293
    Two-Electron Energy =                 485.8184397222506163
    Total Energy =                       -590.3881193091701789
  Basis Set: (AUG-CC-PVTZ AUX)
    Blend: AUG-CC-PVTZ-RI
    Molecular point group: c1

    Geometry (in Angstrom), charge = 0, multiplicity = 1:

       Center              X                  Y                   Z               Mass
    ------------   -----------------  -----------------  -----------------  -----------------
         S            1.351526962524     0.031168781911    -0.210083929961    31.972071174400
         C            0.384518662524    -1.373939518089     0.415039970039    12.000000000000
         C           -1.086874037476    -1.198714218089    -0.135978929961    12.000000000000
         C           -1.737983037476    -0.015660218089    -0.155025929961    12.000000000000
         C           -1.077618037476     1.230819781911     0.192038070039    12.000000000000
         C            0.270541962524     1.364461781911     0.128702070039    12.000000000000
         H            0.268968962524    -1.204704218089     1.540812070039     1.007825032230
         H            0.780735962524    -2.234638218089     0.188545070039     1.007825032230
         H           -1.570775037476    -2.109355218089    -0.480325929961     1.007825032230
         H           -2.764378037476     0.032636781911    -0.511792929961     1.007825032230
         H           -1.678530037476     2.113247781911     0.397392070039     1.007825032230
         H            0.754772962524     2.331057781911     0.234174070039     1.007825032230

  Basis Set: AUG-CC-PVTZ
    Blend: AUG-CC-PVTZ
  Basis Set: (AUG-CC-PVTZ AUX)
    Blend: AUG-CC-PVTZ-JKFIT
	 Reference Energy          =    -590.3881193091700652 [Eh]
	 Singles Energy            =      -0.0000000000000000 [Eh]
	 Same-Spin Energy          =      -0.2670658815757371 [Eh]
	 Opposite-Spin Energy      =      -0.8623037718536403 [Eh]
	 Correlation Energy        =      -1.1293696534293773 [Eh]
	 Total Energy              =    -591.5174889625994865 [Eh]

	 ================> DF-SCS-MP2 Energies <==================
	-----------------------------------------------------------
	 SCS Same-Spin Scale       =       0.3333333333333333 [-]
	 SCS Opposite-Spin Scale   =       1.2000000000000000 [-]
	 SCS Same-Spin Energy      =      -0.0890219605252457 [Eh]
	 SCS Opposite-Spin Energy  =      -1.0347645262243683 [Eh]
	 SCS Correlation Energy    =      -1.1237864867496139 [Eh]
	 SCS Total Energy          =    -591.5119057959196880 [Eh]
	-----------------------------------------------------------

  Dipole Moment: [D]
     X:    -0.8984      Y:    -0.3916      Z:     0.4775     Total:     1.0902

*** Psi4 exiting successfully. Buy a developer a beer!
