                               Psi4 1.3.2 release

  ==> Input File <==

--------------------------------------------------------------------------
#psi4
#
memory 32 gb

molecule  {
0 1
  S        1.3777058     0.0132235    -0.2289093
  C        0.3439980    -1.2907520     0.4304430
  C       -1.0366050    -1.1980160    -0.1526860
  C       -1.6877140    -0.0149620    -0.1717330
  C       -1.0273490     1.2315180     0.1753310
  C        0.3208110     1.3651600     0.1119950
  H        0.3192380    -1.2040060     1.5241050
  H        0.8310050    -2.2339400     0.1718380
  H       -1.5205060    -2.1086570    -0.4970330
  H       -2.7141090     0.0333350    -0.5285000
  H       -1.6282610     2.1139460     0.3806850
  H        0.8050420     2.3317560     0.2174670
units angstrom
no_reorient  #important for SAPT in psi4, default
symmetry c1  #important for SAPT in psi4, default
}

set PROPERTIES_ORIGIN ["COM"]
properties('MP2/aug-cc-pvtz', properties = ['dipole'])
--------------------------------------------------------------------------

    Molecular point group: c1
  Charge       = 0
  Multiplicity = 1
  Basis Set: AUG-CC-PVTZ
    Blend: AUG-CC-PVTZ
  Basis Set: (AUG-CC-PVTZ AUX)
    Blend: AUG-CC-PVTZ-JKFIT

    Orbital Energies [Eh]
    ---------------------

    Doubly Occupied:

       1A    -91.960606     2A    -11.268336     3A    -11.265878
       4A    -11.243614     5A    -11.241137     6A    -11.239198
       7A     -8.961606     8A     -6.642878     9A     -6.641954
      10A     -6.641058    11A     -1.144209    12A     -1.027366
      13A     -1.020946    14A     -0.858246    15A     -0.818270
      16A     -0.694901    17A     -0.680352    18A     -0.609160
      19A     -0.600468    20A     -0.586360    21A     -0.536367
      22A     -0.486625    23A     -0.462070    24A     -0.450152
      25A     -0.362381    26A     -0.298203

  @DF-RHF Final Energy:  -590.40527361762804

   => Energetics <=

    Nuclear Repulsion Energy =            273.1276841044395951
    One-Electron Energy =               -1351.5812304696355568
    Two-Electron Energy =                 488.0482727475679212
    Total Energy =                       -590.4052736176280405
  Basis Set: (AUG-CC-PVTZ AUX)
    Blend: AUG-CC-PVTZ-RI
    Molecular point group: c1

    Geometry (in Angstrom), charge = 0, multiplicity = 1:

       Center              X                  Y                   Z               Mass
    ------------   -----------------  -----------------  -----------------  -----------------
         S            1.346409508457     0.008507691391    -0.215442363939    31.972071174400
         C            0.312701708457    -1.295467808609     0.443909936061    12.000000000000
         C           -1.067901291543    -1.202731808609    -0.139219063939    12.000000000000
         C           -1.719010291543    -0.019677808609    -0.158266063939    12.000000000000
         C           -1.058645291543     1.226802191391     0.188797936061    12.000000000000
         C            0.289514708457     1.360444191391     0.125461936061    12.000000000000
         H            0.287941708457    -1.208721808609     1.537571936061     1.007825032230
         H            0.799708708457    -2.238655808609     0.185304936061     1.007825032230
         H           -1.551802291543    -2.113372808609    -0.483566063939     1.007825032230
         H           -2.745405291543     0.028619191391    -0.515033063939     1.007825032230
         H           -1.659557291543     2.109230191391     0.394151936061     1.007825032230
         H            0.773745708457     2.327040191391     0.230933936061     1.007825032230

  Basis Set: AUG-CC-PVTZ
    Blend: AUG-CC-PVTZ
  Basis Set: (AUG-CC-PVTZ AUX)
    Blend: AUG-CC-PVTZ-JKFIT
	 Reference Energy          =    -590.4052736176280405 [Eh]
	 Singles Energy            =      -0.0000000000000000 [Eh]
	 Same-Spin Energy          =      -0.2680367290418746 [Eh]
	 Opposite-Spin Energy      =      -0.8625292508709916 [Eh]
	 Correlation Energy        =      -1.1305659799128662 [Eh]
	 Total Energy              =    -591.5358395975408712 [Eh]

	 ================> DF-SCS-MP2 Energies <==================
	-----------------------------------------------------------
	 SCS Same-Spin Scale       =       0.3333333333333333 [-]
	 SCS Opposite-Spin Scale   =       1.2000000000000000 [-]
	 SCS Same-Spin Energy      =      -0.0893455763472915 [Eh]
	 SCS Opposite-Spin Energy  =      -1.0350351010451899 [Eh]
	 SCS Correlation Energy    =      -1.1243806773924814 [Eh]
	 SCS Total Energy          =    -591.5296542950205776 [Eh]
	-----------------------------------------------------------

  Dipole Moment: [D]
     X:    -0.8606      Y:    -0.3503      Z:     0.5008     Total:     1.0556

*** Psi4 exiting successfully. Buy a developer a beer!
