                               Psi4 1.3.2 release

  ==> Input File <==

--------------------------------------------------------------------------
#psi4
#
memory 32 gb

molecule  {
0 1
  S        1.4017960     0.0318670    -0.2267910
  C        0.3439980    -1.2907520     0.4304430
  C       -1.0366050    -1.1980160    -0.1526860
  C       -1.6877140    -0.0149620    -0.1717330
  C       -1.0273490     1.2315180     0.1753310
  C        0.3208110     1.3651600     0.1119950
  H        0.3192380    -1.2040060     1.5241050
  H        0.8310050    -2.2339400     0.1718380
  H       -1.5205060    -2.1086570    -0.4970330
  H       -2.7141090     0.0333350    -0.5285000
  H       -1.6282610     2.1139460     0.3806850
  H        0.7158845     2.1537846     0.1980473
units angstrom
no_reorient  #important for SAPT in psi4, default
symmetry c1  #important for SAPT in psi4, default
}

set PROPERTIES_ORIGIN ["COM"]
properties('MP2/aug-cc-pvtz', properties = ['dipole'])
--------------------------------------------------------------------------

    Molecular point group: c1
  Charge       = 0
  Multiplicity = 1
  Basis Set: AUG-CC-PVTZ
    Blend: AUG-CC-PVTZ
  Basis Set: (AUG-CC-PVTZ AUX)
    Blend: AUG-CC-PVTZ-JKFIT

    Orbital Energies [Eh]
    ---------------------

    Doubly Occupied:

       1A    -91.960796     2A    -11.267523     3A    -11.245990
       4A    -11.243518     5A    -11.240852     6A    -11.238888
       7A     -8.961378     8A     -6.642640     9A     -6.641696
      10A     -6.640848    11A     -1.144076    12A     -1.036699
      13A     -1.018822    14A     -0.859267    15A     -0.840171
      16A     -0.719219    17A     -0.681700    18A     -0.612636
      19A     -0.601435    20A     -0.590023    21A     -0.534767
      22A     -0.489926    23A     -0.462803    24A     -0.450413
      25A     -0.363929    26A     -0.297562

  @DF-RHF Final Energy:  -590.37036779496509

   => Energetics <=

    Nuclear Repulsion Energy =            273.3866221785056041
    One-Electron Energy =               -1351.9388236228849109
    Two-Electron Energy =                 488.1818336494142159
    Total Energy =                       -590.3703677949650910
  Basis Set: (AUG-CC-PVTZ AUX)
    Blend: AUG-CC-PVTZ-RI
    Molecular point group: c1

    Geometry (in Angstrom), charge = 0, multiplicity = 1:

       Center              X                  Y                   Z               Mass
    ------------   -----------------  -----------------  -----------------  -----------------
         S            1.363558622745     0.022899901476    -0.213815343875    31.972071174400
         C            0.305760622745    -1.299719098524     0.443418656125    12.000000000000
         C           -1.074842377255    -1.206983098524    -0.139710343875    12.000000000000
         C           -1.725951377255    -0.023929098524    -0.158757343875    12.000000000000
         C           -1.065586377255     1.222550901476     0.188306656125    12.000000000000
         C            0.282573622745     1.356192901476     0.124970656125    12.000000000000
         H            0.281000622745    -1.212973098524     1.537080656125     1.007825032230
         H            0.792767622745    -2.242907098524     0.184813656125     1.007825032230
         H           -1.558743377255    -2.117624098524    -0.484057343875     1.007825032230
         H           -2.752346377255     0.024367901476    -0.515524343875     1.007825032230
         H           -1.666498377255     2.104978901476     0.393660656125     1.007825032230
         H            0.677647122745     2.144817501476     0.211022956125     1.007825032230

  Basis Set: AUG-CC-PVTZ
    Blend: AUG-CC-PVTZ
  Basis Set: (AUG-CC-PVTZ AUX)
    Blend: AUG-CC-PVTZ-JKFIT
	 Reference Energy          =    -590.3703677949650910 [Eh]
	 Singles Energy            =      -0.0000000000000000 [Eh]
	 Same-Spin Energy          =      -0.2675663307014717 [Eh]
	 Opposite-Spin Energy      =      -0.8622988392336017 [Eh]
	 Correlation Energy        =      -1.1298651699350735 [Eh]
	 Total Energy              =    -591.5002329649001922 [Eh]

	 ================> DF-SCS-MP2 Energies <==================
	-----------------------------------------------------------
	 SCS Same-Spin Scale       =       0.3333333333333333 [-]
	 SCS Opposite-Spin Scale   =       1.2000000000000000 [-]
	 SCS Same-Spin Energy      =      -0.0891887769004906 [Eh]
	 SCS Opposite-Spin Energy  =      -1.0347586070803221 [Eh]
	 SCS Correlation Energy    =      -1.1239473839808127 [Eh]
	 SCS Total Energy          =    -591.4943151789459534 [Eh]
	-----------------------------------------------------------

  Dipole Moment: [D]
     X:    -0.8880      Y:    -0.3486      Z:     0.4951     Total:     1.0747

*** Psi4 exiting successfully. Buy a developer a beer!
