                               Psi4 1.3.2 release

  ==> Input File <==

--------------------------------------------------------------------------
#psi4
#
memory 32 gb

molecule  {
0 1
  S        1.4942075     0.1116443    -0.2238826
  C        0.3439980    -1.2907520     0.4304430
  C       -1.0366050    -1.1980160    -0.1526860
  C       -1.6877140    -0.0149620    -0.1717330
  C       -1.0273490     1.2315180     0.1753310
  C        0.3208110     1.3651600     0.1119950
  H        0.3192380    -1.2040060     1.5241050
  H        0.8310050    -2.2339400     0.1718380
  H       -1.5205060    -2.1086570    -0.4970330
  H       -2.7141090     0.0333350    -0.5285000
  H       -1.6282610     2.1139460     0.3806850
  H        0.8050420     2.3317560     0.2174670
units angstrom
no_reorient  #important for SAPT in psi4, default
symmetry c1  #important for SAPT in psi4, default
}

set PROPERTIES_ORIGIN ["COM"]
properties('MP2/aug-cc-pvtz', properties = ['dipole'])
--------------------------------------------------------------------------

    Molecular point group: c1
  Charge       = 0
  Multiplicity = 1
  Basis Set: AUG-CC-PVTZ
    Blend: AUG-CC-PVTZ
  Basis Set: (AUG-CC-PVTZ AUX)
    Blend: AUG-CC-PVTZ-JKFIT

    Orbital Energies [Eh]
    ---------------------

    Doubly Occupied:

       1A    -91.966676     2A    -11.276231     3A    -11.270049
       4A    -11.243432     5A    -11.241035     6A    -11.240146
       7A     -8.965582     8A     -6.646708     9A     -6.645646
      10A     -6.644897    11A     -1.133831    12A     -1.027042
      13A     -1.007908    14A     -0.865438    15A     -0.812122
      16A     -0.692173    17A     -0.680270    18A     -0.608630
      19A     -0.597841    20A     -0.576136    21A     -0.530170
      22A     -0.475722    23A     -0.463911    24A     -0.451140
      25A     -0.367969    26A     -0.296163

  @DF-RHF Final Energy:  -590.39933186597102

   => Energetics <=

    Nuclear Repulsion Energy =            268.6768706964022044
    One-Electron Energy =               -1342.6986689602310889
    Two-Electron Energy =                 483.6224663978579201
    Total Energy =                       -590.3993318659710212
  Basis Set: (AUG-CC-PVTZ AUX)
    Blend: AUG-CC-PVTZ-RI
    Molecular point group: c1

    Geometry (in Angstrom), charge = 0, multiplicity = 1:

       Center              X                  Y                   Z               Mass
    ------------   -----------------  -----------------  -----------------  -----------------
         S            1.424910414404     0.074825367133    -0.212055284575    31.972071174400
         C            0.274700914404    -1.327570932867     0.442270315425    12.000000000000
         C           -1.105902085596    -1.234834932867    -0.140858684575    12.000000000000
         C           -1.757011085596    -0.051780932867    -0.159905684575    12.000000000000
         C           -1.096646085596     1.194699067133     0.187158315425    12.000000000000
         C            0.251513914404     1.328341067133     0.123822315425    12.000000000000
         H            0.249940914404    -1.240824932867     1.535932315425     1.007825032230
         H            0.761707914404    -2.270758932867     0.183665315425     1.007825032230
         H           -1.589803085596    -2.145475932867    -0.485205684575     1.007825032230
         H           -2.783406085596    -0.003483932867    -0.516672684575     1.007825032230
         H           -1.697558085596     2.077127067133     0.392512315425     1.007825032230
         H            0.735744914404     2.294937067133     0.229294315425     1.007825032230

  Basis Set: AUG-CC-PVTZ
    Blend: AUG-CC-PVTZ
  Basis Set: (AUG-CC-PVTZ AUX)
    Blend: AUG-CC-PVTZ-JKFIT
	 Reference Energy          =    -590.3993318659710212 [Eh]
	 Singles Energy            =      -0.0000000000000000 [Eh]
	 Same-Spin Energy          =      -0.2672620808127890 [Eh]
	 Opposite-Spin Energy      =      -0.8634385166658871 [Eh]
	 Correlation Energy        =      -1.1307005974786761 [Eh]
	 Total Energy              =    -591.5300324634497429 [Eh]

	 ================> DF-SCS-MP2 Energies <==================
	-----------------------------------------------------------
	 SCS Same-Spin Scale       =       0.3333333333333333 [-]
	 SCS Opposite-Spin Scale   =       1.2000000000000000 [-]
	 SCS Same-Spin Energy      =      -0.0890873602709297 [Eh]
	 SCS Opposite-Spin Energy  =      -1.0361262199990644 [Eh]
	 SCS Correlation Energy    =      -1.1252135802699941 [Eh]
	 SCS Total Energy          =    -591.5245454462410635 [Eh]
	-----------------------------------------------------------

  Dipole Moment: [D]
     X:    -0.8721      Y:    -0.4023      Z:     0.4812     Total:     1.0742

*** Psi4 exiting successfully. Buy a developer a beer!
