                               Psi4 1.3.2 release

  ==> Input File <==

--------------------------------------------------------------------------
#psi4
#
memory 32 gb

molecule  {
0 1
  S        1.4017960     0.0318670    -0.2267910
  C        0.3439980    -1.2907520     0.4304430
  C       -1.0366050    -1.1980160    -0.1526860
  C       -1.6877140    -0.0149620    -0.1717330
  C       -1.0273490     1.2315180     0.1753310
  C        0.3185221     1.3882863     0.1164936
  H        0.3192380    -1.2040060     1.5241050
  H        0.8310050    -2.2339400     0.1718380
  H       -1.5205060    -2.1086570    -0.4970330
  H       -2.7141090     0.0333350    -0.5285000
  H       -1.6282610     2.1139460     0.3806850
  H        0.8050420     2.3317560     0.2174670
units angstrom
no_reorient  #important for SAPT in psi4, default
symmetry c1  #important for SAPT in psi4, default
}

set PROPERTIES_ORIGIN ["COM"]
properties('MP2/aug-cc-pvtz', properties = ['dipole'])
--------------------------------------------------------------------------

    Molecular point group: c1
  Charge       = 0
  Multiplicity = 1
  Basis Set: AUG-CC-PVTZ
    Blend: AUG-CC-PVTZ
  Basis Set: (AUG-CC-PVTZ AUX)
    Blend: AUG-CC-PVTZ-JKFIT

    Orbital Energies [Eh]
    ---------------------

    Doubly Occupied:

       1A    -91.961147     2A    -11.268297     3A    -11.267779
       4A    -11.244525     5A    -11.242087     6A    -11.240067
       7A     -8.961323     8A     -6.642527     9A     -6.641630
      10A     -6.640766    11A     -1.140259    12A     -1.027078
      13A     -1.017223    14A     -0.858070    15A     -0.819499
      16A     -0.697092    17A     -0.680762    18A     -0.609135
      19A     -0.600635    20A     -0.584888    21A     -0.535213
      22A     -0.484015    23A     -0.459992    24A     -0.449926
      25A     -0.362971    26A     -0.298945

  @DF-RHF Final Energy:  -590.40538315320396

   => Energetics <=

    Nuclear Repulsion Energy =            271.7810853603440364
    One-Electron Energy =               -1348.9012311465719449
    Two-Electron Energy =                 486.7147626330241224
    Total Energy =                       -590.4053831532039567
  Basis Set: (AUG-CC-PVTZ AUX)
    Blend: AUG-CC-PVTZ-RI
    Molecular point group: c1

    Geometry (in Angstrom), charge = 0, multiplicity = 1:

       Center              X                  Y                   Z               Mass
    ------------   -----------------  -----------------  -----------------  -----------------
         S            1.362922130364     0.018238769121    -0.214565758017    31.972071174400
         C            0.305124130364    -1.304380230879     0.442668241983    12.000000000000
         C           -1.075478869636    -1.211644230879    -0.140460758017    12.000000000000
         C           -1.726587869636    -0.028590230879    -0.159507758017    12.000000000000
         C           -1.066222869636     1.217889769121     0.187556241983    12.000000000000
         C            0.279648230364     1.374658069121     0.128718841983    12.000000000000
         H            0.280364130364    -1.217634230879     1.536330241983     1.007825032230
         H            0.792131130364    -2.247568230879     0.184063241983     1.007825032230
         H           -1.559379869636    -2.122285230879    -0.484807758017     1.007825032230
         H           -2.752982869636     0.019706769121    -0.516274758017     1.007825032230
         H           -1.667134869636     2.100317769121     0.392910241983     1.007825032230
         H            0.766168130364     2.318127769121     0.229692241983     1.007825032230

  Basis Set: AUG-CC-PVTZ
    Blend: AUG-CC-PVTZ
  Basis Set: (AUG-CC-PVTZ AUX)
    Blend: AUG-CC-PVTZ-JKFIT
	 Reference Energy          =    -590.4053831532039567 [Eh]
	 Singles Energy            =      -0.0000000000000000 [Eh]
	 Same-Spin Energy          =      -0.2675146643554047 [Eh]
	 Opposite-Spin Energy      =      -0.8624548306223636 [Eh]
	 Correlation Energy        =      -1.1299694949777683 [Eh]
	 Total Energy              =    -591.5353526481817426 [Eh]

	 ================> DF-SCS-MP2 Energies <==================
	-----------------------------------------------------------
	 SCS Same-Spin Scale       =       0.3333333333333333 [-]
	 SCS Opposite-Spin Scale   =       1.2000000000000000 [-]
	 SCS Same-Spin Energy      =      -0.0891715547851349 [Eh]
	 SCS Opposite-Spin Energy  =      -1.0349457967468363 [Eh]
	 SCS Correlation Energy    =      -1.1241173515319711 [Eh]
	 SCS Total Energy          =    -591.5295005047358927 [Eh]
	-----------------------------------------------------------

  Dipole Moment: [D]
     X:    -0.9131      Y:    -0.3419      Z:     0.5005     Total:     1.0960

*** Psi4 exiting successfully. Buy a developer a beer!
