                               Psi4 1.3.2 release

  ==> Input File <==

--------------------------------------------------------------------------
#psi4
#
memory 32 gb

molecule  {
0 1
  S        1.4017960     0.0318670    -0.2267910
  C        0.3439980    -1.2907520     0.4304430
  C       -1.1285491    -1.1918401    -0.1915207
  C       -1.6877140    -0.0149620    -0.1717330
  C       -1.0273490     1.2315180     0.1753310
  C        0.3208110     1.3651600     0.1119950
  H        0.3192380    -1.2040060     1.5241050
  H        0.8310050    -2.2339400     0.1718380
  H       -1.5205060    -2.1086570    -0.4970330
  H       -2.7141090     0.0333350    -0.5285000
  H       -1.6282610     2.1139460     0.3806850
  H        0.8050420     2.3317560     0.2174670
units angstrom
no_reorient  #important for SAPT in psi4, default
symmetry c1  #important for SAPT in psi4, default
}

set PROPERTIES_ORIGIN ["COM"]
properties('MP2/aug-cc-pvtz', properties = ['dipole'])
--------------------------------------------------------------------------

    Molecular point group: c1
  Charge       = 0
  Multiplicity = 1
  Basis Set: AUG-CC-PVTZ
    Blend: AUG-CC-PVTZ
  Basis Set: (AUG-CC-PVTZ AUX)
    Blend: AUG-CC-PVTZ-JKFIT

    Orbital Energies [Eh]
    ---------------------

    Doubly Occupied:

       1A    -91.961107     2A    -11.269636     3A    -11.269595
       4A    -11.241757     5A    -11.238969     6A    -11.234219
       7A     -8.961527     8A     -6.642799     9A     -6.641823
      10A     -6.640991    11A     -1.138694    12A     -1.030314
      13A     -1.013672    14A     -0.859042    15A     -0.818054
      16A     -0.691470    17A     -0.689571    18A     -0.603473
      19A     -0.601634    20A     -0.588601    21A     -0.515987
      22A     -0.489778    23A     -0.462023    24A     -0.447401
      25A     -0.368591    26A     -0.301723

  @DF-RHF Final Energy:  -590.39852429773327

   => Energetics <=

    Nuclear Repulsion Energy =            271.3704771870695822
    One-Electron Energy =               -1348.0930962426173210
    Two-Electron Energy =                 486.3240947578145210
    Total Energy =                       -590.3985242977332746
  Basis Set: (AUG-CC-PVTZ AUX)
    Blend: AUG-CC-PVTZ-RI
    Molecular point group: c1

    Geometry (in Angstrom), charge = 0, multiplicity = 1:

       Center              X                  Y                   Z               Mass
    ------------   -----------------  -----------------  -----------------  -----------------
         S            1.373898187715     0.020313925526    -0.209260669344    31.972071174400
         C            0.316100187715    -1.302305074474     0.447973330656    12.000000000000
         C           -1.156446912285    -1.203393174474    -0.173990369344    12.000000000000
         C           -1.715611812285    -0.026515074474    -0.154202669344    12.000000000000
         C           -1.055246812285     1.219964925526     0.192861330656    12.000000000000
         C            0.292913187715     1.353606925526     0.129525330656    12.000000000000
         H            0.291340187715    -1.215559074474     1.541635330656     1.007825032230
         H            0.803107187715    -2.245493074474     0.189368330656     1.007825032230
         H           -1.548403812285    -2.120210074474    -0.479502669344     1.007825032230
         H           -2.742006812285     0.021781925526    -0.510969669344     1.007825032230
         H           -1.656158812285     2.102392925526     0.398215330656     1.007825032230
         H            0.777144187715     2.320202925526     0.234997330656     1.007825032230

  Basis Set: AUG-CC-PVTZ
    Blend: AUG-CC-PVTZ
  Basis Set: (AUG-CC-PVTZ AUX)
    Blend: AUG-CC-PVTZ-JKFIT
	 Reference Energy          =    -590.3985242977332746 [Eh]
	 Singles Energy            =      -0.0000000000000000 [Eh]
	 Same-Spin Energy          =      -0.2666227338065360 [Eh]
	 Opposite-Spin Energy      =      -0.8612852464649687 [Eh]
	 Correlation Energy        =      -1.1279079802715049 [Eh]
	 Total Energy              =    -591.5264322780047905 [Eh]

	 ================> DF-SCS-MP2 Energies <==================
	-----------------------------------------------------------
	 SCS Same-Spin Scale       =       0.3333333333333333 [-]
	 SCS Opposite-Spin Scale   =       1.2000000000000000 [-]
	 SCS Same-Spin Energy      =      -0.0888742446021787 [Eh]
	 SCS Opposite-Spin Energy  =      -1.0335422957579625 [Eh]
	 SCS Correlation Energy    =      -1.1224165403601412 [Eh]
	 SCS Total Energy          =    -591.5209408380934519 [Eh]
	-----------------------------------------------------------

  Dipole Moment: [D]
     X:    -0.9126      Y:    -0.3834      Z:     0.4736     Total:     1.0973

*** Psi4 exiting successfully. Buy a developer a beer!
