                               Psi4 1.3.2 release

  ==> Input File <==

--------------------------------------------------------------------------
#psi4
#
memory 32 gb

molecule  {
0 1
  S        1.4017960     0.0318670    -0.2267910
  C        0.3402415    -1.3941099     0.4134808
  C       -1.0366050    -1.1980160    -0.1526860
  C       -1.6877140    -0.0149620    -0.1717330
  C       -1.0273490     1.2315180     0.1753310
  C        0.3208110     1.3651600     0.1119950
  H        0.3192380    -1.2040060     1.5241050
  H        0.8310050    -2.2339400     0.1718380
  H       -1.5205060    -2.1086570    -0.4970330
  H       -2.7141090     0.0333350    -0.5285000
  H       -1.6282610     2.1139460     0.3806850
  H        0.8050420     2.3317560     0.2174670
units angstrom
no_reorient  #important for SAPT in psi4, default
symmetry c1  #important for SAPT in psi4, default
}

set PROPERTIES_ORIGIN ["COM"]
properties('MP2/aug-cc-pvtz', properties = ['dipole'])
--------------------------------------------------------------------------

    Molecular point group: c1
  Charge       = 0
  Multiplicity = 1
  Basis Set: AUG-CC-PVTZ
    Blend: AUG-CC-PVTZ
  Basis Set: (AUG-CC-PVTZ AUX)
    Blend: AUG-CC-PVTZ-JKFIT

    Orbital Energies [Eh]
    ---------------------

    Doubly Occupied:

       1A    -91.960499     2A    -11.270374     3A    -11.269485
       4A    -11.245648     5A    -11.241503     6A    -11.239985
       7A     -8.960291     8A     -6.641438     9A     -6.640575
      10A     -6.639741    11A     -1.137149    12A     -1.029510
      13A     -1.013949    14A     -0.867308    15A     -0.815547
      16A     -0.699992    17A     -0.677406    18A     -0.623929
      19A     -0.598745    20A     -0.581464    21A     -0.539439
      22A     -0.483731    23A     -0.457939    24A     -0.447004
      25A     -0.361742    26A     -0.295245

  @DF-RHF Final Energy:  -590.39556576251528

   => Energetics <=

    Nuclear Repulsion Energy =            270.6923962338770480
    One-Electron Energy =               -1346.6966484328181650
    Two-Electron Energy =                 485.6086864364259554
    Total Energy =                       -590.3955657625152753
  Basis Set: (AUG-CC-PVTZ AUX)
    Blend: AUG-CC-PVTZ-RI
    Molecular point group: c1

    Geometry (in Angstrom), charge = 0, multiplicity = 1:

       Center              X                  Y                   Z               Mass
    ------------   -----------------  -----------------  -----------------  -----------------
         S            1.363101801613     0.033723624803    -0.211938414911    31.972071174400
         C            0.301547301613    -1.392253275197     0.428333385089    12.000000000000
         C           -1.075299198387    -1.196159375197    -0.137833414911    12.000000000000
         C           -1.726408198387    -0.013105375197    -0.156880414911    12.000000000000
         C           -1.066043198387     1.233374624803     0.190183585089    12.000000000000
         C            0.282116801613     1.367016624803     0.126847585089    12.000000000000
         H            0.280543801613    -1.202149375197     1.538957585089     1.007825032230
         H            0.792310801613    -2.232083375197     0.186690585089     1.007825032230
         H           -1.559200198387    -2.106800375197    -0.482180414911     1.007825032230
         H           -2.752803198387     0.035191624803    -0.513647414911     1.007825032230
         H           -1.666955198387     2.115802624803     0.395537585089     1.007825032230
         H            0.766347801613     2.333612624803     0.232319585089     1.007825032230

  Basis Set: AUG-CC-PVTZ
    Blend: AUG-CC-PVTZ
  Basis Set: (AUG-CC-PVTZ AUX)
    Blend: AUG-CC-PVTZ-JKFIT
	 Reference Energy          =    -590.3955657625152753 [Eh]
	 Singles Energy            =      -0.0000000000000000 [Eh]
	 Same-Spin Energy          =      -0.2674739959268597 [Eh]
	 Opposite-Spin Energy      =      -0.8625922095968128 [Eh]
	 Correlation Energy        =      -1.1300662055236725 [Eh]
	 Total Energy              =    -591.5256319680389652 [Eh]

	 ================> DF-SCS-MP2 Energies <==================
	-----------------------------------------------------------
	 SCS Same-Spin Scale       =       0.3333333333333333 [-]
	 SCS Opposite-Spin Scale   =       1.2000000000000000 [-]
	 SCS Same-Spin Energy      =      -0.0891579986422866 [Eh]
	 SCS Opposite-Spin Energy  =      -1.0351106515161754 [Eh]
	 SCS Correlation Energy    =      -1.1242686501584620 [Eh]
	 SCS Total Energy          =    -591.5198344126737311 [Eh]
	-----------------------------------------------------------

  Dipole Moment: [D]
     X:    -0.8890      Y:    -0.4360      Z:     0.5245     Total:     1.1205

*** Psi4 exiting successfully. Buy a developer a beer!
