                               Psi4 1.3.2 release

  ==> Input File <==

--------------------------------------------------------------------------
#psi4
#
memory 32 gb

molecule  {
0 1
  S        1.4255569     0.0509166    -0.2245695
  C        0.3439980    -1.2907520     0.4304430
  C       -1.0366050    -1.1980160    -0.1526860
  C       -1.6877140    -0.0149620    -0.1717330
  C       -1.0273490     1.2315180     0.1753310
  C        0.3208110     1.3651600     0.1119950
  H        0.3192380    -1.2040060     1.5241050
  H        0.8310050    -2.2339400     0.1718380
  H       -1.5205060    -2.1086570    -0.4970330
  H       -2.7141090     0.0333350    -0.5285000
  H       -1.6282610     2.1139460     0.3806850
  H        0.8050420     2.3317560     0.2174670
units angstrom
no_reorient  #important for SAPT in psi4, default
symmetry c1  #important for SAPT in psi4, default
}

set PROPERTIES_ORIGIN ["COM"]
properties('MP2/aug-cc-pvtz', properties = ['dipole'])
--------------------------------------------------------------------------

    Molecular point group: c1
  Charge       = 0
  Multiplicity = 1
  Basis Set: AUG-CC-PVTZ
    Blend: AUG-CC-PVTZ
  Basis Set: (AUG-CC-PVTZ AUX)
    Blend: AUG-CC-PVTZ-JKFIT

    Orbital Energies [Eh]
    ---------------------

    Doubly Occupied:

       1A    -91.963376     2A    -11.269842     3A    -11.269042
       4A    -11.243428     5A    -11.240956     6A    -11.239637
       7A     -8.963426     8A     -6.644635     9A     -6.643664
      10A     -6.642836    11A     -1.139443    12A     -1.026221
      13A     -1.016405    14A     -0.861085    15A     -0.815883
      16A     -0.693590    17A     -0.680122    18A     -0.608796
      19A     -0.599261    20A     -0.581927    21A     -0.533545
      22A     -0.481027    23A     -0.464398    24A     -0.451023
      25A     -0.365253    26A     -0.297242

  @DF-RHF Final Energy:  -590.40494087940465

   => Energetics <=

    Nuclear Repulsion Energy =            271.3030235503277936
    One-Electron Energy =               -1347.9438103020547715
    Two-Electron Energy =                 486.2358458723222725
    Total Energy =                       -590.4049408794046485
  Basis Set: (AUG-CC-PVTZ AUX)
    Blend: AUG-CC-PVTZ-RI
    Molecular point group: c1

    Geometry (in Angstrom), charge = 0, multiplicity = 1:

       Center              X                  Y                   Z               Mass
    ------------   -----------------  -----------------  -----------------  -----------------
         S            1.378652425947     0.033905968823    -0.212518129944    31.972071174400
         C            0.297093525947    -1.307762631177     0.442494370056    12.000000000000
         C           -1.083509474053    -1.215026631177    -0.140634629944    12.000000000000
         C           -1.734618474053    -0.031972631177    -0.159681629944    12.000000000000
         C           -1.074253474053     1.214507368823     0.187382370056    12.000000000000
         C            0.273906525947     1.348149368823     0.124046370056    12.000000000000
         H            0.272333525947    -1.221016631177     1.536156370056     1.007825032230
         H            0.784100525947    -2.250950631177     0.183889370056     1.007825032230
         H           -1.567410474053    -2.125667631177    -0.484981629944     1.007825032230
         H           -2.761013474053     0.016324368823    -0.516448629944     1.007825032230
         H           -1.675165474053     2.096935368823     0.392736370056     1.007825032230
         H            0.758137525947     2.314745368823     0.229518370056     1.007825032230

  Basis Set: AUG-CC-PVTZ
    Blend: AUG-CC-PVTZ
  Basis Set: (AUG-CC-PVTZ AUX)
    Blend: AUG-CC-PVTZ-JKFIT
	 Reference Energy          =    -590.4049408794046485 [Eh]
	 Singles Energy            =      -0.0000000000000000 [Eh]
	 Same-Spin Energy          =      -0.2676114847800254 [Eh]
	 Opposite-Spin Energy      =      -0.8627272494110129 [Eh]
	 Correlation Energy        =      -1.1303387341910383 [Eh]
	 Total Energy              =    -591.5352796135956623 [Eh]

	 ================> DF-SCS-MP2 Energies <==================
	-----------------------------------------------------------
	 SCS Same-Spin Scale       =       0.3333333333333333 [-]
	 SCS Opposite-Spin Scale   =       1.2000000000000000 [-]
	 SCS Same-Spin Energy      =      -0.0892038282600085 [Eh]
	 SCS Opposite-Spin Energy  =      -1.0352726992932153 [Eh]
	 SCS Correlation Energy    =      -1.1244765275532238 [Eh]
	 SCS Total Energy          =    -591.5294174069579185 [Eh]
	-----------------------------------------------------------

  Dipole Moment: [D]
     X:    -0.8599      Y:    -0.3660      Z:     0.4908     Total:     1.0556

*** Psi4 exiting successfully. Buy a developer a beer!
