                               Psi4 1.3.2 release

  ==> Input File <==

--------------------------------------------------------------------------
#psi4
#
memory 32 gb

molecule  {
0 1
  S        1.4017960     0.0318670    -0.2267910
  C        0.3439980    -1.2907520     0.4304430
  C       -1.0366050    -1.1980160    -0.1526860
  C       -1.6877140    -0.0149620    -0.1717330
  C       -1.0273490     1.2315180     0.1753310
  C        0.2590250     1.4413672     0.1313590
  H        0.3192380    -1.2040060     1.5241050
  H        0.8310050    -2.2339400     0.1718380
  H       -1.5205060    -2.1086570    -0.4970330
  H       -2.7141090     0.0333350    -0.5285000
  H       -1.6282610     2.1139460     0.3806850
  H        0.8050420     2.3317560     0.2174670
units angstrom
no_reorient  #important for SAPT in psi4, default
symmetry c1  #important for SAPT in psi4, default
}

set PROPERTIES_ORIGIN ["COM"]
properties('MP2/aug-cc-pvtz', properties = ['dipole'])
--------------------------------------------------------------------------

    Molecular point group: c1
  Charge       = 0
  Multiplicity = 1
  Basis Set: AUG-CC-PVTZ
    Blend: AUG-CC-PVTZ
  Basis Set: (AUG-CC-PVTZ AUX)
    Blend: AUG-CC-PVTZ-JKFIT

    Orbital Energies [Eh]
    ---------------------

    Doubly Occupied:

       1A    -91.956483     2A    -11.266241     3A    -11.264557
       4A    -11.247140     5A    -11.241635     6A    -11.238381
       7A     -8.955769     8A     -6.636873     9A     -6.636026
      10A     -6.635161    11A     -1.140672    12A     -1.036491
      13A     -1.009240    14A     -0.854970    15A     -0.822143
      16A     -0.703418    17A     -0.681584    18A     -0.617660
      19A     -0.602467    20A     -0.581987    21A     -0.535540
      22A     -0.478085    23A     -0.458237    24A     -0.441879
      25A     -0.358418    26A     -0.309226

  @DF-RHF Final Energy:  -590.40058875931322

   => Energetics <=

    Nuclear Repulsion Energy =            271.0493126848584780
    One-Electron Energy =               -1347.4792336913751569
    Two-Electron Energy =                 486.0293322472034561
    Total Energy =                       -590.4005887593132229
  Basis Set: (AUG-CC-PVTZ AUX)
    Blend: AUG-CC-PVTZ-RI
    Molecular point group: c1

    Geometry (in Angstrom), charge = 0, multiplicity = 1:

       Center              X                  Y                   Z               Mass
    ------------   -----------------  -----------------  -----------------  -----------------
         S            1.370206075766     0.011740328399    -0.216385657843    31.972071174400
         C            0.312408075766    -1.310878671601     0.440848342157    12.000000000000
         C           -1.068194924234    -1.218142671601    -0.142280657843    12.000000000000
         C           -1.719303924234    -0.035088671601    -0.161327657843    12.000000000000
         C           -1.058938924234     1.211391328399     0.185736342157    12.000000000000
         C            0.227435075766     1.421240528399     0.141764342157    12.000000000000
         H            0.287648075766    -1.224132671601     1.534510342157     1.007825032230
         H            0.799415075766    -2.254066671601     0.182243342157     1.007825032230
         H           -1.552095924234    -2.128783671601    -0.486627657843     1.007825032230
         H           -2.745698924234     0.013208328399    -0.518094657843     1.007825032230
         H           -1.659850924234     2.093819328399     0.391090342157     1.007825032230
         H            0.773452075766     2.311629328399     0.227872342157     1.007825032230

  Basis Set: AUG-CC-PVTZ
    Blend: AUG-CC-PVTZ
  Basis Set: (AUG-CC-PVTZ AUX)
    Blend: AUG-CC-PVTZ-JKFIT
	 Reference Energy          =    -590.4005887593132229 [Eh]
	 Singles Energy            =      -0.0000000000000000 [Eh]
	 Same-Spin Energy          =      -0.2661918111243498 [Eh]
	 Opposite-Spin Energy      =      -0.8611360209266491 [Eh]
	 Correlation Energy        =      -1.1273278320509990 [Eh]
	 Total Energy              =    -591.5279165913642601 [Eh]

	 ================> DF-SCS-MP2 Energies <==================
	-----------------------------------------------------------
	 SCS Same-Spin Scale       =       0.3333333333333333 [-]
	 SCS Opposite-Spin Scale   =       1.2000000000000000 [-]
	 SCS Same-Spin Energy      =      -0.0887306037081166 [Eh]
	 SCS Opposite-Spin Energy  =      -1.0333632251119789 [Eh]
	 SCS Correlation Energy    =      -1.1220938288200955 [Eh]
	 SCS Total Energy          =    -591.5226825881333070 [Eh]
	-----------------------------------------------------------

  Dipole Moment: [D]
     X:    -1.1300      Y:    -0.2461      Z:     0.5242     Total:     1.2698

*** Psi4 exiting successfully. Buy a developer a beer!
