                               Psi4 1.3.2 release

  ==> Input File <==

--------------------------------------------------------------------------
#psi4
#
memory 32 gb

molecule  {
0 1
  S        1.4017960     0.0318670    -0.2267910
  C        0.4819779    -1.4119427     0.3811255
  C       -1.0366050    -1.1980160    -0.1526860
  C       -1.6877140    -0.0149620    -0.1717330
  C       -1.0273490     1.2315180     0.1753310
  C        0.3208110     1.3651600     0.1119950
  H        0.3192380    -1.2040060     1.5241050
  H        0.8310050    -2.2339400     0.1718380
  H       -1.5205060    -2.1086570    -0.4970330
  H       -2.7141090     0.0333350    -0.5285000
  H       -1.6282610     2.1139460     0.3806850
  H        0.8050420     2.3317560     0.2174670
units angstrom
no_reorient  #important for SAPT in psi4, default
symmetry c1  #important for SAPT in psi4, default
}

set PROPERTIES_ORIGIN ["COM"]
properties('MP2/aug-cc-pvtz', properties = ['dipole'])
--------------------------------------------------------------------------

    Molecular point group: c1
  Charge       = 0
  Multiplicity = 1
  Basis Set: AUG-CC-PVTZ
    Blend: AUG-CC-PVTZ
  Basis Set: (AUG-CC-PVTZ AUX)
    Blend: AUG-CC-PVTZ-JKFIT

    Orbital Energies [Eh]
    ---------------------

    Doubly Occupied:

       1A    -91.962010     2A    -11.270145     3A    -11.270135
       4A    -11.253084     5A    -11.242320     6A    -11.240745
       7A     -8.962348     8A     -6.643606     9A     -6.642868
      10A     -6.641924    11A     -1.134076    12A     -1.027238
      13A     -1.018373    14A     -0.874260    15A     -0.814534
      16A     -0.704835    17A     -0.673436    18A     -0.629077
      19A     -0.594649    20A     -0.580382    21A     -0.534491
      22A     -0.493856    23A     -0.457400    24A     -0.437845
      25A     -0.362797    26A     -0.295169

  @DF-RHF Final Energy:  -590.36211800279682

   => Energetics <=

    Nuclear Repulsion Energy =            270.3314794982282478
    One-Electron Energy =               -1345.8639908719271716
    Two-Electron Energy =                 485.1703933709022181
    Total Energy =                       -590.3621180027967057
  Basis Set: (AUG-CC-PVTZ AUX)
    Blend: AUG-CC-PVTZ-RI
    Molecular point group: c1

    Geometry (in Angstrom), charge = 0, multiplicity = 1:

       Center              X                  Y                   Z               Mass
    ------------   -----------------  -----------------  -----------------  -----------------
         S            1.345749692030     0.035906809220    -0.207977310275    31.972071174400
         C            0.425931592030    -1.407902890780     0.399939189725    12.000000000000
         C           -1.092651307970    -1.193976190780    -0.133872310275    12.000000000000
         C           -1.743760307970    -0.010922190780    -0.152919310275    12.000000000000
         C           -1.083395307970     1.235557809220     0.194144689725    12.000000000000
         C            0.264764692030     1.369199809220     0.130808689725    12.000000000000
         H            0.263191692030    -1.199966190780     1.542918689725     1.007825032230
         H            0.774958692030    -2.229900190780     0.190651689725     1.007825032230
         H           -1.576552307970    -2.104617190780    -0.478219310275     1.007825032230
         H           -2.770155307970     0.037374809220    -0.509686310275     1.007825032230
         H           -1.684307307970     2.117985809220     0.399498689725     1.007825032230
         H            0.748995692030     2.335795809220     0.236280689725     1.007825032230

  Basis Set: AUG-CC-PVTZ
    Blend: AUG-CC-PVTZ
  Basis Set: (AUG-CC-PVTZ AUX)
    Blend: AUG-CC-PVTZ-JKFIT
	 Reference Energy          =    -590.3621180027968194 [Eh]
	 Singles Energy            =      -0.0000000000000000 [Eh]
	 Same-Spin Energy          =      -0.2670429389522320 [Eh]
	 Opposite-Spin Energy      =      -0.8630786773320656 [Eh]
	 Correlation Energy        =      -1.1301216162842975 [Eh]
	 Total Energy              =    -591.4922396190811469 [Eh]

	 ================> DF-SCS-MP2 Energies <==================
	-----------------------------------------------------------
	 SCS Same-Spin Scale       =       0.3333333333333333 [-]
	 SCS Opposite-Spin Scale   =       1.2000000000000000 [-]
	 SCS Same-Spin Energy      =      -0.0890143129840773 [Eh]
	 SCS Opposite-Spin Energy  =      -1.0356944127984786 [Eh]
	 SCS Correlation Energy    =      -1.1247087257825559 [Eh]
	 SCS Total Energy          =    -591.4868267285793308 [Eh]
	-----------------------------------------------------------

  Dipole Moment: [D]
     X:    -0.9297      Y:    -0.3840      Z:     0.4611     Total:     1.1066

*** Psi4 exiting successfully. Buy a developer a beer!
