                               Psi4 1.3.2 release

  ==> Input File <==

--------------------------------------------------------------------------
#psi4
#
memory 32 gb

molecule  {
0 1
  S        1.4017960     0.0318670    -0.2267910
  C        0.3439980    -1.2907520     0.4304430
  C       -1.0366050    -1.1980160    -0.1526860
  C       -1.7066721    -0.0257740    -0.1806367
  C       -1.0273490     1.2315180     0.1753310
  C        0.3208110     1.3651600     0.1119950
  H        0.3192380    -1.2040060     1.5241050
  H        0.8310050    -2.2339400     0.1718380
  H       -1.5205060    -2.1086570    -0.4970330
  H       -2.7141090     0.0333350    -0.5285000
  H       -1.6282610     2.1139460     0.3806850
  H        0.8050420     2.3317560     0.2174670
units angstrom
no_reorient  #important for SAPT in psi4, default
symmetry c1  #important for SAPT in psi4, default
}

set PROPERTIES_ORIGIN ["COM"]
properties('MP2/aug-cc-pvtz', properties = ['dipole'])
--------------------------------------------------------------------------

    Molecular point group: c1
  Charge       = 0
  Multiplicity = 1
  Basis Set: AUG-CC-PVTZ
    Blend: AUG-CC-PVTZ
  Basis Set: (AUG-CC-PVTZ AUX)
    Blend: AUG-CC-PVTZ-JKFIT

    Orbital Energies [Eh]
    ---------------------

    Doubly Occupied:

       1A    -91.961675     2A    -11.268482     3A    -11.268155
       4A    -11.244033     5A    -11.242148     6A    -11.239454
       7A     -8.962200     8A     -6.643443     9A     -6.642498
      10A     -6.641629    11A     -1.139840    12A     -1.026116
      13A     -1.018150    14A     -0.860533    15A     -0.815447
      16A     -0.696990    17A     -0.679310    18A     -0.609379
      19A     -0.598149    20A     -0.583722    21A     -0.538750
      22A     -0.481341    23A     -0.463002    24A     -0.449885
      25A     -0.363696    26A     -0.298479

  @DF-RHF Final Energy:  -590.40537885761478

   => Energetics <=

    Nuclear Repulsion Energy =            271.8573561828191600
    One-Electron Energy =               -1349.0524591652886102
    Two-Electron Energy =                 486.7897241248547289
    Total Energy =                       -590.4053788576147781
  Basis Set: (AUG-CC-PVTZ AUX)
    Blend: AUG-CC-PVTZ-RI
    Molecular point group: c1

    Geometry (in Angstrom), charge = 0, multiplicity = 1:

       Center              X                  Y                   Z               Mass
    ------------   -----------------  -----------------  -----------------  -----------------
         S            1.364962860798     0.022393672876    -0.212924978526    31.972071174400
         C            0.307164860798    -1.300225327124     0.444309021474    12.000000000000
         C           -1.073438139202    -1.207489327124    -0.138819978526    12.000000000000
         C           -1.743505239202    -0.035247327124    -0.166770678526    12.000000000000
         C           -1.064182139202     1.222044672876     0.189197021474    12.000000000000
         C            0.283977860798     1.355686672876     0.125861021474    12.000000000000
         H            0.282404860798    -1.213479327124     1.537971021474     1.007825032230
         H            0.794171860798    -2.243413327124     0.185704021474     1.007825032230
         H           -1.557339139202    -2.118130327124    -0.483166978526     1.007825032230
         H           -2.750942139202     0.023861672876    -0.514633978526     1.007825032230
         H           -1.665094139202     2.104472672876     0.394551021474     1.007825032230
         H            0.768208860798     2.322282672876     0.231333021474     1.007825032230

  Basis Set: AUG-CC-PVTZ
    Blend: AUG-CC-PVTZ
  Basis Set: (AUG-CC-PVTZ AUX)
    Blend: AUG-CC-PVTZ-JKFIT
	 Reference Energy          =    -590.4053788576147781 [Eh]
	 Singles Energy            =      -0.0000000000000000 [Eh]
	 Same-Spin Energy          =      -0.2674244771954101 [Eh]
	 Opposite-Spin Energy      =      -0.8623337683791501 [Eh]
	 Correlation Energy        =      -1.1297582455745601 [Eh]
	 Total Energy              =    -591.5351371031892995 [Eh]

	 ================> DF-SCS-MP2 Energies <==================
	-----------------------------------------------------------
	 SCS Same-Spin Scale       =       0.3333333333333333 [-]
	 SCS Opposite-Spin Scale   =       1.2000000000000000 [-]
	 SCS Same-Spin Energy      =      -0.0891414923984700 [Eh]
	 SCS Opposite-Spin Energy  =      -1.0348005220549801 [Eh]
	 SCS Correlation Energy    =      -1.1239420144534500 [Eh]
	 SCS Total Energy          =    -591.5293208720681832 [Eh]
	-----------------------------------------------------------

  Dipole Moment: [D]
     X:    -0.8807      Y:    -0.3687      Z:     0.4905     Total:     1.0734

*** Psi4 exiting successfully. Buy a developer a beer!
