                               Psi4 1.4a3.dev225

  ==> Input File <==

--------------------------------------------------------------------------
#psi4
#
memory 32 gb

molecule  {
0 1
  S        1.4017960     0.0318670    -0.2267910
  C        0.3439980    -1.2907520     0.4304430
  C       -1.0366050    -1.1980160    -0.1526860
  C       -1.6973563     0.0025579    -0.1720151
  C       -1.0273490     1.2315180     0.1753310
  C        0.3208110     1.3651600     0.1119950
  H        0.3192380    -1.2040060     1.5241050
  H        0.8310050    -2.2339400     0.1718380
  H       -1.5205060    -2.1086570    -0.4970330
  H       -2.7141090     0.0333350    -0.5285000
  H       -1.6282610     2.1139460     0.3806850
  H        0.8050420     2.3317560     0.2174670
units angstrom
no_reorient  #important for SAPT in psi4, default
symmetry c1  #important for SAPT in psi4, default
}

set PROPERTIES_ORIGIN ["COM"]
properties('MP2/aug-cc-pvtz', properties = ['dipole'])
--------------------------------------------------------------------------

    Molecular point group: c1
  Charge       = 0
  Multiplicity = 1
  Basis Set: AUG-CC-PVTZ
    Blend: AUG-CC-PVTZ
  Basis Set: (AUG-CC-PVTZ AUX)
    Blend: AUG-CC-PVTZ-JKFIT

    Orbital Energies [Eh]
    ---------------------

    Doubly Occupied:

       1A    -91.962420     2A    -11.268996     3A    -11.268174
       4A    -11.246459     5A    -11.241056     6A    -11.240113
       7A     -8.962896     8A     -6.644130     9A     -6.643188
      10A     -6.642330    11A     -1.140989    12A     -1.025862
      13A     -1.018550    14A     -0.858722    15A     -0.818782
      16A     -0.695790    17A     -0.680026    18A     -0.609477
      19A     -0.599254    20A     -0.582335    21A     -0.538274
      22A     -0.483870    23A     -0.463615    24A     -0.450456
      25A     -0.362556    26A     -0.295666

  @DF-RHF Final Energy:  -590.40376042460605

   => Energetics <=

    Nuclear Repulsion Energy =            272.0132173284101214
    One-Electron Energy =               -1349.3459884665064692
    Two-Electron Energy =                 486.9290107134902996
    Total Energy =                       -590.4037604246061619
  Basis Set: (AUG-CC-PVTZ AUX)
    Blend: AUG-CC-PVTZ-RI
    Molecular point group: c1

    Geometry (in Angstrom), charge = 0, multiplicity = 1:

       Center              X                  Y                   Z               Mass
    ------------   -----------------  -----------------  -----------------  -----------------
         S            1.363822371958     0.018925133860    -0.213980479780    31.972071174400
         C            0.306024371958    -1.303693866140     0.443253520220    12.000000000000
         C           -1.074578628042    -1.210957866140    -0.139875479780    12.000000000000
         C           -1.735329928042    -0.010383966140    -0.159204579780    12.000000000000
         C           -1.065322628042     1.218576133860     0.188141520220    12.000000000000
         C            0.282837371958     1.352218133860     0.124805520220    12.000000000000
         H            0.281264371958    -1.216947866140     1.536915520220     1.007825032230
         H            0.793031371958    -2.246881866140     0.184648520220     1.007825032230
         H           -1.558479628042    -2.121598866140    -0.484222479780     1.007825032230
         H           -2.752082628042     0.020393133860    -0.515689479780     1.007825032230
         H           -1.666234628042     2.101004133860     0.393495520220     1.007825032230
         H            0.767068371958     2.318814133860     0.230277520220     1.007825032230

  Basis Set: AUG-CC-PVTZ
    Blend: AUG-CC-PVTZ
  Basis Set: (AUG-CC-PVTZ AUX)
    Blend: AUG-CC-PVTZ-JKFIT
	 Reference Energy          =    -590.4037604246060482 [Eh]
	 Singles Energy            =      -0.0000000000000000 [Eh]
	 Same-Spin Energy          =      -0.2682541811456671 [Eh]
	 Opposite-Spin Energy      =      -0.8632992231017226 [Eh]
	 Correlation Energy        =      -1.1315534042473896 [Eh]
	 Total Energy              =    -591.5353138288534183 [Eh]

	 ================> DF-SCS-MP2 Energies <==================
	-----------------------------------------------------------
	 SCS Same-Spin Scale       =       0.3333333333333333 [-]
	 SCS Opposite-Spin Scale   =       1.2000000000000000 [-]
	 SCS Same-Spin Energy      =      -0.0894180603818890 [Eh]
	 SCS Opposite-Spin Energy  =      -1.0359590677220671 [Eh]
	 SCS Correlation Energy    =      -1.1253771281039562 [Eh]
	 SCS Total Energy          =    -591.5291375527100399 [Eh]
	-----------------------------------------------------------

  Dipole Moment: [D]
     X:    -0.8475      Y:    -0.3541      Z:     0.4958     Total:     1.0438

*** Psi4 exiting successfully. Buy a developer a beer!
