                               Psi4 1.3.2 release

  ==> Input File <==

--------------------------------------------------------------------------
#psi4
#
memory 32 gb

molecule  {
0 1
  S        1.4017960     0.0318670    -0.2267910
  C        0.3439980    -1.2907520     0.4304430
  C       -1.0366050    -1.1980160    -0.1526860
  C       -1.7359255     0.0726375    -0.1731433
  C       -1.0273490     1.2315180     0.1753310
  C        0.3208110     1.3651600     0.1119950
  H        0.3192380    -1.2040060     1.5241050
  H        0.8310050    -2.2339400     0.1718380
  H       -1.5205060    -2.1086570    -0.4970330
  H       -2.7141090     0.0333350    -0.5285000
  H       -1.6282610     2.1139460     0.3806850
  H        0.8050420     2.3317560     0.2174670
units angstrom
no_reorient  #important for SAPT in psi4, default
symmetry c1  #important for SAPT in psi4, default
}

set PROPERTIES_ORIGIN ["COM"]
properties('MP2/aug-cc-pvtz', properties = ['dipole'])
--------------------------------------------------------------------------

    Molecular point group: c1
  Charge       = 0
  Multiplicity = 1
  Basis Set: AUG-CC-PVTZ
    Blend: AUG-CC-PVTZ
  Basis Set: (AUG-CC-PVTZ AUX)
    Blend: AUG-CC-PVTZ-JKFIT

    Orbital Energies [Eh]
    ---------------------

    Doubly Occupied:

       1A    -91.964048     2A    -11.270118     3A    -11.269674
       4A    -11.257770     5A    -11.245073     6A    -11.238663
       7A     -8.964404     8A     -6.645617     9A     -6.644690
      10A     -6.643843    11A     -1.139323    12A     -1.029914
      13A     -1.012350    14A     -0.856069    15A     -0.824042
      16A     -0.702998    17A     -0.678980    18A     -0.613763
      19A     -0.598626    20A     -0.575371    21A     -0.548382
      22A     -0.482019    23A     -0.464875    24A     -0.449377
      25A     -0.358867    26A     -0.286610

  @DF-RHF Final Energy:  -590.38663354812991

   => Energetics <=

    Nuclear Repulsion Energy =            271.2966211344200360
    One-Electron Energy =               -1347.8355770677092096
    Two-Electron Energy =                 486.1523223851592093
    Total Energy =                       -590.3866335481299075
  Basis Set: (AUG-CC-PVTZ AUX)
    Blend: AUG-CC-PVTZ-RI
    Molecular point group: c1

    Geometry (in Angstrom), charge = 0, multiplicity = 1:

       Center              X                  Y                   Z               Mass
    ------------   -----------------  -----------------  -----------------  -----------------
         S            1.368544214653     0.010345623594    -0.213842359650    31.972071174400
         C            0.310746214653    -1.312273376406     0.443391640350    12.000000000000
         C           -1.069856785347    -1.219537376406    -0.139737359650    12.000000000000
         C           -1.769177285347     0.051116123594    -0.160194659650    12.000000000000
         C           -1.060600785347     1.209996623594     0.188279640350    12.000000000000
         C            0.287559214653     1.343638623594     0.124943640350    12.000000000000
         H            0.285986214653    -1.225527376406     1.537053640350     1.007825032230
         H            0.797753214653    -2.255461376406     0.184786640350     1.007825032230
         H           -1.553757785347    -2.130178376406    -0.484084359650     1.007825032230
         H           -2.747360785347     0.011813623594    -0.515551359650     1.007825032230
         H           -1.661512785347     2.092424623594     0.393633640350     1.007825032230
         H            0.771790214653     2.310234623594     0.230415640350     1.007825032230

  Basis Set: AUG-CC-PVTZ
    Blend: AUG-CC-PVTZ
  Basis Set: (AUG-CC-PVTZ AUX)
    Blend: AUG-CC-PVTZ-JKFIT
	 Reference Energy          =    -590.3866335481299075 [Eh]
	 Singles Energy            =      -0.0000000000000000 [Eh]
	 Same-Spin Energy          =      -0.2704207395713354 [Eh]
	 Opposite-Spin Energy      =      -0.8667375071848868 [Eh]
	 Correlation Energy        =      -1.1371582467562222 [Eh]
	 Total Energy              =    -591.5237917948861650 [Eh]

	 ================> DF-SCS-MP2 Energies <==================
	-----------------------------------------------------------
	 SCS Same-Spin Scale       =       0.3333333333333333 [-]
	 SCS Opposite-Spin Scale   =       1.2000000000000000 [-]
	 SCS Same-Spin Energy      =      -0.0901402465237785 [Eh]
	 SCS Opposite-Spin Energy  =      -1.0400850086218643 [Eh]
	 SCS Correlation Energy    =      -1.1302252551456426 [Eh]
	 SCS Total Energy          =    -591.5168588032755679 [Eh]
	-----------------------------------------------------------

  Dipole Moment: [D]
     X:    -0.7947      Y:    -0.3367      Z:     0.4989     Total:     0.9969

*** Psi4 exiting successfully. Buy a developer a beer!
