                               Psi4 1.3.2 release

  ==> Input File <==

--------------------------------------------------------------------------
#psi4
#
memory 32 gb

molecule  {
0 1
  S        1.4017960     0.0318670    -0.2267910
  C        0.3439980    -1.2907520     0.4304430
  C       -1.0366050    -1.1980160    -0.1526860
  C       -1.6877140    -0.0149620    -0.1717330
  C       -1.0273490     1.2315180     0.1753310
  C        0.2214073     1.3553062     0.1166649
  H        0.3192380    -1.2040060     1.5241050
  H        0.8310050    -2.2339400     0.1718380
  H       -1.5205060    -2.1086570    -0.4970330
  H       -2.7141090     0.0333350    -0.5285000
  H       -1.6282610     2.1139460     0.3806850
  H        0.8050420     2.3317560     0.2174670
units angstrom
no_reorient  #important for SAPT in psi4, default
symmetry c1  #important for SAPT in psi4, default
}

set PROPERTIES_ORIGIN ["COM"]
properties('MP2/aug-cc-pvtz', properties = ['dipole'])
--------------------------------------------------------------------------

    Molecular point group: c1
  Charge       = 0
  Multiplicity = 1
  Basis Set: AUG-CC-PVTZ
    Blend: AUG-CC-PVTZ
  Basis Set: (AUG-CC-PVTZ AUX)
    Blend: AUG-CC-PVTZ-JKFIT

    Orbital Energies [Eh]
    ---------------------

    Doubly Occupied:

       1A    -91.959029     2A    -11.265670     3A    -11.261202
       4A    -11.244005     5A    -11.239446     6A    -11.227948
       7A     -8.958825     8A     -6.639984     9A     -6.639012
      10A     -6.638153    11A     -1.149086    12A     -1.040614
      13A     -1.011194    14A     -0.861292    15A     -0.812367
      16A     -0.693687    17A     -0.675894    18A     -0.617965
      19A     -0.601797    20A     -0.578310    21A     -0.533573
      22A     -0.474310    23A     -0.462275    24A     -0.452761
      25A     -0.360028    26A     -0.311875

  @DF-RHF Final Energy:  -590.39487406086380

   => Energetics <=

    Nuclear Repulsion Energy =            272.7973177786974475
    One-Electron Energy =               -1350.9637770181691394
    Two-Electron Energy =                 487.7715851786080066
    Total Energy =                       -590.3948740608637991
  Basis Set: (AUG-CC-PVTZ AUX)
    Blend: AUG-CC-PVTZ-RI
    Molecular point group: c1

    Geometry (in Angstrom), charge = 0, multiplicity = 1:

       Center              X                  Y                   Z               Mass
    ------------   -----------------  -----------------  -----------------  -----------------
         S            1.374811430867     0.022276365033    -0.214586729457    31.972071174400
         C            0.317013430867    -1.300342634967     0.442647270543    12.000000000000
         C           -1.063589569133    -1.207606634967    -0.140481729457    12.000000000000
         C           -1.714698569133    -0.024552634967    -0.159528729457    12.000000000000
         C           -1.054333569133     1.221927365033     0.187535270543    12.000000000000
         C            0.194422730867     1.345715565033     0.128869170543    12.000000000000
         H            0.292253430867    -1.213596634967     1.536309270543     1.007825032230
         H            0.804020430867    -2.243530634967     0.184042270543     1.007825032230
         H           -1.547490569133    -2.118247634967    -0.484828729457     1.007825032230
         H           -2.741093569133     0.023744365033    -0.516295729457     1.007825032230
         H           -1.655245569133     2.104355365033     0.392889270543     1.007825032230
         H            0.778057430867     2.322165365033     0.229671270543     1.007825032230

  Basis Set: AUG-CC-PVTZ
    Blend: AUG-CC-PVTZ
  Basis Set: (AUG-CC-PVTZ AUX)
    Blend: AUG-CC-PVTZ-JKFIT
	 Reference Energy          =    -590.3948740608637991 [Eh]
	 Singles Energy            =      -0.0000000000000000 [Eh]
	 Same-Spin Energy          =      -0.2663392533566719 [Eh]
	 Opposite-Spin Energy      =      -0.8606452726096037 [Eh]
	 Correlation Energy        =      -1.1269845259662756 [Eh]
	 Total Energy              =    -591.5218585868300352 [Eh]

	 ================> DF-SCS-MP2 Energies <==================
	-----------------------------------------------------------
	 SCS Same-Spin Scale       =       0.3333333333333333 [-]
	 SCS Opposite-Spin Scale   =       1.2000000000000000 [-]
	 SCS Same-Spin Energy      =      -0.0887797511188906 [Eh]
	 SCS Opposite-Spin Energy  =      -1.0327743271315244 [Eh]
	 SCS Correlation Energy    =      -1.1215540782504150 [Eh]
	 SCS Total Energy          =    -591.5164281391141685 [Eh]
	-----------------------------------------------------------

  Dipole Moment: [D]
     X:    -1.0297      Y:    -0.2823      Z:     0.5142     Total:     1.1850

*** Psi4 exiting successfully. Buy a developer a beer!
