                               Psi4 1.3.2 release

  ==> Input File <==

--------------------------------------------------------------------------
#psi4
#
memory 32 gb

molecule  {
0 1
  S        1.4017960     0.0318670    -0.2267910
  C        0.3439980    -1.2907520     0.4304430
  C       -1.0169913    -1.1868764    -0.1458453
  C       -1.6877140    -0.0149620    -0.1717330
  C       -1.0273490     1.2315180     0.1753310
  C        0.3208110     1.3651600     0.1119950
  H        0.3192380    -1.2040060     1.5241050
  H        0.8310050    -2.2339400     0.1718380
  H       -1.5205060    -2.1086570    -0.4970330
  H       -2.7141090     0.0333350    -0.5285000
  H       -1.6282610     2.1139460     0.3806850
  H        0.8050420     2.3317560     0.2174670
units angstrom
no_reorient  #important for SAPT in psi4, default
symmetry c1  #important for SAPT in psi4, default
}

set PROPERTIES_ORIGIN ["COM"]
properties('MP2/aug-cc-pvtz', properties = ['dipole'])
--------------------------------------------------------------------------

    Molecular point group: c1
  Charge       = 0
  Multiplicity = 1
  Basis Set: AUG-CC-PVTZ
    Blend: AUG-CC-PVTZ
  Basis Set: (AUG-CC-PVTZ AUX)
    Blend: AUG-CC-PVTZ-JKFIT

    Orbital Energies [Eh]
    ---------------------

    Doubly Occupied:

       1A    -91.962014     2A    -11.268213     3A    -11.267361
       4A    -11.244278     5A    -11.240700     6A    -11.239176
       7A     -8.962554     8A     -6.643785     9A     -6.642852
      10A     -6.641981    11A     -1.143646    12A     -1.028017
      13A     -1.019065    14A     -0.860620    15A     -0.815619
      16A     -0.695467    17A     -0.677402    18A     -0.610593
      19A     -0.601217    20A     -0.581506    21A     -0.539064
      22A     -0.481109    23A     -0.463700    24A     -0.451174
      25A     -0.363448    26A     -0.297375

  @DF-RHF Final Energy:  -590.40449527524527

   => Energetics <=

    Nuclear Repulsion Energy =            272.5770462849244495
    One-Electron Energy =               -1350.4792107936380035
    Two-Electron Energy =                 487.4976692334684003
    Total Energy =                       -590.4044952752452673
  Basis Set: (AUG-CC-PVTZ AUX)
    Blend: AUG-CC-PVTZ-RI
    Molecular point group: c1

    Geometry (in Angstrom), charge = 0, multiplicity = 1:

       Center              X                  Y                   Z               Mass
    ------------   -----------------  -----------------  -----------------  -----------------
         S            1.360240699798     0.019706243474    -0.214852490118    31.972071174400
         C            0.302442699798    -1.302912756526     0.442381509882    12.000000000000
         C           -1.058546600202    -1.199037156526    -0.133906790118    12.000000000000
         C           -1.729269300202    -0.027122756526    -0.159794490118    12.000000000000
         C           -1.068904300202     1.219357243474     0.187269509882    12.000000000000
         C            0.279255699798     1.352999243474     0.123933509882    12.000000000000
         H            0.277682699798    -1.216166756526     1.536043509882     1.007825032230
         H            0.789449699798    -2.246100756526     0.183776509882     1.007825032230
         H           -1.562061300202    -2.120817756526    -0.485094490118     1.007825032230
         H           -2.755664300202     0.021174243474    -0.516561490118     1.007825032230
         H           -1.669816300202     2.101785243474     0.392623509882     1.007825032230
         H            0.763486699798     2.319595243474     0.229405509882     1.007825032230

  Basis Set: AUG-CC-PVTZ
    Blend: AUG-CC-PVTZ
  Basis Set: (AUG-CC-PVTZ AUX)
    Blend: AUG-CC-PVTZ-JKFIT
	 Reference Energy          =    -590.4044952752452673 [Eh]
	 Singles Energy            =      -0.0000000000000000 [Eh]
	 Same-Spin Energy          =      -0.2680583438765626 [Eh]
	 Opposite-Spin Energy      =      -0.8628066349070900 [Eh]
	 Correlation Energy        =      -1.1308649787836527 [Eh]
	 Total Energy              =    -591.5353602540288875 [Eh]

	 ================> DF-SCS-MP2 Energies <==================
	-----------------------------------------------------------
	 SCS Same-Spin Scale       =       0.3333333333333333 [-]
	 SCS Opposite-Spin Scale   =       1.2000000000000000 [-]
	 SCS Same-Spin Energy      =      -0.0893527812921875 [Eh]
	 SCS Opposite-Spin Energy  =      -1.0353679618885079 [Eh]
	 SCS Correlation Energy    =      -1.1247207431806954 [Eh]
	 SCS Total Energy          =    -591.5292160184259274 [Eh]
	-----------------------------------------------------------

  Dipole Moment: [D]
     X:    -0.8549      Y:    -0.3571      Z:     0.5039     Total:     1.0546

*** Psi4 exiting successfully. Buy a developer a beer!
