                               Psi4 1.4a3.dev225

  ==> Input File <==

--------------------------------------------------------------------------
#psi4
#
memory 32 gb

molecule  {
0 1
  S        1.4017960     0.0318670    -0.2267910
  C        0.3439980    -1.2907520     0.4304430
  C       -1.0366050    -1.1980160    -0.1526860
  C       -1.7118197     0.0288377    -0.1724382
  C       -1.0273490     1.2315180     0.1753310
  C        0.3208110     1.3651600     0.1119950
  H        0.3192380    -1.2040060     1.5241050
  H        0.8310050    -2.2339400     0.1718380
  H       -1.5205060    -2.1086570    -0.4970330
  H       -2.7141090     0.0333350    -0.5285000
  H       -1.6282610     2.1139460     0.3806850
  H        0.8050420     2.3317560     0.2174670
units angstrom
no_reorient  #important for SAPT in psi4, default
symmetry c1  #important for SAPT in psi4, default
}

set PROPERTIES_ORIGIN ["COM"]
properties('MP2/aug-cc-pvtz', properties = ['dipole'])
--------------------------------------------------------------------------

    Molecular point group: c1
  Charge       = 0
  Multiplicity = 1
  Basis Set: AUG-CC-PVTZ
    Blend: AUG-CC-PVTZ
  Basis Set: (AUG-CC-PVTZ AUX)
    Blend: AUG-CC-PVTZ-JKFIT

    Orbital Energies [Eh]
    ---------------------

    Doubly Occupied:

       1A    -91.963005     2A    -11.269443     3A    -11.268704
       4A    -11.250821     5A    -11.242485     6A    -11.239674
       7A     -8.963438     8A     -6.644665     9A     -6.643729
      10A     -6.642875    11A     -1.140163    12A     -1.026754
      13A     -1.016516    14A     -0.857488    15A     -0.821056
      16A     -0.698353    17A     -0.679669    18A     -0.610680
      19A     -0.598751    20A     -0.579526    21A     -0.542892
      22A     -0.483549    23A     -0.464060    24A     -0.450126
      25A     -0.360863    26A     -0.292413

  @DF-RHF Final Energy:  -590.39914502946806

   => Energetics <=

    Nuclear Repulsion Energy =            271.7357951501908815
    One-Electron Energy =               -1348.7664842680171660
    Two-Electron Energy =                 486.6315440883582255
    Total Energy =                       -590.3991450294681727
  Basis Set: (AUG-CC-PVTZ AUX)
    Blend: AUG-CC-PVTZ-RI
    Molecular point group: c1

    Geometry (in Angstrom), charge = 0, multiplicity = 1:

       Center              X                  Y                   Z               Mass
    ------------   -----------------  -----------------  -----------------  -----------------
         S            1.365593056847     0.015707823631    -0.213928681671    31.972071174400
         C            0.307795056847    -1.306911176369     0.443305318329    12.000000000000
         C           -1.072807943153    -1.214175176369    -0.139823681671    12.000000000000
         C           -1.748022643153     0.012678523631    -0.159575881671    12.000000000000
         C           -1.063551943153     1.215358823631     0.188193318329    12.000000000000
         C            0.284608056847     1.349000823631     0.124857318329    12.000000000000
         H            0.283035056847    -1.220165176369     1.536967318329     1.007825032230
         H            0.794802056847    -2.250099176369     0.184700318329     1.007825032230
         H           -1.556708943153    -2.124816176369    -0.484170681671     1.007825032230
         H           -2.750311943153     0.017175823631    -0.515637681671     1.007825032230
         H           -1.664463943153     2.097786823631     0.393547318329     1.007825032230
         H            0.768839056847     2.315596823631     0.230329318329     1.007825032230

  Basis Set: AUG-CC-PVTZ
    Blend: AUG-CC-PVTZ
  Basis Set: (AUG-CC-PVTZ AUX)
    Blend: AUG-CC-PVTZ-JKFIT
	 Reference Energy          =    -590.3991450294680590 [Eh]
	 Singles Energy            =      -0.0000000000000000 [Eh]
	 Same-Spin Energy          =      -0.2690002953986766 [Eh]
	 Opposite-Spin Energy      =      -0.8644697759674995 [Eh]
	 Correlation Energy        =      -1.1334700713661761 [Eh]
	 Total Energy              =    -591.5326151008342777 [Eh]

	 ================> DF-SCS-MP2 Energies <==================
	-----------------------------------------------------------
	 SCS Same-Spin Scale       =       0.3333333333333333 [-]
	 SCS Opposite-Spin Scale   =       1.2000000000000000 [-]
	 SCS Same-Spin Energy      =      -0.0896667651328922 [Eh]
	 SCS Opposite-Spin Energy  =      -1.0373637311609993 [Eh]
	 SCS Correlation Energy    =      -1.1270304962938915 [Eh]
	 SCS Total Energy          =    -591.5261755257619143 [Eh]
	-----------------------------------------------------------

  Dipole Moment: [D]
     X:    -0.8285      Y:    -0.3488      Z:     0.4967     Total:     1.0270

*** Psi4 exiting successfully. Buy a developer a beer!
