                               Psi4 1.3.2 release

  ==> Input File <==

--------------------------------------------------------------------------
#psi4
#
memory 32 gb

molecule  {
0 1
  S        1.4017960     0.0318670    -0.2267910
  C        0.4022260    -1.2179466     0.3942646
  C       -1.0366050    -1.1980160    -0.1526860
  C       -1.6877140    -0.0149620    -0.1717330
  C       -1.0273490     1.2315180     0.1753310
  C        0.3208110     1.3651600     0.1119950
  H        0.3192380    -1.2040060     1.5241050
  H        0.8310050    -2.2339400     0.1718380
  H       -1.5205060    -2.1086570    -0.4970330
  H       -2.7141090     0.0333350    -0.5285000
  H       -1.6282610     2.1139460     0.3806850
  H        0.8050420     2.3317560     0.2174670
units angstrom
no_reorient  #important for SAPT in psi4, default
symmetry c1  #important for SAPT in psi4, default
}

set PROPERTIES_ORIGIN ["COM"]
properties('MP2/aug-cc-pvtz', properties = ['dipole'])
--------------------------------------------------------------------------

    Molecular point group: c1
  Charge       = 0
  Multiplicity = 1
  Basis Set: AUG-CC-PVTZ
    Blend: AUG-CC-PVTZ
  Basis Set: (AUG-CC-PVTZ AUX)
    Blend: AUG-CC-PVTZ-JKFIT

    Orbital Energies [Eh]
    ---------------------

    Doubly Occupied:

       1A    -91.962068     2A    -11.268447     3A    -11.268426
       4A    -11.245192     5A    -11.242423     6A    -11.238127
       7A     -8.964203     8A     -6.645625     9A     -6.644583
      10A     -6.643611    11A     -1.146783    12A     -1.030440
      13A     -1.021210    14A     -0.852629    15A     -0.820605
      16A     -0.692440    17A     -0.677813    18A     -0.605023
      19A     -0.596465    20A     -0.583251    21A     -0.534092
      22A     -0.495771    23A     -0.459164    24A     -0.446377
      25A     -0.367164    26A     -0.297418

  @DF-RHF Final Energy:  -590.39698930024690

   => Energetics <=

    Nuclear Repulsion Energy =            273.6148382534988173
    One-Electron Energy =               -1352.5249535841417128
    Two-Electron Energy =                 488.5131260303959380
    Total Energy =                       -590.3969893002469007
  Basis Set: (AUG-CC-PVTZ AUX)
    Blend: AUG-CC-PVTZ-RI
    Molecular point group: c1

    Geometry (in Angstrom), charge = 0, multiplicity = 1:

       Center              X                  Y                   Z               Mass
    ------------   -----------------  -----------------  -----------------  -----------------
         S            1.355513335726     0.012156794503    -0.209585867449    31.972071174400
         C            0.355943335726    -1.237656805497     0.411469732551    12.000000000000
         C           -1.082887664274    -1.217726205497    -0.135480867449    12.000000000000
         C           -1.733996664274    -0.034672205497    -0.154527867449    12.000000000000
         C           -1.073631664274     1.211807794503     0.192536132551    12.000000000000
         C            0.274528335726     1.345449794503     0.129200132551    12.000000000000
         H            0.272955335726    -1.223716205497     1.541310132551     1.007825032230
         H            0.784722335726    -2.253650205497     0.189043132551     1.007825032230
         H           -1.566788664274    -2.128367205497    -0.479827867449     1.007825032230
         H           -2.760391664274     0.013624794503    -0.511294867449     1.007825032230
         H           -1.674543664274     2.094235794503     0.397890132551     1.007825032230
         H            0.758759335726     2.312045794503     0.234672132551     1.007825032230

  Basis Set: AUG-CC-PVTZ
    Blend: AUG-CC-PVTZ
  Basis Set: (AUG-CC-PVTZ AUX)
    Blend: AUG-CC-PVTZ-JKFIT
	 Reference Energy          =    -590.3969893002469007 [Eh]
	 Singles Energy            =      -0.0000000000000000 [Eh]
	 Same-Spin Energy          =      -0.2683808369707761 [Eh]
	 Opposite-Spin Energy      =      -0.8631954565143042 [Eh]
	 Correlation Energy        =      -1.1315762934850804 [Eh]
	 Total Energy              =    -591.5285655937319689 [Eh]

	 ================> DF-SCS-MP2 Energies <==================
	-----------------------------------------------------------
	 SCS Same-Spin Scale       =       0.3333333333333333 [-]
	 SCS Opposite-Spin Scale   =       1.2000000000000000 [-]
	 SCS Same-Spin Energy      =      -0.0894602789902587 [Eh]
	 SCS Opposite-Spin Energy  =      -1.0358345478171649 [Eh]
	 SCS Correlation Energy    =      -1.1252948268074237 [Eh]
	 SCS Total Energy          =    -591.5222841270543768 [Eh]
	-----------------------------------------------------------

  Dipole Moment: [D]
     X:    -0.8412      Y:    -0.2889      Z:     0.4202     Total:     0.9837

*** Psi4 exiting successfully. Buy a developer a beer!
