                               Psi4 1.3.2 release

  ==> Input File <==

--------------------------------------------------------------------------
#psi4
#
memory 32 gb

molecule  {
0 1
  S        1.4017960     0.0318670    -0.2267910
  C        0.3430306    -1.3929153     0.4070674
  C       -1.0366050    -1.1980160    -0.1526860
  C       -1.6877140    -0.0149620    -0.1717330
  C       -1.0273490     1.2315180     0.1753310
  C        0.3208110     1.3651600     0.1119950
  H        0.3192380    -1.2040060     1.5241050
  H        0.8310050    -2.2339400     0.1718380
  H       -1.5205060    -2.1086570    -0.4970330
  H       -2.7141090     0.0333350    -0.5285000
  H       -1.6282610     2.1139460     0.3806850
  H        0.8050420     2.3317560     0.2174670
units angstrom
no_reorient  #important for SAPT in psi4, default
symmetry c1  #important for SAPT in psi4, default
}

set PROPERTIES_ORIGIN ["COM"]
properties('MP2/aug-cc-pvtz', properties = ['dipole'])
--------------------------------------------------------------------------

    Molecular point group: c1
  Charge       = 0
  Multiplicity = 1
  Basis Set: AUG-CC-PVTZ
    Blend: AUG-CC-PVTZ
  Basis Set: (AUG-CC-PVTZ AUX)
    Blend: AUG-CC-PVTZ-JKFIT

    Orbital Energies [Eh]
    ---------------------

    Doubly Occupied:

       1A    -91.960615     2A    -11.270377     3A    -11.269578
       4A    -11.245683     5A    -11.241480     6A    -11.240065
       7A     -8.960447     8A     -6.641599     9A     -6.640739
      10A     -6.639900    11A     -1.137347    12A     -1.029514
      13A     -1.014348    14A     -0.867230    15A     -0.815794
      16A     -0.700290    17A     -0.676933    18A     -0.623567
      19A     -0.598752    20A     -0.581062    21A     -0.539909
      22A     -0.484117    23A     -0.457641    24A     -0.447080
      25A     -0.362199    26A     -0.295048

  @DF-RHF Final Energy:  -590.39521915580576

   => Energetics <=

    Nuclear Repulsion Energy =            270.7542108069634423
    One-Electron Energy =               -1346.8162284364907464
    Two-Electron Energy =                 485.6667984737216557
    Total Energy =                       -590.3952191558057621
  Basis Set: (AUG-CC-PVTZ AUX)
    Blend: AUG-CC-PVTZ-RI
    Molecular point group: c1

    Geometry (in Angstrom), charge = 0, multiplicity = 1:

       Center              X                  Y                   Z               Mass
    ------------   -----------------  -----------------  -----------------  -----------------
         S            1.362760345439     0.033577375638    -0.211153253022    31.972071174400
         C            0.303994945439    -1.391204924362     0.422705146978    12.000000000000
         C           -1.075640654561    -1.196305624362    -0.137048253022    12.000000000000
         C           -1.726749654561    -0.013251624362    -0.156095253022    12.000000000000
         C           -1.066384654561     1.233228375638     0.190968746978    12.000000000000
         C            0.281775345439     1.366870375638     0.127632746978    12.000000000000
         H            0.280202345439    -1.202295624362     1.539742746978     1.007825032230
         H            0.791969345439    -2.232229624362     0.187475746978     1.007825032230
         H           -1.559541654561    -2.106946624362    -0.481395253022     1.007825032230
         H           -2.753144654561     0.035045375638    -0.512862253022     1.007825032230
         H           -1.667296654561     2.115656375638     0.396322746978     1.007825032230
         H            0.766006345439     2.333466375638     0.233104746978     1.007825032230

  Basis Set: AUG-CC-PVTZ
    Blend: AUG-CC-PVTZ
  Basis Set: (AUG-CC-PVTZ AUX)
    Blend: AUG-CC-PVTZ-JKFIT
	 Reference Energy          =    -590.3952191558057621 [Eh]
	 Singles Energy            =      -0.0000000000000000 [Eh]
	 Same-Spin Energy          =      -0.2674721025935366 [Eh]
	 Opposite-Spin Energy      =      -0.8625747301137950 [Eh]
	 Correlation Energy        =      -1.1300468327073316 [Eh]
	 Total Energy              =    -591.5252659885130697 [Eh]

	 ================> DF-SCS-MP2 Energies <==================
	-----------------------------------------------------------
	 SCS Same-Spin Scale       =       0.3333333333333333 [-]
	 SCS Opposite-Spin Scale   =       1.2000000000000000 [-]
	 SCS Same-Spin Energy      =      -0.0891573675311789 [Eh]
	 SCS Opposite-Spin Energy  =      -1.0350896761365540 [Eh]
	 SCS Correlation Energy    =      -1.1242470436677330 [Eh]
	 SCS Total Energy          =    -591.5194661994735270 [Eh]
	-----------------------------------------------------------

  Dipole Moment: [D]
     X:    -0.8879      Y:    -0.4320      Z:     0.5180     Total:     1.1151

*** Psi4 exiting successfully. Buy a developer a beer!
