                               Psi4 1.3.2 release

  ==> Input File <==

--------------------------------------------------------------------------
#psi4
#
memory 32 gb

molecule  {
0 1
  S        1.5391724     0.1520494    -0.2119385
  C        0.3439980    -1.2907520     0.4304430
  C       -1.0366050    -1.1980160    -0.1526860
  C       -1.6877140    -0.0149620    -0.1717330
  C       -1.0273490     1.2315180     0.1753310
  C        0.3208110     1.3651600     0.1119950
  H        0.3192380    -1.2040060     1.5241050
  H        0.8310050    -2.2339400     0.1718380
  H       -1.5205060    -2.1086570    -0.4970330
  H       -2.7141090     0.0333350    -0.5285000
  H       -1.6282610     2.1139460     0.3806850
  H        0.8050420     2.3317560     0.2174670
units angstrom
no_reorient  #important for SAPT in psi4, default
symmetry c1  #important for SAPT in psi4, default
}

set PROPERTIES_ORIGIN ["COM"]
properties('MP2/aug-cc-pvtz', properties = ['dipole'])
--------------------------------------------------------------------------

    Molecular point group: c1
  Charge       = 0
  Multiplicity = 1
  Basis Set: AUG-CC-PVTZ
    Blend: AUG-CC-PVTZ
  Basis Set: (AUG-CC-PVTZ AUX)
    Blend: AUG-CC-PVTZ-JKFIT

    Orbital Energies [Eh]
    ---------------------

    Doubly Occupied:

       1A    -91.968216     2A    -11.280238     3A    -11.270820
       4A    -11.243612     5A    -11.241676     6A    -11.240029
       7A     -8.966592     8A     -6.647670     9A     -6.646553
      10A     -6.645837    11A     -1.131154    12A     -1.027899
      13A     -1.003307    14A     -0.868101    15A     -0.810013
      16A     -0.691571    17A     -0.680392    18A     -0.608784
      19A     -0.597636    20A     -0.573069    21A     -0.528629
      22A     -0.476113    23A     -0.459951    24A     -0.450132
      25A     -0.369335    26A     -0.295351

  @DF-RHF Final Energy:  -590.39342708806782

   => Energetics <=

    Nuclear Repulsion Energy =            267.1016425069545903
    One-Electron Energy =               -1339.5447809084437267
    Two-Electron Energy =                 482.0497113134214828
    Total Energy =                       -590.3934270880677104
  Basis Set: (AUG-CC-PVTZ AUX)
    Blend: AUG-CC-PVTZ-RI
    Molecular point group: c1

    Geometry (in Angstrom), charge = 0, multiplicity = 1:

       Center              X                  Y                   Z               Mass
    ------------   -----------------  -----------------  -----------------  -----------------
         S            1.455208559287     0.102051038130    -0.204007138748    31.972071174400
         C            0.260034159287    -1.340750361870     0.438374361252    12.000000000000
         C           -1.120568840713    -1.248014361870    -0.144754638748    12.000000000000
         C           -1.771677840713    -0.064960361870    -0.163801638748    12.000000000000
         C           -1.111312840713     1.181519638130     0.183262361252    12.000000000000
         C            0.236847159287     1.315161638130     0.119926361252    12.000000000000
         H            0.235274159287    -1.254004361870     1.532036361252     1.007825032230
         H            0.747041159287    -2.283938361870     0.179769361252     1.007825032230
         H           -1.604469840713    -2.158655361870    -0.489101638748     1.007825032230
         H           -2.798072840713    -0.016663361870    -0.520568638748     1.007825032230
         H           -1.712224840713     2.063947638130     0.388616361252     1.007825032230
         H            0.721078159287     2.281757638130     0.225398361252     1.007825032230

  Basis Set: AUG-CC-PVTZ
    Blend: AUG-CC-PVTZ
  Basis Set: (AUG-CC-PVTZ AUX)
    Blend: AUG-CC-PVTZ-JKFIT
	 Reference Energy          =    -590.3934270880678241 [Eh]
	 Singles Energy            =      -0.0000000000000000 [Eh]
	 Same-Spin Energy          =      -0.2671973606621540 [Eh]
	 Opposite-Spin Energy      =      -0.8640717533956768 [Eh]
	 Correlation Energy        =      -1.1312691140578308 [Eh]
	 Total Energy              =    -591.5246962021257104 [Eh]

	 ================> DF-SCS-MP2 Energies <==================
	-----------------------------------------------------------
	 SCS Same-Spin Scale       =       0.3333333333333333 [-]
	 SCS Opposite-Spin Scale   =       1.2000000000000000 [-]
	 SCS Same-Spin Energy      =      -0.0890657868873847 [Eh]
	 SCS Opposite-Spin Energy  =      -1.0368861040748121 [Eh]
	 SCS Correlation Energy    =      -1.1259518909621968 [Eh]
	 SCS Total Energy          =    -591.5193789790299661 [Eh]
	-----------------------------------------------------------

  Dipole Moment: [D]
     X:    -0.8882      Y:    -0.4317      Z:     0.4763     Total:     1.0964

*** Psi4 exiting successfully. Buy a developer a beer!
