                               Psi4 1.3.2 release

  ==> Input File <==

--------------------------------------------------------------------------
#psi4
#
memory 32 gb

molecule  {
0 1
  S        1.4017960     0.0318670    -0.2267910
  C        0.3439980    -1.2907520     0.4304430
  C       -1.0366050    -1.1980160    -0.1526860
  C       -1.6877140    -0.0149620    -0.1717330
  C       -1.0728077     1.1457118     0.1514395
  C        0.3208110     1.3651600     0.1119950
  H        0.3192380    -1.2040060     1.5241050
  H        0.8310050    -2.2339400     0.1718380
  H       -1.5205060    -2.1086570    -0.4970330
  H       -2.7141090     0.0333350    -0.5285000
  H       -1.6282610     2.1139460     0.3806850
  H        0.8050420     2.3317560     0.2174670
units angstrom
no_reorient  #important for SAPT in psi4, default
symmetry c1  #important for SAPT in psi4, default
}

set PROPERTIES_ORIGIN ["COM"]
properties('MP2/aug-cc-pvtz', properties = ['dipole'])
--------------------------------------------------------------------------

    Molecular point group: c1
  Charge       = 0
  Multiplicity = 1
  Basis Set: AUG-CC-PVTZ
    Blend: AUG-CC-PVTZ
  Basis Set: (AUG-CC-PVTZ AUX)
    Blend: AUG-CC-PVTZ-JKFIT

    Orbital Energies [Eh]
    ---------------------

    Doubly Occupied:

       1A    -91.962964     2A    -11.277513     3A    -11.268511
       4A    -11.244835     5A    -11.244746     6A    -11.232290
       7A     -8.963396     8A     -6.644586     9A     -6.643714
      10A     -6.642881    11A     -1.148693    12A     -1.031139
      13A     -1.018124    14A     -0.853564    15A     -0.828088
      16A     -0.698900    17A     -0.676131    18A     -0.611950
      19A     -0.597082    20A     -0.580290    21A     -0.542438
      22A     -0.488935    23A     -0.461780    24A     -0.446097
      25A     -0.367915    26A     -0.285439

  @DF-RHF Final Energy:  -590.38701826828355

   => Energetics <=

    Nuclear Repulsion Energy =            272.9452338632649457
    One-Electron Energy =               -1351.1405037525685202
    Two-Electron Energy =                 487.8082516210199060
    Total Energy =                       -590.3870182682835548
  Basis Set: (AUG-CC-PVTZ AUX)
    Blend: AUG-CC-PVTZ-RI
    Molecular point group: c1

    Geometry (in Angstrom), charge = 0, multiplicity = 1:

       Center              X                  Y                   Z               Mass
    ------------   -----------------  -----------------  -----------------  -----------------
         S            1.368207202514     0.031574854115    -0.211090093852    31.972071174400
         C            0.310409202514    -1.291044145885     0.446143906148    12.000000000000
         C           -1.070193797486    -1.198308145885    -0.136985093852    12.000000000000
         C           -1.721302797486    -0.015254145885    -0.156032093852    12.000000000000
         C           -1.106396497486     1.145419654115     0.167140406148    12.000000000000
         C            0.287222202514     1.364867854115     0.127695906148    12.000000000000
         H            0.285649202514    -1.204298145885     1.539805906148     1.007825032230
         H            0.797416202514    -2.234232145885     0.187538906148     1.007825032230
         H           -1.554094797486    -2.108949145885    -0.481332093852     1.007825032230
         H           -2.747697797486     0.033042854115    -0.512799093852     1.007825032230
         H           -1.661849797486     2.113653854115     0.396385906148     1.007825032230
         H            0.771453202514     2.331463854115     0.233167906148     1.007825032230

  Basis Set: AUG-CC-PVTZ
    Blend: AUG-CC-PVTZ
  Basis Set: (AUG-CC-PVTZ AUX)
    Blend: AUG-CC-PVTZ-JKFIT
	 Reference Energy          =    -590.3870182682835548 [Eh]
	 Singles Energy            =      -0.0000000000000000 [Eh]
	 Same-Spin Energy          =      -0.2710773503609640 [Eh]
	 Opposite-Spin Energy      =      -0.8664313796713734 [Eh]
	 Correlation Energy        =      -1.1375087300323374 [Eh]
	 Total Energy              =    -591.5245269983158778 [Eh]

	 ================> DF-SCS-MP2 Energies <==================
	-----------------------------------------------------------
	 SCS Same-Spin Scale       =       0.3333333333333333 [-]
	 SCS Opposite-Spin Scale   =       1.2000000000000000 [-]
	 SCS Same-Spin Energy      =      -0.0903591167869880 [Eh]
	 SCS Opposite-Spin Energy  =      -1.0397176556056480 [Eh]
	 SCS Correlation Energy    =      -1.1300767723926359 [Eh]
	 SCS Total Energy          =    -591.5170950406761676 [Eh]
	-----------------------------------------------------------

  Dipole Moment: [D]
     X:    -0.7856      Y:    -0.3485      Z:     0.4990     Total:     0.9938

*** Psi4 exiting successfully. Buy a developer a beer!
