                               Psi4 1.3.2 release

  ==> Input File <==

--------------------------------------------------------------------------
#psi4
#
memory 32 gb

molecule  {
0 1
  S        1.4017960     0.0318670    -0.2267910
  C        0.3419584    -1.2394697     0.4410720
  C       -1.0366050    -1.1980160    -0.1526860
  C       -1.6877140    -0.0149620    -0.1717330
  C       -1.0273490     1.2315180     0.1753310
  C        0.3208110     1.3651600     0.1119950
  H        0.3192380    -1.2040060     1.5241050
  H        0.8310050    -2.2339400     0.1718380
  H       -1.5205060    -2.1086570    -0.4970330
  H       -2.7141090     0.0333350    -0.5285000
  H       -1.6282610     2.1139460     0.3806850
  H        0.8050420     2.3317560     0.2174670
units angstrom
no_reorient  #important for SAPT in psi4, default
symmetry c1  #important for SAPT in psi4, default
}

set PROPERTIES_ORIGIN ["COM"]
properties('MP2/aug-cc-pvtz', properties = ['dipole'])
--------------------------------------------------------------------------

    Molecular point group: c1
  Charge       = 0
  Multiplicity = 1
  Basis Set: AUG-CC-PVTZ
    Blend: AUG-CC-PVTZ
  Basis Set: (AUG-CC-PVTZ AUX)
    Blend: AUG-CC-PVTZ-JKFIT

    Orbital Energies [Eh]
    ---------------------

    Doubly Occupied:

       1A    -91.962751     2A    -11.268306     3A    -11.267735
       4A    -11.242894     5A    -11.241361     6A    -11.238767
       7A     -8.963641     8A     -6.644921     9A     -6.643926
      10A     -6.643045    11A     -1.144482    12A     -1.025300
      13A     -1.021789    14A     -0.856599    15A     -0.818011
      16A     -0.692953    17A     -0.681966    18A     -0.605456
      19A     -0.597837    20A     -0.585868    21A     -0.531240
      22A     -0.485496    23A     -0.462616    24A     -0.451009
      25A     -0.364693    26A     -0.298982

  @DF-RHF Final Energy:  -590.40210839881820

   => Energetics <=

    Nuclear Repulsion Energy =            272.9477069712918933
    One-Electron Energy =               -1351.2163404404886933
    Two-Electron Energy =                 487.8665250703786569
    Total Energy =                       -590.4021083988181999
  Basis Set: (AUG-CC-PVTZ AUX)
    Blend: AUG-CC-PVTZ-RI
    Molecular point group: c1

    Geometry (in Angstrom), charge = 0, multiplicity = 1:

       Center              X                  Y                   Z               Mass
    ------------   -----------------  -----------------  -----------------  -----------------
         S            1.362891609758     0.014791764700    -0.215316273570    31.972071174400
         C            0.303054009758    -1.256544935300     0.452546726430    12.000000000000
         C           -1.075509390242    -1.215091235300    -0.141211273570    12.000000000000
         C           -1.726618390242    -0.032037235300    -0.160258273570    12.000000000000
         C           -1.066253390242     1.214442764700     0.186805726430    12.000000000000
         C            0.281906609758     1.348084764700     0.123469726430    12.000000000000
         H            0.280333609758    -1.221081235300     1.535579726430     1.007825032230
         H            0.792100609758    -2.251015235300     0.183312726430     1.007825032230
         H           -1.559410390242    -2.125732235300    -0.485558273570     1.007825032230
         H           -2.753013390242     0.016259764700    -0.517025273570     1.007825032230
         H           -1.667165390242     2.096870764700     0.392159726430     1.007825032230
         H            0.766137609758     2.314680764700     0.228941726430     1.007825032230

  Basis Set: AUG-CC-PVTZ
    Blend: AUG-CC-PVTZ
  Basis Set: (AUG-CC-PVTZ AUX)
    Blend: AUG-CC-PVTZ-JKFIT
	 Reference Energy          =    -590.4021083988181999 [Eh]
	 Singles Energy            =      -0.0000000000000000 [Eh]
	 Same-Spin Energy          =      -0.2681946428465098 [Eh]
	 Opposite-Spin Energy      =      -0.8631487298338230 [Eh]
	 Correlation Energy        =      -1.1313433726803328 [Eh]
	 Total Energy              =    -591.5334517714985623 [Eh]

	 ================> DF-SCS-MP2 Energies <==================
	-----------------------------------------------------------
	 SCS Same-Spin Scale       =       0.3333333333333333 [-]
	 SCS Opposite-Spin Scale   =       1.2000000000000000 [-]
	 SCS Same-Spin Energy      =      -0.0893982142821699 [Eh]
	 SCS Opposite-Spin Energy  =      -1.0357784758005875 [Eh]
	 SCS Correlation Energy    =      -1.1251766900827573 [Eh]
	 SCS Total Energy          =    -591.5272850889009533 [Eh]
	-----------------------------------------------------------

  Dipole Moment: [D]
     X:    -0.8487      Y:    -0.3139      Z:     0.4810     Total:     1.0248

*** Psi4 exiting successfully. Buy a developer a beer!
