                               Psi4 1.3.2 release

  ==> Input File <==

--------------------------------------------------------------------------
#psi4
#
memory 32 gb

molecule  {
0 1
  S        1.4017960     0.0318670    -0.2267910
  C        0.3439980    -1.2907520     0.4304430
  C       -1.0558263    -1.2085004    -0.1614156
  C       -1.6877140    -0.0149620    -0.1717330
  C       -1.0273490     1.2315180     0.1753310
  C        0.3208110     1.3651600     0.1119950
  H        0.3192380    -1.2040060     1.5241050
  H        0.8310050    -2.2339400     0.1718380
  H       -1.5205060    -2.1086570    -0.4970330
  H       -2.7141090     0.0333350    -0.5285000
  H       -1.6282610     2.1139460     0.3806850
  H        0.8050420     2.3317560     0.2174670
units angstrom
no_reorient  #important for SAPT in psi4, default
symmetry c1  #important for SAPT in psi4, default
}

set PROPERTIES_ORIGIN ["COM"]
properties('MP2/aug-cc-pvtz', properties = ['dipole'])
--------------------------------------------------------------------------

    Molecular point group: c1
  Charge       = 0
  Multiplicity = 1
  Basis Set: AUG-CC-PVTZ
    Blend: AUG-CC-PVTZ
  Basis Set: (AUG-CC-PVTZ AUX)
    Blend: AUG-CC-PVTZ-JKFIT

    Orbital Energies [Eh]
    ---------------------

    Doubly Occupied:

       1A    -91.962103     2A    -11.269172     3A    -11.268323
       4A    -11.242860     5A    -11.241410     6A    -11.239717
       7A     -8.962569     8A     -6.643815     9A     -6.642859
      10A     -6.642009    11A     -1.139927    12A     -1.025220
      13A     -1.018621    14A     -0.858777    15A     -0.818628
      16A     -0.693011    17A     -0.683357    18A     -0.607382
      19A     -0.598598    20A     -0.586638    21A     -0.530522
      22A     -0.486185    23A     -0.462965    24A     -0.450024
      25A     -0.364290    26A     -0.298078

  @DF-RHF Final Energy:  -590.40517594232722

   => Energetics <=

    Nuclear Repulsion Energy =            271.8434134084279208
    One-Electron Energy =               -1349.0230613649039242
    Two-Electron Energy =                 486.7744720141487278
    Total Energy =                       -590.4051759423272188
  Basis Set: (AUG-CC-PVTZ AUX)
    Blend: AUG-CC-PVTZ-RI
    Molecular point group: c1

    Geometry (in Angstrom), charge = 0, multiplicity = 1:

       Center              X                  Y                   Z               Mass
    ------------   -----------------  -----------------  -----------------  -----------------
         S            1.364995083115     0.022353566375    -0.212946292756    31.972071174400
         C            0.307197083115    -1.300265433625     0.444287707244    12.000000000000
         C           -1.092627216885    -1.218013833625    -0.147570892756    12.000000000000
         C           -1.724514916885    -0.024475433625    -0.157888292756    12.000000000000
         C           -1.064149916885     1.222004566375     0.189175707244    12.000000000000
         C            0.284010083115     1.355646566375     0.125839707244    12.000000000000
         H            0.282437083115    -1.213519433625     1.537949707244     1.007825032230
         H            0.794204083115    -2.243453433625     0.185682707244     1.007825032230
         H           -1.557306916885    -2.118170433625    -0.483188292756     1.007825032230
         H           -2.750909916885     0.023821566375    -0.514655292756     1.007825032230
         H           -1.665061916885     2.104432566375     0.394529707244     1.007825032230
         H            0.768241083115     2.322242566375     0.231311707244     1.007825032230

  Basis Set: AUG-CC-PVTZ
    Blend: AUG-CC-PVTZ
  Basis Set: (AUG-CC-PVTZ AUX)
    Blend: AUG-CC-PVTZ-JKFIT
	 Reference Energy          =    -590.4051759423272188 [Eh]
	 Singles Energy            =      -0.0000000000000000 [Eh]
	 Same-Spin Energy          =      -0.2675957859670359 [Eh]
	 Opposite-Spin Energy      =      -0.8624831919536560 [Eh]
	 Correlation Energy        =      -1.1300789779206919 [Eh]
	 Total Energy              =    -591.5352549202478940 [Eh]

	 ================> DF-SCS-MP2 Energies <==================
	-----------------------------------------------------------
	 SCS Same-Spin Scale       =       0.3333333333333333 [-]
	 SCS Opposite-Spin Scale   =       1.2000000000000000 [-]
	 SCS Same-Spin Energy      =      -0.0891985953223453 [Eh]
	 SCS Opposite-Spin Energy  =      -1.0349798303443871 [Eh]
	 SCS Correlation Energy    =      -1.1241784256667324 [Eh]
	 SCS Total Energy          =    -591.5293543679939603 [Eh]
	-----------------------------------------------------------

  Dipole Moment: [D]
     X:    -0.8635      Y:    -0.3562      Z:     0.4892     Total:     1.0544

*** Psi4 exiting successfully. Buy a developer a beer!
