                               Psi4 1.3.2 release

  ==> Input File <==

--------------------------------------------------------------------------
#psi4
#
memory 32 gb

molecule  {
0 1
  S        1.4495889     0.0096401    -0.1915403
  C        0.3439980    -1.2907520     0.4304430
  C       -1.0366050    -1.1980160    -0.1526860
  C       -1.6877140    -0.0149620    -0.1717330
  C       -1.0273490     1.2315180     0.1753310
  C        0.3208110     1.3651600     0.1119950
  H        0.3192380    -1.2040060     1.5241050
  H        0.8310050    -2.2339400     0.1718380
  H       -1.5205060    -2.1086570    -0.4970330
  H       -2.7141090     0.0333350    -0.5285000
  H       -1.6282610     2.1139460     0.3806850
  H        0.8050420     2.3317560     0.2174670
units angstrom
no_reorient  #important for SAPT in psi4, default
symmetry c1  #important for SAPT in psi4, default
}

set PROPERTIES_ORIGIN ["COM"]
properties('MP2/aug-cc-pvtz', properties = ['dipole'])
--------------------------------------------------------------------------

    Molecular point group: c1
  Charge       = 0
  Multiplicity = 1
  Basis Set: AUG-CC-PVTZ
    Blend: AUG-CC-PVTZ
  Basis Set: (AUG-CC-PVTZ AUX)
    Blend: AUG-CC-PVTZ-JKFIT

    Orbital Energies [Eh]
    ---------------------

    Doubly Occupied:

       1A    -91.963726     2A    -11.271910     3A    -11.267369
       4A    -11.243916     5A    -11.242579     6A    -11.240292
       7A     -8.963389     8A     -6.644565     9A     -6.643614
      10A     -6.642774    11A     -1.138187    12A     -1.025249
      13A     -1.016908    14A     -0.857072    15A     -0.818496
      16A     -0.692900    17A     -0.680762    18A     -0.609195
      19A     -0.600043    20A     -0.581396    21A     -0.533976
      22A     -0.479520    23A     -0.461361    24A     -0.450400
      25A     -0.365930    26A     -0.298925

  @DF-RHF Final Energy:  -590.40439334188363

   => Energetics <=

    Nuclear Repulsion Energy =            270.7072764158438076
    One-Electron Energy =               -1346.7544317876577225
    Two-Electron Energy =                 485.6427620299303385
    Total Energy =                       -590.4043933418836332
  Basis Set: (AUG-CC-PVTZ AUX)
    Blend: AUG-CC-PVTZ-RI
    Molecular point group: c1

    Geometry (in Angstrom), charge = 0, multiplicity = 1:

       Center              X                  Y                   Z               Mass
    ------------   -----------------  -----------------  -----------------  -----------------
         S            1.394845612585     0.006093133094    -0.190262470819    31.972071174400
         C            0.289254712585    -1.294298966906     0.431720829181    12.000000000000
         C           -1.091348287415    -1.201562966906    -0.151408170819    12.000000000000
         C           -1.742457287415    -0.018508966906    -0.170455170819    12.000000000000
         C           -1.082092287415     1.227971033094     0.176608829181    12.000000000000
         C            0.266067712585     1.361613033094     0.113272829181    12.000000000000
         H            0.264494712585    -1.207552966906     1.525382829181     1.007825032230
         H            0.776261712585    -2.237486966906     0.173115829181     1.007825032230
         H           -1.575249287415    -2.112203966906    -0.495755170819     1.007825032230
         H           -2.768852287415     0.029788033094    -0.527222170819     1.007825032230
         H           -1.683004287415     2.110399033094     0.381962829181     1.007825032230
         H            0.750298712585     2.328209033094     0.218744829181     1.007825032230

  Basis Set: AUG-CC-PVTZ
    Blend: AUG-CC-PVTZ
  Basis Set: (AUG-CC-PVTZ AUX)
    Blend: AUG-CC-PVTZ-JKFIT
	 Reference Energy          =    -590.4043933418836332 [Eh]
	 Singles Energy            =      -0.0000000000000000 [Eh]
	 Same-Spin Energy          =      -0.2672712491010228 [Eh]
	 Opposite-Spin Energy      =      -0.8627015309299793 [Eh]
	 Correlation Energy        =      -1.1299727800310020 [Eh]
	 Total Energy              =    -591.5343661219146725 [Eh]

	 ================> DF-SCS-MP2 Energies <==================
	-----------------------------------------------------------
	 SCS Same-Spin Scale       =       0.3333333333333333 [-]
	 SCS Opposite-Spin Scale   =       1.2000000000000000 [-]
	 SCS Same-Spin Energy      =      -0.0890904163670076 [Eh]
	 SCS Opposite-Spin Energy  =      -1.0352418371159751 [Eh]
	 SCS Correlation Energy    =      -1.1243322534829827 [Eh]
	 SCS Total Energy          =    -591.5287255953666090 [Eh]
	-----------------------------------------------------------

  Dipole Moment: [D]
     X:    -0.9315      Y:    -0.3306      Z:     0.4859     Total:     1.1015

*** Psi4 exiting successfully. Buy a developer a beer!
