                               Psi4 1.4a3.dev225

  ==> Input File <==

--------------------------------------------------------------------------
#psi4
#
memory 32 gb

molecule  {
0 1
  S        1.4017960     0.0318670    -0.2267910
  C        0.3439980    -1.2907520     0.4304430
  C       -1.0366050    -1.1980160    -0.1526860
  C       -1.6877140    -0.0149620    -0.1717330
  C       -1.0273490     1.2315180     0.1753310
  C        0.3406917     1.3671308     0.1110610
  H        0.3192380    -1.2040060     1.5241050
  H        0.8310050    -2.2339400     0.1718380
  H       -1.5205060    -2.1086570    -0.4970330
  H       -2.7141090     0.0333350    -0.5285000
  H       -1.6282610     2.1139460     0.3806850
  H        0.8050420     2.3317560     0.2174670
units angstrom
no_reorient  #important for SAPT in psi4, default
symmetry c1  #important for SAPT in psi4, default
}

set PROPERTIES_ORIGIN ["COM"]
properties('MP2/aug-cc-pvtz', properties = ['dipole'])
--------------------------------------------------------------------------

    Molecular point group: c1
  Charge       = 0
  Multiplicity = 1
  Basis Set: AUG-CC-PVTZ
    Blend: AUG-CC-PVTZ
  Basis Set: (AUG-CC-PVTZ AUX)
    Blend: AUG-CC-PVTZ-JKFIT

    Orbital Energies [Eh]
    ---------------------

    Doubly Occupied:

       1A    -91.962752     2A    -11.270141     3A    -11.268327
       4A    -11.243430     5A    -11.243218     6A    -11.239546
       7A     -8.963404     8A     -6.644661     9A     -6.643715
      10A     -6.642857    11A     -1.140859    12A     -1.025134
      13A     -1.019430    14A     -0.859363    15A     -0.817967
      16A     -0.694844    17A     -0.680466    18A     -0.607134
      19A     -0.599289    20A     -0.585553    21A     -0.535177
      22A     -0.487222    23A     -0.463354    24A     -0.448831
      25A     -0.364699    26A     -0.294797

  @DF-RHF Final Energy:  -590.40397045370787

   => Energetics <=

    Nuclear Repulsion Energy =            272.1058820585155900
    One-Electron Energy =               -1349.5273621026497040
    Two-Electron Energy =                 487.0175095904261866
    Total Energy =                       -590.4039704537078705
  Basis Set: (AUG-CC-PVTZ AUX)
    Blend: AUG-CC-PVTZ-RI
    Molecular point group: c1

    Geometry (in Angstrom), charge = 0, multiplicity = 1:

       Center              X                  Y                   Z               Mass
    ------------   -----------------  -----------------  -----------------  -----------------
         S            1.360208012265     0.020828735807    -0.213900670781    31.972071174400
         C            0.302410012265    -1.301790264193     0.443333329219    12.000000000000
         C           -1.078192987735    -1.209054264193    -0.139795670781    12.000000000000
         C           -1.729301987735    -0.026000264193    -0.158842670781    12.000000000000
         C           -1.068936987735     1.220479735807     0.188221329219    12.000000000000
         C            0.299103712265     1.356092535807     0.123951329219    12.000000000000
         H            0.277650012265    -1.215044264193     1.536995329219     1.007825032230
         H            0.789417012265    -2.244978264193     0.184728329219     1.007825032230
         H           -1.562093987735    -2.119695264193    -0.484142670781     1.007825032230
         H           -2.755696987735     0.022296735807    -0.515609670781     1.007825032230
         H           -1.669848987735     2.102907735807     0.393575329219     1.007825032230
         H            0.763454012265     2.320717735807     0.230357329219     1.007825032230

  Basis Set: AUG-CC-PVTZ
    Blend: AUG-CC-PVTZ
  Basis Set: (AUG-CC-PVTZ AUX)
    Blend: AUG-CC-PVTZ-JKFIT
	 Reference Energy          =    -590.4039704537078705 [Eh]
	 Singles Energy            =      -0.0000000000000000 [Eh]
	 Same-Spin Energy          =      -0.2682079390590985 [Eh]
	 Opposite-Spin Energy      =      -0.8631769705770183 [Eh]
	 Correlation Energy        =      -1.1313849096361168 [Eh]
	 Total Energy              =    -591.5353553633440242 [Eh]

	 ================> DF-SCS-MP2 Energies <==================
	-----------------------------------------------------------
	 SCS Same-Spin Scale       =       0.3333333333333333 [-]
	 SCS Opposite-Spin Scale   =       1.2000000000000000 [-]
	 SCS Same-Spin Energy      =      -0.0894026463530328 [Eh]
	 SCS Opposite-Spin Energy  =      -1.0358123646924218 [Eh]
	 SCS Correlation Energy    =      -1.1252150110454546 [Eh]
	 SCS Total Energy          =    -591.5291854647533683 [Eh]
	-----------------------------------------------------------

  Dipole Moment: [D]
     X:    -0.8274      Y:    -0.3732      Z:     0.4921     Total:     1.0325

*** Psi4 exiting successfully. Buy a developer a beer!
