                               Psi4 1.3.2 release

  ==> Input File <==

--------------------------------------------------------------------------
#psi4
#
memory 32 gb

molecule  {
0 1
  S        1.4017960     0.0318670    -0.2267910
  C        0.3439980    -1.2907520     0.4304430
  C       -1.0752400    -1.2186212    -0.1701483
  C       -1.6877140    -0.0149620    -0.1717330
  C       -1.0273490     1.2315180     0.1753310
  C        0.3208110     1.3651600     0.1119950
  H        0.3192380    -1.2040060     1.5241050
  H        0.8310050    -2.2339400     0.1718380
  H       -1.5205060    -2.1086570    -0.4970330
  H       -2.7141090     0.0333350    -0.5285000
  H       -1.6282610     2.1139460     0.3806850
  H        0.8050420     2.3317560     0.2174670
units angstrom
no_reorient  #important for SAPT in psi4, default
symmetry c1  #important for SAPT in psi4, default
}

set PROPERTIES_ORIGIN ["COM"]
properties('MP2/aug-cc-pvtz', properties = ['dipole'])
--------------------------------------------------------------------------

    Molecular point group: c1
  Charge       = 0
  Multiplicity = 1
  Basis Set: AUG-CC-PVTZ
    Blend: AUG-CC-PVTZ
  Basis Set: (AUG-CC-PVTZ AUX)
    Blend: AUG-CC-PVTZ-JKFIT

    Orbital Energies [Eh]
    ---------------------

    Doubly Occupied:

       1A    -91.962180     2A    -11.269666     3A    -11.268766
       4A    -11.242404     5A    -11.241771     6A    -11.240068
       7A     -8.962609     8A     -6.643862     9A     -6.642895
      10A     -6.642054    11A     -1.138307    12A     -1.024550
      13A     -1.017884    14A     -0.857988    15A     -0.820273
      16A     -0.691865    17A     -0.686800    18A     -0.605962
      19A     -0.597696    20A     -0.588921    21A     -0.525992
      22A     -0.488310    23A     -0.462636    24A     -0.449209
      25A     -0.364636    26A     -0.298463

  @DF-RHF Final Energy:  -590.40359849369736

   => Energetics <=

    Nuclear Repulsion Energy =            271.4893489460727665
    One-Electron Energy =               -1348.3143599849524890
    Two-Electron Energy =                 486.4214125451822497
    Total Energy =                       -590.4035984936974728
  Basis Set: (AUG-CC-PVTZ AUX)
    Blend: AUG-CC-PVTZ-RI
    Molecular point group: c1

    Geometry (in Angstrom), charge = 0, multiplicity = 1:

       Center              X                  Y                   Z               Mass
    ------------   -----------------  -----------------  -----------------  -----------------
         S            1.367371809558     0.023592607515    -0.211877190060    31.972071174400
         C            0.309573809558    -1.299026392485     0.445356809940    12.000000000000
         C           -1.109664190442    -1.226895592485    -0.155234490060    12.000000000000
         C           -1.722138190442    -0.023236392485    -0.156819190060    12.000000000000
         C           -1.061773190442     1.223243607515     0.190244809940    12.000000000000
         C            0.286386809558     1.356885607515     0.126908809940    12.000000000000
         H            0.284813809558    -1.212280392485     1.539018809940     1.007825032230
         H            0.796580809558    -2.242214392485     0.186751809940     1.007825032230
         H           -1.554930190442    -2.116931392485    -0.482119190060     1.007825032230
         H           -2.748533190442     0.025060607515    -0.513586190060     1.007825032230
         H           -1.662685190442     2.105671607515     0.395598809940     1.007825032230
         H            0.770617809558     2.323481607515     0.232380809940     1.007825032230

  Basis Set: AUG-CC-PVTZ
    Blend: AUG-CC-PVTZ
  Basis Set: (AUG-CC-PVTZ AUX)
    Blend: AUG-CC-PVTZ-JKFIT
	 Reference Energy          =    -590.4035984936973591 [Eh]
	 Singles Energy            =      -0.0000000000000000 [Eh]
	 Same-Spin Energy          =      -0.2674284699820957 [Eh]
	 Opposite-Spin Energy      =      -0.8624460402975171 [Eh]
	 Correlation Energy        =      -1.1298745102796128 [Eh]
	 Total Energy              =    -591.5334730039769511 [Eh]

	 ================> DF-SCS-MP2 Energies <==================
	-----------------------------------------------------------
	 SCS Same-Spin Scale       =       0.3333333333333333 [-]
	 SCS Opposite-Spin Scale   =       1.2000000000000000 [-]
	 SCS Same-Spin Energy      =      -0.0891428233273652 [Eh]
	 SCS Opposite-Spin Energy  =      -1.0349352483570204 [Eh]
	 SCS Correlation Energy    =      -1.1240780716843857 [Eh]
	 SCS Total Energy          =    -591.5276765653817392 [Eh]
	-----------------------------------------------------------

  Dipole Moment: [D]
     X:    -0.8665      Y:    -0.3536      Z:     0.4832     Total:     1.0532

*** Psi4 exiting successfully. Buy a developer a beer!
