                               Psi4 1.3.2 release

  ==> Input File <==

--------------------------------------------------------------------------
#psi4
#
memory 32 gb

molecule  {
0 1
  S        1.3527144     0.0524824    -0.2612409
  C        0.3439980    -1.2907520     0.4304430
  C       -1.0366050    -1.1980160    -0.1526860
  C       -1.6877140    -0.0149620    -0.1717330
  C       -1.0273490     1.2315180     0.1753310
  C        0.3208110     1.3651600     0.1119950
  H        0.3192380    -1.2040060     1.5241050
  H        0.8310050    -2.2339400     0.1718380
  H       -1.5205060    -2.1086570    -0.4970330
  H       -2.7141090     0.0333350    -0.5285000
  H       -1.6282610     2.1139460     0.3806850
  H        0.8050420     2.3317560     0.2174670
units angstrom
no_reorient  #important for SAPT in psi4, default
symmetry c1  #important for SAPT in psi4, default
}

set PROPERTIES_ORIGIN ["COM"]
properties('MP2/aug-cc-pvtz', properties = ['dipole'])
--------------------------------------------------------------------------

    Molecular point group: c1
  Charge       = 0
  Multiplicity = 1
  Basis Set: AUG-CC-PVTZ
    Blend: AUG-CC-PVTZ
  Basis Set: (AUG-CC-PVTZ AUX)
    Blend: AUG-CC-PVTZ-JKFIT

    Orbital Energies [Eh]
    ---------------------

    Doubly Occupied:

       1A    -91.960223     2A    -11.268259     3A    -11.265349
       4A    -11.243281     5A    -11.239651     6A    -11.238456
       7A     -8.961652     8A     -6.642965     9A     -6.641998
      10A     -6.641114    11A     -1.145828    12A     -1.029435
      13A     -1.019332    14A     -0.862121    15A     -0.815527
      16A     -0.695743    17A     -0.679719    18A     -0.608692
      19A     -0.599713    20A     -0.587010    21A     -0.535765
      22A     -0.488016    23A     -0.466112    24A     -0.449636
      25A     -0.361393    26A     -0.296587

  @DF-RHF Final Energy:  -590.40422351804352

   => Energetics <=

    Nuclear Repulsion Energy =            273.7384508554295621
    One-Electron Energy =               -1352.7981983089071036
    Two-Electron Energy =                 488.6555239354340188
    Total Energy =                       -590.4042235180434091
  Basis Set: (AUG-CC-PVTZ AUX)
    Blend: AUG-CC-PVTZ-RI
    Molecular point group: c1

    Geometry (in Angstrom), charge = 0, multiplicity = 1:

       Center              X                  Y                   Z               Mass
    ------------   -----------------  -----------------  -----------------  -----------------
         S            1.329569861131     0.034961032556    -0.237227967846    31.972071174400
         C            0.320853461131    -1.308273367444     0.454455932154    12.000000000000
         C           -1.059749538869    -1.215537367444    -0.128673067846    12.000000000000
         C           -1.710858538869    -0.032483367444    -0.147720067846    12.000000000000
         C           -1.050493538869     1.213996632556     0.199343932154    12.000000000000
         C            0.297666461131     1.347638632556     0.136007932154    12.000000000000
         H            0.296093461131    -1.221527367444     1.548117932154     1.007825032230
         H            0.807860461131    -2.251461367444     0.195850932154     1.007825032230
         H           -1.543650538869    -2.126178367444    -0.473020067846     1.007825032230
         H           -2.737253538869     0.015813632556    -0.504487067846     1.007825032230
         H           -1.651405538869     2.096424632556     0.404697932154     1.007825032230
         H            0.781897461131     2.314234632556     0.241479932154     1.007825032230

  Basis Set: AUG-CC-PVTZ
    Blend: AUG-CC-PVTZ
  Basis Set: (AUG-CC-PVTZ AUX)
    Blend: AUG-CC-PVTZ-JKFIT
	 Reference Energy          =    -590.4042235180435227 [Eh]
	 Singles Energy            =      -0.0000000000000000 [Eh]
	 Same-Spin Energy          =      -0.2684379887439872 [Eh]
	 Opposite-Spin Energy      =      -0.8626805052689628 [Eh]
	 Correlation Energy        =      -1.1311184940129499 [Eh]
	 Total Energy              =    -591.5353420120565033 [Eh]

	 ================> DF-SCS-MP2 Energies <==================
	-----------------------------------------------------------
	 SCS Same-Spin Scale       =       0.3333333333333333 [-]
	 SCS Opposite-Spin Scale   =       1.2000000000000000 [-]
	 SCS Same-Spin Energy      =      -0.0894793295813291 [Eh]
	 SCS Opposite-Spin Energy  =      -1.0352166063227553 [Eh]
	 SCS Correlation Energy    =      -1.1246959359040842 [Eh]
	 SCS Total Energy          =    -591.5289194539476512 [Eh]
	-----------------------------------------------------------

  Dipole Moment: [D]
     X:    -0.7941      Y:    -0.3811      Z:     0.5043     Total:     1.0150

*** Psi4 exiting successfully. Buy a developer a beer!
