                               Psi4 1.4a3.dev225

  ==> Input File <==

--------------------------------------------------------------------------
#psi4
#
memory 32 gb

molecule  {
0 1
  S        1.4017960     0.0318670    -0.2267910
  C        0.3439980    -1.2907520     0.4304430
  C       -0.9906329    -1.2011040    -0.1332687
  C       -1.6877140    -0.0149620    -0.1717330
  C       -1.0273490     1.2315180     0.1753310
  C        0.3208110     1.3651600     0.1119950
  H        0.3192380    -1.2040060     1.5241050
  H        0.8310050    -2.2339400     0.1718380
  H       -1.5205060    -2.1086570    -0.4970330
  H       -2.7141090     0.0333350    -0.5285000
  H       -1.6282610     2.1139460     0.3806850
  H        0.8050420     2.3317560     0.2174670
units angstrom
no_reorient  #important for SAPT in psi4, default
symmetry c1  #important for SAPT in psi4, default
}

set PROPERTIES_ORIGIN ["COM"]
properties('MP2/aug-cc-pvtz', properties = ['dipole'])
--------------------------------------------------------------------------

    Molecular point group: c1
  Charge       = 0
  Multiplicity = 1
  Basis Set: AUG-CC-PVTZ
    Blend: AUG-CC-PVTZ
  Basis Set: (AUG-CC-PVTZ AUX)
    Blend: AUG-CC-PVTZ-JKFIT

    Orbital Energies [Eh]
    ---------------------

    Doubly Occupied:

       1A    -91.962627     2A    -11.268265     3A    -11.266229
       4A    -11.246527     5A    -11.242708     6A    -11.240545
       7A     -8.963166     8A     -6.644383     9A     -6.643457
      10A     -6.642579    11A     -1.144434    12A     -1.031788
      13A     -1.015734    14A     -0.860531    15A     -0.816042
      16A     -0.695938    17A     -0.676825    18A     -0.612635
      19A     -0.602947    20A     -0.578919    21A     -0.543164
      22A     -0.479037    23A     -0.464754    24A     -0.450877
      25A     -0.361218    26A     -0.295149

  @DF-RHF Final Energy:  -590.40052172767037

   => Energetics <=

    Nuclear Repulsion Energy =            272.6572790757372786
    One-Electron Energy =               -1350.6146476746143890
    Two-Electron Energy =                 487.5568468712068011
    Total Energy =                       -590.4005217276703661
  Basis Set: (AUG-CC-PVTZ AUX)
    Blend: AUG-CC-PVTZ-RI
    Molecular point group: c1

    Geometry (in Angstrom), charge = 0, multiplicity = 1:

       Center              X                  Y                   Z               Mass
    ------------   -----------------  -----------------  -----------------  -----------------
         S            1.357013766947     0.021448060497    -0.216392183108    31.972071174400
         C            0.299215766947    -1.301170939503     0.440841816892    12.000000000000
         C           -1.035415133053    -1.211522939503    -0.122869883108    12.000000000000
         C           -1.732496233053    -0.025380939503    -0.161334183108    12.000000000000
         C           -1.072131233053     1.221099060497     0.185729816892    12.000000000000
         C            0.276028766947     1.354741060497     0.122393816892    12.000000000000
         H            0.274455766947    -1.214424939503     1.534503816892     1.007825032230
         H            0.786222766947    -2.244358939503     0.182236816892     1.007825032230
         H           -1.565288233053    -2.119075939503    -0.486634183108     1.007825032230
         H           -2.758891233053     0.022916060497    -0.518101183108     1.007825032230
         H           -1.673043233053     2.103527060497     0.391083816892     1.007825032230
         H            0.760259766947     2.321337060497     0.227865816892     1.007825032230

  Basis Set: AUG-CC-PVTZ
    Blend: AUG-CC-PVTZ
  Basis Set: (AUG-CC-PVTZ AUX)
    Blend: AUG-CC-PVTZ-JKFIT
	 Reference Energy          =    -590.4005217276703661 [Eh]
	 Singles Energy            =      -0.0000000000000000 [Eh]
	 Same-Spin Energy          =      -0.2688051383745682 [Eh]
	 Opposite-Spin Energy      =      -0.8638820829930440 [Eh]
	 Correlation Energy        =      -1.1326872213676122 [Eh]
	 Total Energy              =    -591.5332089490379985 [Eh]

	 ================> DF-SCS-MP2 Energies <==================
	-----------------------------------------------------------
	 SCS Same-Spin Scale       =       0.3333333333333333 [-]
	 SCS Opposite-Spin Scale   =       1.2000000000000000 [-]
	 SCS Same-Spin Energy      =      -0.0896017127915227 [Eh]
	 SCS Opposite-Spin Energy  =      -1.0366584995916528 [Eh]
	 SCS Correlation Energy    =      -1.1262602123831755 [Eh]
	 SCS Total Energy          =    -591.5267819400535245 [Eh]
	-----------------------------------------------------------

  Dipole Moment: [D]
     X:    -0.8343      Y:    -0.3403      Z:     0.5041     Total:     1.0325

*** Psi4 exiting successfully. Buy a developer a beer!
