                               Psi4 1.3.2 release

  ==> Input File <==

--------------------------------------------------------------------------
#psi4
#
memory 32 gb

molecule  {
0 1
  S        1.4017960     0.0318670    -0.2267910
  C        0.3439980    -1.2907520     0.4304430
  C       -1.0557077    -1.1923753    -0.1042063
  C       -1.6877140    -0.0149620    -0.1717330
  C       -1.0273490     1.2315180     0.1753310
  C        0.3208110     1.3651600     0.1119950
  H        0.3192380    -1.2040060     1.5241050
  H        0.8310050    -2.2339400     0.1718380
  H       -1.5205060    -2.1086570    -0.4970330
  H       -2.7141090     0.0333350    -0.5285000
  H       -1.6282610     2.1139460     0.3806850
  H        0.8050420     2.3317560     0.2174670
units angstrom
no_reorient  #important for SAPT in psi4, default
symmetry c1  #important for SAPT in psi4, default
}

set PROPERTIES_ORIGIN ["COM"]
properties('MP2/aug-cc-pvtz', properties = ['dipole'])
--------------------------------------------------------------------------

    Molecular point group: c1
  Charge       = 0
  Multiplicity = 1
  Basis Set: AUG-CC-PVTZ
    Blend: AUG-CC-PVTZ
  Basis Set: (AUG-CC-PVTZ AUX)
    Blend: AUG-CC-PVTZ-JKFIT

    Orbital Energies [Eh]
    ---------------------

    Doubly Occupied:

       1A    -91.961949     2A    -11.268727     3A    -11.267616
       4A    -11.242910     5A    -11.240878     6A    -11.237689
       7A     -8.962471     8A     -6.643723     9A     -6.642762
      10A     -6.641897    11A     -1.142508    12A     -1.026878
      13A     -1.020069    14A     -0.860856    15A     -0.816048
      16A     -0.694328    17A     -0.678094    18A     -0.610981
      19A     -0.599973    20A     -0.582781    21A     -0.534393
      22A     -0.483000    23A     -0.464301    24A     -0.450143
      25A     -0.365874    26A     -0.298055

  @DF-RHF Final Energy:  -590.40547930972116

   => Energetics <=

    Nuclear Repulsion Energy =            272.2490689112808013
    One-Electron Energy =               -1349.8312859475074674
    Two-Electron Energy =                 487.1767377265055643
    Total Energy =                       -590.4054793097211586
  Basis Set: (AUG-CC-PVTZ AUX)
    Blend: AUG-CC-PVTZ-RI
    Molecular point group: c1

    Geometry (in Angstrom), charge = 0, multiplicity = 1:

       Center              X                  Y                   Z               Mass
    ------------   -----------------  -----------------  -----------------  -----------------
         S            1.364980563485     0.020379447502    -0.219950153746    31.972071174400
         C            0.307182563485    -1.302239552498     0.437283846254    12.000000000000
         C           -1.092523136515    -1.203862852498    -0.097365453746    12.000000000000
         C           -1.724529436515    -0.026449552498    -0.164892153746    12.000000000000
         C           -1.064164436515     1.220030447502     0.182171846254    12.000000000000
         C            0.283995563485     1.353672447502     0.118835846254    12.000000000000
         H            0.282422563485    -1.215493552498     1.530945846254     1.007825032230
         H            0.794189563485    -2.245427552498     0.178678846254     1.007825032230
         H           -1.557321436515    -2.120144552498    -0.490192153746     1.007825032230
         H           -2.750924436515     0.021847447502    -0.521659153746     1.007825032230
         H           -1.665076436515     2.102458447502     0.387525846254     1.007825032230
         H            0.768226563485     2.320268447502     0.224307846254     1.007825032230

  Basis Set: AUG-CC-PVTZ
    Blend: AUG-CC-PVTZ
  Basis Set: (AUG-CC-PVTZ AUX)
    Blend: AUG-CC-PVTZ-JKFIT
	 Reference Energy          =    -590.4054793097211586 [Eh]
	 Singles Energy            =      -0.0000000000000000 [Eh]
	 Same-Spin Energy          =      -0.2674928866805079 [Eh]
	 Opposite-Spin Energy      =      -0.8621670839881607 [Eh]
	 Correlation Energy        =      -1.1296599706686685 [Eh]
	 Total Energy              =    -591.5351392803897852 [Eh]

	 ================> DF-SCS-MP2 Energies <==================
	-----------------------------------------------------------
	 SCS Same-Spin Scale       =       0.3333333333333333 [-]
	 SCS Opposite-Spin Scale   =       1.2000000000000000 [-]
	 SCS Same-Spin Energy      =      -0.0891642955601693 [Eh]
	 SCS Opposite-Spin Energy  =      -1.0346005007857928 [Eh]
	 SCS Correlation Energy    =      -1.1237647963459620 [Eh]
	 SCS Total Energy          =    -591.5292441060671536 [Eh]
	-----------------------------------------------------------

  Dipole Moment: [D]
     X:    -0.8525      Y:    -0.3439      Z:     0.4512     Total:     1.0241

*** Psi4 exiting successfully. Buy a developer a beer!
