                               Psi4 1.3.2 release

  ==> Input File <==

--------------------------------------------------------------------------
#psi4
#
memory 32 gb

molecule  {
0 1
  S        1.4017960     0.0318670    -0.2267910
  C        0.3439980    -1.2907520     0.4304430
  C       -1.0366050    -1.1980160    -0.1526860
  C       -1.6877140    -0.0149620    -0.1717330
  C       -0.9053864     1.1478229     0.2105528
  C        0.3208110     1.3651600     0.1119950
  H        0.3192380    -1.2040060     1.5241050
  H        0.8310050    -2.2339400     0.1718380
  H       -1.5205060    -2.1086570    -0.4970330
  H       -2.7141090     0.0333350    -0.5285000
  H       -1.6282610     2.1139460     0.3806850
  H        0.8050420     2.3317560     0.2174670
units angstrom
no_reorient  #important for SAPT in psi4, default
symmetry c1  #important for SAPT in psi4, default
}

set PROPERTIES_ORIGIN ["COM"]
properties('MP2/aug-cc-pvtz', properties = ['dipole'])
--------------------------------------------------------------------------

    Molecular point group: c1
  Charge       = 0
  Multiplicity = 1
  Basis Set: AUG-CC-PVTZ
    Blend: AUG-CC-PVTZ
  Basis Set: (AUG-CC-PVTZ AUX)
    Blend: AUG-CC-PVTZ-JKFIT

    Orbital Energies [Eh]
    ---------------------

    Doubly Occupied:

       1A    -91.956006     2A    -11.267757     3A    -11.252923
       4A    -11.245347     5A    -11.241173     6A    -11.237728
       7A     -8.957093     8A     -6.638309     9A     -6.637459
      10A     -6.636484    11A     -1.156142    12A     -1.042229
      13A     -1.016251    14A     -0.861236    15A     -0.814506
      16A     -0.703390    17A     -0.665927    18A     -0.624602
      19A     -0.589893    20A     -0.580486    21A     -0.541997
      22A     -0.477172    23A     -0.468641    24A     -0.438878
      25A     -0.363268    26A     -0.309025

  @DF-RHF Final Energy:  -590.38130354083501

   => Energetics <=

    Nuclear Repulsion Energy =            274.7367392349200372
    One-Electron Energy =               -1354.7882435071198870
    Two-Electron Energy =                 489.6702007313649005
    Total Energy =                       -590.3813035408350061
  Basis Set: (AUG-CC-PVTZ AUX)
    Blend: AUG-CC-PVTZ-RI
    Molecular point group: c1

    Geometry (in Angstrom), charge = 0, multiplicity = 1:

       Center              X                  Y                   Z               Mass
    ------------   -----------------  -----------------  -----------------  -----------------
         S            1.347710613465     0.031316402238    -0.218327052456    31.972071174400
         C            0.289912613465    -1.291302597762     0.438906947544    12.000000000000
         C           -1.090690386535    -1.198566597762    -0.144222052456    12.000000000000
         C           -1.741799386535    -0.015512597762    -0.163269052456    12.000000000000
         C           -0.959471786535     1.147272302238     0.219016747544    12.000000000000
         C            0.266725613465     1.364609402238     0.120458947544    12.000000000000
         H            0.265152613465    -1.204556597762     1.532568947544     1.007825032230
         H            0.776919613465    -2.234490597762     0.180301947544     1.007825032230
         H           -1.574591386535    -2.109207597762    -0.488569052456     1.007825032230
         H           -2.768194386535     0.032784402238    -0.520036052456     1.007825032230
         H           -1.682346386535     2.113395402238     0.389148947544     1.007825032230
         H            0.750956613465     2.331205402238     0.225930947544     1.007825032230

  Basis Set: AUG-CC-PVTZ
    Blend: AUG-CC-PVTZ
  Basis Set: (AUG-CC-PVTZ AUX)
    Blend: AUG-CC-PVTZ-JKFIT
	 Reference Energy          =    -590.3813035408350061 [Eh]
	 Singles Energy            =      -0.0000000000000000 [Eh]
	 Same-Spin Energy          =      -0.2673026562289305 [Eh]
	 Opposite-Spin Energy      =      -0.8614172766054208 [Eh]
	 Correlation Energy        =      -1.1287199328343513 [Eh]
	 Total Energy              =    -591.5100234736693210 [Eh]

	 ================> DF-SCS-MP2 Energies <==================
	-----------------------------------------------------------
	 SCS Same-Spin Scale       =       0.3333333333333333 [-]
	 SCS Opposite-Spin Scale   =       1.2000000000000000 [-]
	 SCS Same-Spin Energy      =      -0.0891008854096435 [Eh]
	 SCS Opposite-Spin Energy  =      -1.0337007319265048 [Eh]
	 SCS Correlation Energy    =      -1.1228016173361484 [Eh]
	 SCS Total Energy          =    -591.5041051581711145 [Eh]
	-----------------------------------------------------------

  Dipole Moment: [D]
     X:    -1.0001      Y:    -0.3932      Z:     0.4429     Total:     1.1623

*** Psi4 exiting successfully. Buy a developer a beer!
