                               Psi4 1.4a3.dev225

  ==> Input File <==

--------------------------------------------------------------------------
#psi4
#
memory 32 gb

molecule  {
0 1
  S        1.4017960     0.0318670    -0.2267910
  C        0.3439980    -1.2907520     0.4304430
  C       -1.0366050    -1.1980160    -0.1526860
  C       -1.6877140    -0.0149620    -0.1717330
  C       -1.0273490     1.2315180     0.1753310
  C        0.3208110     1.3651600     0.1119950
  H        0.3192380    -1.2040060     1.5241050
  H        0.8310050    -2.2339400     0.1718380
  H       -1.5205060    -2.1086570    -0.4970330
  H       -2.7141090     0.0333350    -0.5285000
  H       -1.6282610     2.1139460     0.3806850
  H        0.7961263     2.3139589     0.2155250
units angstrom
no_reorient  #important for SAPT in psi4, default
symmetry c1  #important for SAPT in psi4, default
}

set PROPERTIES_ORIGIN ["COM"]
properties('MP2/aug-cc-pvtz', properties = ['dipole'])
--------------------------------------------------------------------------

    Molecular point group: c1
  Charge       = 0
  Multiplicity = 1
  Basis Set: AUG-CC-PVTZ
    Blend: AUG-CC-PVTZ
  Basis Set: (AUG-CC-PVTZ AUX)
    Blend: AUG-CC-PVTZ-JKFIT

    Orbital Energies [Eh]
    ---------------------

    Doubly Occupied:

       1A    -91.961882     2A    -11.267785     3A    -11.266474
       4A    -11.243470     5A    -11.240979     6A    -11.239325
       7A     -8.962398     8A     -6.643640     9A     -6.642694
      10A     -6.641835    11A     -1.141813    12A     -1.027076
      13A     -1.018963    14A     -0.859597    15A     -0.818693
      16A     -0.696407    17A     -0.680540    18A     -0.609230
      19A     -0.599983    20A     -0.584997    21A     -0.534865
      22A     -0.484531    23A     -0.463256    24A     -0.450612
      25A     -0.363891    26A     -0.297659

  @DF-RHF Final Energy:  -590.40559055017468

   => Energetics <=

    Nuclear Repulsion Energy =            272.3097217791872708
    One-Electron Energy =               -1349.9454292464181435
    Two-Electron Energy =                 487.2301169170562503
    Total Energy =                       -590.4055905501747930
  Basis Set: (AUG-CC-PVTZ AUX)
    Blend: AUG-CC-PVTZ-RI
    Molecular point group: c1

    Geometry (in Angstrom), charge = 0, multiplicity = 1:

       Center              X                  Y                   Z               Mass
    ------------   -----------------  -----------------  -----------------  -----------------
         S            1.362733581916     0.021253000020    -0.213995048419    31.972071174400
         C            0.304935581916    -1.301365999980     0.443238951581    12.000000000000
         C           -1.075667418084    -1.208629999980    -0.139890048419    12.000000000000
         C           -1.726776418084    -0.025575999980    -0.158937048419    12.000000000000
         C           -1.066411418084     1.220904000020     0.188126951581    12.000000000000
         C            0.281748581916     1.354546000020     0.124790951581    12.000000000000
         H            0.280175581916    -1.214619999980     1.536900951581     1.007825032230
         H            0.791942581916    -2.244553999980     0.184633951581     1.007825032230
         H           -1.559568418084    -2.119270999980    -0.484237048419     1.007825032230
         H           -2.753171418084     0.022721000020    -0.515704048419     1.007825032230
         H           -1.667323418084     2.103332000020     0.393480951581     1.007825032230
         H            0.757063881916     2.303344900020     0.228320951581     1.007825032230

  Basis Set: AUG-CC-PVTZ
    Blend: AUG-CC-PVTZ
  Basis Set: (AUG-CC-PVTZ AUX)
    Blend: AUG-CC-PVTZ-JKFIT
	 Reference Energy          =    -590.4055905501746793 [Eh]
	 Singles Energy            =      -0.0000000000000000 [Eh]
	 Same-Spin Energy          =      -0.2677617991800061 [Eh]
	 Opposite-Spin Energy      =      -0.8624859952768523 [Eh]
	 Correlation Energy        =      -1.1302477944568583 [Eh]
	 Total Energy              =    -591.5358383446315429 [Eh]

	 ================> DF-SCS-MP2 Energies <==================
	-----------------------------------------------------------
	 SCS Same-Spin Scale       =       0.3333333333333333 [-]
	 SCS Opposite-Spin Scale   =       1.2000000000000000 [-]
	 SCS Same-Spin Energy      =      -0.0892539330600020 [Eh]
	 SCS Opposite-Spin Energy  =      -1.0349831943322227 [Eh]
	 SCS Correlation Energy    =      -1.1242371273922247 [Eh]
	 SCS Total Energy          =    -591.5298276775669137 [Eh]
	-----------------------------------------------------------

  Dipole Moment: [D]
     X:    -0.8612      Y:    -0.3536      Z:     0.4957     Total:     1.0547

*** Psi4 exiting successfully. Buy a developer a beer!
