                               Psi4 1.3.2 release

  ==> Input File <==

--------------------------------------------------------------------------
#psi4
#
memory 32 gb

molecule  {
0 1
  S        1.4017960     0.0318670    -0.2267910
  C        0.3439980    -1.2907520     0.4304430
  C       -1.0366050    -1.1980160    -0.1526860
  C       -1.6877140    -0.0149620    -0.1717330
  C       -1.0222219     1.1849525     0.1685194
  C        0.3208110     1.3651600     0.1119950
  H        0.3192380    -1.2040060     1.5241050
  H        0.8310050    -2.2339400     0.1718380
  H       -1.5205060    -2.1086570    -0.4970330
  H       -2.7141090     0.0333350    -0.5285000
  H       -1.6282610     2.1139460     0.3806850
  H        0.8050420     2.3317560     0.2174670
units angstrom
no_reorient  #important for SAPT in psi4, default
symmetry c1  #important for SAPT in psi4, default
}

set PROPERTIES_ORIGIN ["COM"]
properties('MP2/aug-cc-pvtz', properties = ['dipole'])
--------------------------------------------------------------------------

    Molecular point group: c1
  Charge       = 0
  Multiplicity = 1
  Basis Set: AUG-CC-PVTZ
    Blend: AUG-CC-PVTZ
  Basis Set: (AUG-CC-PVTZ AUX)
    Blend: AUG-CC-PVTZ-JKFIT

    Orbital Energies [Eh]
    ---------------------

    Doubly Occupied:

       1A    -91.960933     2A    -11.268933     3A    -11.268008
       4A    -11.244444     5A    -11.241826     6A    -11.237054
       7A     -8.961527     8A     -6.642750     9A     -6.641847
      10A     -6.640975    11A     -1.146070    12A     -1.025710
      13A     -1.022753    14A     -0.857061    15A     -0.821576
      16A     -0.697531    17A     -0.675370    18A     -0.609307
      19A     -0.599071    20A     -0.583180    21A     -0.539242
      22A     -0.483813    23A     -0.462267    24A     -0.450257
      25A     -0.365064    26A     -0.295268

  @DF-RHF Final Energy:  -590.40167707910905

   => Energetics <=

    Nuclear Repulsion Energy =            272.9192737877488071
    One-Electron Energy =               -1351.1582274062254783
    Two-Electron Energy =                 487.8372765393676218
    Total Energy =                       -590.4016770791090494
  Basis Set: (AUG-CC-PVTZ AUX)
    Blend: AUG-CC-PVTZ-RI
    Molecular point group: c1

    Geometry (in Angstrom), charge = 0, multiplicity = 1:

       Center              X                  Y                   Z               Mass
    ------------   -----------------  -----------------  -----------------  -----------------
         S            1.362014224952     0.026770802887    -0.213181104323    31.972071174400
         C            0.304216224952    -1.295848197113     0.444052895677    12.000000000000
         C           -1.076386775048    -1.203112197113    -0.139076104323    12.000000000000
         C           -1.727495775048    -0.020058197113    -0.158123104323    12.000000000000
         C           -1.062003675048     1.179856302887     0.182129295677    12.000000000000
         C            0.281029224952     1.360063802887     0.125604895677    12.000000000000
         H            0.279456224952    -1.209102197113     1.537714895677     1.007825032230
         H            0.791223224952    -2.239036197113     0.185447895677     1.007825032230
         H           -1.560287775048    -2.113753197113    -0.483423104323     1.007825032230
         H           -2.753890775048     0.028238802887    -0.514890104323     1.007825032230
         H           -1.668042775048     2.108849802887     0.394294895677     1.007825032230
         H            0.765260224952     2.326659802887     0.231076895677     1.007825032230

  Basis Set: AUG-CC-PVTZ
    Blend: AUG-CC-PVTZ
  Basis Set: (AUG-CC-PVTZ AUX)
    Blend: AUG-CC-PVTZ-JKFIT
	 Reference Energy          =    -590.4016770791090494 [Eh]
	 Singles Energy            =      -0.0000000000000000 [Eh]
	 Same-Spin Energy          =      -0.2686709904438460 [Eh]
	 Opposite-Spin Energy      =      -0.8633512372244310 [Eh]
	 Correlation Energy        =      -1.1320222276682770 [Eh]
	 Total Energy              =    -591.5336993067772937 [Eh]

	 ================> DF-SCS-MP2 Energies <==================
	-----------------------------------------------------------
	 SCS Same-Spin Scale       =       0.3333333333333333 [-]
	 SCS Opposite-Spin Scale   =       1.2000000000000000 [-]
	 SCS Same-Spin Energy      =      -0.0895569968146153 [Eh]
	 SCS Opposite-Spin Energy  =      -1.0360214846693172 [Eh]
	 SCS Correlation Energy    =      -1.1255784814839325 [Eh]
	 SCS Total Energy          =    -591.5272555605929483 [Eh]
	-----------------------------------------------------------

  Dipole Moment: [D]
     X:    -0.8645      Y:    -0.3582      Z:     0.4909     Total:     1.0567

*** Psi4 exiting successfully. Buy a developer a beer!
