                               Psi4 1.4a3.dev225

  ==> Input File <==

--------------------------------------------------------------------------
#psi4
#
memory 32 gb

molecule  {
0 1
  S        1.4017960     0.0318670    -0.2267910
  C        0.3439980    -1.2907520     0.4304430
  C       -1.0366050    -1.1980160    -0.1526860
  C       -1.6877140    -0.0149620    -0.1717330
  C       -1.0273490     1.2315180     0.1753310
  C        0.3208110     1.3651600     0.1119950
  H        0.3187867    -1.2024250     1.5440373
  H        0.8310050    -2.2339400     0.1718380
  H       -1.5205060    -2.1086570    -0.4970330
  H       -2.7141090     0.0333350    -0.5285000
  H       -1.6282610     2.1139460     0.3806850
  H        0.8050420     2.3317560     0.2174670
units angstrom
no_reorient  #important for SAPT in psi4, default
symmetry c1  #important for SAPT in psi4, default
}

set PROPERTIES_ORIGIN ["COM"]
properties('MP2/aug-cc-pvtz', properties = ['dipole'])
--------------------------------------------------------------------------

    Molecular point group: c1
  Charge       = 0
  Multiplicity = 1
  Basis Set: AUG-CC-PVTZ
    Blend: AUG-CC-PVTZ
  Basis Set: (AUG-CC-PVTZ AUX)
    Blend: AUG-CC-PVTZ-JKFIT

    Orbital Energies [Eh]
    ---------------------

    Doubly Occupied:

       1A    -91.962251     2A    -11.270059     3A    -11.268779
       4A    -11.243636     5A    -11.241150     6A    -11.239500
       7A     -8.962739     8A     -6.643977     9A     -6.643032
      10A     -6.642172    11A     -1.141516    12A     -1.026084
      13A     -1.018708    14A     -0.858687    15A     -0.817073
      16A     -0.694052    17A     -0.678865    18A     -0.608655
      19A     -0.599027    20A     -0.582933    21A     -0.534957
      22A     -0.483867    23A     -0.462999    24A     -0.450359
      25A     -0.364004    26A     -0.297660

  @DF-RHF Final Energy:  -590.40489566525082

   => Energetics <=

    Nuclear Repulsion Energy =            272.1083870325068688
    One-Electron Energy =               -1349.5530837335224987
    Two-Electron Energy =                 487.0398010357647536
    Total Energy =                       -590.4048956652508195
  Basis Set: (AUG-CC-PVTZ AUX)
    Blend: AUG-CC-PVTZ-RI
    Molecular point group: c1

    Geometry (in Angstrom), charge = 0, multiplicity = 1:

       Center              X                  Y                   Z               Mass
    ------------   -----------------  -----------------  -----------------  -----------------
         S            1.362646551521     0.021053755689    -0.214219958511    31.972071174400
         C            0.304848551521    -1.301565244311     0.443014041489    12.000000000000
         C           -1.075754448479    -1.208829244311    -0.140114958511    12.000000000000
         C           -1.726863448479    -0.025775244311    -0.159161958511    12.000000000000
         C           -1.066498448479     1.220704755689     0.187902041489    12.000000000000
         C            0.281661551521     1.354346755689     0.124566041489    12.000000000000
         H            0.279637251521    -1.213238244311     1.556608341489     1.007825032230
         H            0.791855551521    -2.244753244311     0.184409041489     1.007825032230
         H           -1.559655448479    -2.119470244311    -0.484461958511     1.007825032230
         H           -2.753258448479     0.022521755689    -0.515928958511     1.007825032230
         H           -1.667410448479     2.103132755689     0.393256041489     1.007825032230
         H            0.765892551521     2.320942755689     0.230038041489     1.007825032230

  Basis Set: AUG-CC-PVTZ
    Blend: AUG-CC-PVTZ
  Basis Set: (AUG-CC-PVTZ AUX)
    Blend: AUG-CC-PVTZ-JKFIT
	 Reference Energy          =    -590.4048956652508195 [Eh]
	 Singles Energy            =      -0.0000000000000000 [Eh]
	 Same-Spin Energy          =      -0.2678541330798179 [Eh]
	 Opposite-Spin Energy      =      -0.8627525166587557 [Eh]
	 Correlation Energy        =      -1.1306066497385736 [Eh]
	 Total Energy              =    -591.5355023149893441 [Eh]

	 ================> DF-SCS-MP2 Energies <==================
	-----------------------------------------------------------
	 SCS Same-Spin Scale       =       0.3333333333333333 [-]
	 SCS Opposite-Spin Scale   =       1.2000000000000000 [-]
	 SCS Same-Spin Energy      =      -0.0892847110266060 [Eh]
	 SCS Opposite-Spin Energy  =      -1.0353030199905069 [Eh]
	 SCS Correlation Energy    =      -1.1245877310171128 [Eh]
	 SCS Total Energy          =    -591.5294833962678922 [Eh]
	-----------------------------------------------------------

  Dipole Moment: [D]
     X:    -0.8603      Y:    -0.3493      Z:     0.4848     Total:     1.0475

*** Psi4 exiting successfully. Buy a developer a beer!
