                               Psi4 1.3.2 release

  ==> Input File <==

--------------------------------------------------------------------------
#psi4
#
memory 32 gb

molecule  {
0 1
  S        1.4017960     0.0318670    -0.2267910
  C        0.2176076    -1.1550705     0.4725597
  C       -1.0366050    -1.1980160    -0.1526860
  C       -1.6877140    -0.0149620    -0.1717330
  C       -1.0273490     1.2315180     0.1753310
  C        0.3208110     1.3651600     0.1119950
  H        0.3192380    -1.2040060     1.5241050
  H        0.8310050    -2.2339400     0.1718380
  H       -1.5205060    -2.1086570    -0.4970330
  H       -2.7141090     0.0333350    -0.5285000
  H       -1.6282610     2.1139460     0.3806850
  H        0.8050420     2.3317560     0.2174670
units angstrom
no_reorient  #important for SAPT in psi4, default
symmetry c1  #important for SAPT in psi4, default
}

set PROPERTIES_ORIGIN ["COM"]
properties('MP2/aug-cc-pvtz', properties = ['dipole'])
--------------------------------------------------------------------------

    Molecular point group: c1
  Charge       = 0
  Multiplicity = 1
  Basis Set: AUG-CC-PVTZ
    Blend: AUG-CC-PVTZ
  Basis Set: (AUG-CC-PVTZ AUX)
    Blend: AUG-CC-PVTZ-JKFIT

    Orbital Energies [Eh]
    ---------------------

    Doubly Occupied:

       1A    -91.965795     2A    -11.272754     3A    -11.269555
       4A    -11.241321     5A    -11.240322     6A    -11.235679
       7A     -8.966042     8A     -6.647221     9A     -6.646129
      10A     -6.645305    11A     -1.155248    12A     -1.036383
      13A     -1.016181    14A     -0.856786    15A     -0.818838
      16A     -0.697787    17A     -0.687571    18A     -0.620457
      19A     -0.591913    20A     -0.582919    21A     -0.525560
      22A     -0.482618    23A     -0.461719    24A     -0.436690
      25A     -0.365770    26A     -0.300196

  @DF-RHF Final Energy:  -590.36848871696407

   => Energetics <=

    Nuclear Repulsion Energy =            274.2393796607102558
    One-Electron Energy =               -1353.6822167877196534
    Two-Electron Energy =                 489.0743484100453315
    Total Energy =                       -590.3684887169640660
  Basis Set: (AUG-CC-PVTZ AUX)
    Blend: AUG-CC-PVTZ-RI
    Molecular point group: c1

    Geometry (in Angstrom), charge = 0, multiplicity = 1:

       Center              X                  Y                   Z               Mass
    ------------   -----------------  -----------------  -----------------  -----------------
         S            1.378115283481     0.004459174292    -0.219171162087    31.972071174400
         C            0.193926883481    -1.182478325708     0.480179537913    12.000000000000
         C           -1.060285716519    -1.225423825708    -0.145066162087    12.000000000000
         C           -1.711394716519    -0.042369825708    -0.164113162087    12.000000000000
         C           -1.051029716519     1.204110174292     0.182950837913    12.000000000000
         C            0.297130283481     1.337752174292     0.119614837913    12.000000000000
         H            0.295557283481    -1.231413825708     1.531724837913     1.007825032230
         H            0.807324283481    -2.261347825708     0.179457837913     1.007825032230
         H           -1.544186716519    -2.136064825708    -0.489413162087     1.007825032230
         H           -2.737789716519     0.005927174292    -0.520880162087     1.007825032230
         H           -1.651941716519     2.086538174292     0.388304837913     1.007825032230
         H            0.781361283481     2.304348174292     0.225086837913     1.007825032230

  Basis Set: AUG-CC-PVTZ
    Blend: AUG-CC-PVTZ
  Basis Set: (AUG-CC-PVTZ AUX)
    Blend: AUG-CC-PVTZ-JKFIT
	 Reference Energy          =    -590.3684887169640660 [Eh]
	 Singles Energy            =      -0.0000000000000000 [Eh]
	 Same-Spin Energy          =      -0.2705593586634480 [Eh]
	 Opposite-Spin Energy      =      -0.8669838744381574 [Eh]
	 Correlation Energy        =      -1.1375432331016053 [Eh]
	 Total Energy              =    -591.5060319500656760 [Eh]

	 ================> DF-SCS-MP2 Energies <==================
	-----------------------------------------------------------
	 SCS Same-Spin Scale       =       0.3333333333333333 [-]
	 SCS Opposite-Spin Scale   =       1.2000000000000000 [-]
	 SCS Same-Spin Energy      =      -0.0901864528878160 [Eh]
	 SCS Opposite-Spin Energy  =      -1.0403806493257888 [Eh]
	 SCS Correlation Energy    =      -1.1305671022136048 [Eh]
	 SCS Total Energy          =    -591.4990558191776699 [Eh]
	-----------------------------------------------------------

  Dipole Moment: [D]
     X:    -0.8712      Y:    -0.1899      Z:     0.4922     Total:     1.0185

*** Psi4 exiting successfully. Buy a developer a beer!
