                               Psi4 1.3.2 release

  ==> Input File <==

--------------------------------------------------------------------------
#psi4
#
memory 32 gb

molecule  {
0 1
  S        1.4017960     0.0318670    -0.2267910
  C        0.3439980    -1.2907520     0.4304430
  C       -1.0366050    -1.1980160    -0.1526860
  C       -1.6877140    -0.0149620    -0.1717330
  C       -1.1127628     1.2797782     0.1497117
  C        0.3208110     1.3651600     0.1119950
  H        0.3192380    -1.2040060     1.5241050
  H        0.8310050    -2.2339400     0.1718380
  H       -1.5205060    -2.1086570    -0.4970330
  H       -2.7141090     0.0333350    -0.5285000
  H       -1.6282610     2.1139460     0.3806850
  H        0.8050420     2.3317560     0.2174670
units angstrom
no_reorient  #important for SAPT in psi4, default
symmetry c1  #important for SAPT in psi4, default
}

set PROPERTIES_ORIGIN ["COM"]
properties('MP2/aug-cc-pvtz', properties = ['dipole'])
--------------------------------------------------------------------------

    Molecular point group: c1
  Charge       = 0
  Multiplicity = 1
  Basis Set: AUG-CC-PVTZ
    Blend: AUG-CC-PVTZ
  Basis Set: (AUG-CC-PVTZ AUX)
    Blend: AUG-CC-PVTZ-JKFIT

    Orbital Energies [Eh]
    ---------------------

    Doubly Occupied:

       1A    -91.967147     2A    -11.281014     3A    -11.268419
       4A    -11.244305     5A    -11.242480     6A    -11.240136
       7A     -8.967288     8A     -6.648513     9A     -6.647530
      10A     -6.646738    11A     -1.135249    12A     -1.021718
      13A     -1.017801    14A     -0.862671    15A     -0.816458
      16A     -0.695271    17A     -0.688715    18A     -0.616175
      19A     -0.594510    20A     -0.581687    21A     -0.529061
      22A     -0.494352    23A     -0.464065    24A     -0.442303
      25A     -0.365353    26A     -0.289820

  @DF-RHF Final Energy:  -590.38922850530673

   => Energetics <=

    Nuclear Repulsion Energy =            270.6491186507793145
    One-Electron Energy =               -1346.5391369815249618
    Two-Electron Energy =                 485.5007898254388579
    Total Energy =                       -590.3892285053066189
  Basis Set: (AUG-CC-PVTZ AUX)
    Blend: AUG-CC-PVTZ-RI
    Molecular point group: c1

    Geometry (in Angstrom), charge = 0, multiplicity = 1:

       Center              X                  Y                   Z               Mass
    ------------   -----------------  -----------------  -----------------  -----------------
         S            1.373098714318     0.015161745949    -0.210878567562    31.972071174400
         C            0.315300714318    -1.307457254051     0.446355432438    12.000000000000
         C           -1.065302285682    -1.214721254051    -0.136773567562    12.000000000000
         C           -1.716411285682    -0.031667254051    -0.155820567562    12.000000000000
         C           -1.141460085682     1.263072945949     0.165624132438    12.000000000000
         C            0.292113714318     1.348454745949     0.127907432438    12.000000000000
         H            0.290540714318    -1.220711254051     1.540017432438     1.007825032230
         H            0.802307714318    -2.250645254051     0.187750432438     1.007825032230
         H           -1.549203285682    -2.125362254051    -0.481120567562     1.007825032230
         H           -2.742806285682     0.016629745949    -0.512587567562     1.007825032230
         H           -1.656958285682     2.097240745949     0.396597432438     1.007825032230
         H            0.776344714318     2.315050745949     0.233379432438     1.007825032230

  Basis Set: AUG-CC-PVTZ
    Blend: AUG-CC-PVTZ
  Basis Set: (AUG-CC-PVTZ AUX)
    Blend: AUG-CC-PVTZ-JKFIT
	 Reference Energy          =    -590.3892285053067326 [Eh]
	 Singles Energy            =      -0.0000000000000000 [Eh]
	 Same-Spin Energy          =      -0.2690745200519735 [Eh]
	 Opposite-Spin Energy      =      -0.8653730443488190 [Eh]
	 Correlation Energy        =      -1.1344475644007925 [Eh]
	 Total Energy              =    -591.5236760697075624 [Eh]

	 ================> DF-SCS-MP2 Energies <==================
	-----------------------------------------------------------
	 SCS Same-Spin Scale       =       0.3333333333333333 [-]
	 SCS Opposite-Spin Scale   =       1.2000000000000000 [-]
	 SCS Same-Spin Energy      =      -0.0896915066839912 [Eh]
	 SCS Opposite-Spin Energy  =      -1.0384476532185827 [Eh]
	 SCS Correlation Energy    =      -1.1281391599025739 [Eh]
	 SCS Total Energy          =    -591.5173676652093491 [Eh]
	-----------------------------------------------------------

  Dipole Moment: [D]
     X:    -0.7382      Y:    -0.3813      Z:     0.5251     Total:     0.9829

*** Psi4 exiting successfully. Buy a developer a beer!
