                               Psi4 1.3.2 release

  ==> Input File <==

--------------------------------------------------------------------------
#psi4
#
memory 32 gb

molecule  {
0 1
  S        1.4017960     0.0318670    -0.2267910
  C        0.3439980    -1.2907520     0.4304430
  C       -1.0366050    -1.1980160    -0.1526860
  C       -1.6877140    -0.0149620    -0.1717330
  C       -1.0273490     1.2315180     0.1753310
  C        0.3208110     1.3651600     0.1119950
  H        0.3192380    -1.2040060     1.5241050
  H        0.8310050    -2.2339400     0.1718380
  H       -1.5205060    -2.1086570    -0.4970330
  H       -2.7141090     0.0333350    -0.5285000
  H       -1.5177152     1.9516115     0.3429074
  H        0.8050420     2.3317560     0.2174670
units angstrom
no_reorient  #important for SAPT in psi4, default
symmetry c1  #important for SAPT in psi4, default
}

set PROPERTIES_ORIGIN ["COM"]
properties('MP2/aug-cc-pvtz', properties = ['dipole'])
--------------------------------------------------------------------------

    Molecular point group: c1
  Charge       = 0
  Multiplicity = 1
  Basis Set: AUG-CC-PVTZ
    Blend: AUG-CC-PVTZ
  Basis Set: (AUG-CC-PVTZ AUX)
    Blend: AUG-CC-PVTZ-JKFIT

    Orbital Energies [Eh]
    ---------------------

    Doubly Occupied:

       1A    -91.961348     2A    -11.268331     3A    -11.267264
       4A    -11.242354     5A    -11.237899     6A    -11.217175
       7A     -8.961867     8A     -6.643107     9A     -6.642170
      10A     -6.641318    11A     -1.143549    12A     -1.034095
      13A     -1.019779    14A     -0.871726    15A     -0.819669
      16A     -0.711074    17A     -0.692082    18A     -0.621632
      19A     -0.600600    20A     -0.584367    21A     -0.533934
      22A     -0.488331    23A     -0.464217    24A     -0.450734
      25A     -0.363191    26A     -0.297281

  @DF-RHF Final Energy:  -590.37062218585993

   => Energetics <=

    Nuclear Repulsion Energy =            273.3479763781062957
    One-Electron Energy =               -1351.8790092944620937
    Two-Electron Energy =                 488.1604107304958120
    Total Energy =                       -590.3706221858599292
  Basis Set: (AUG-CC-PVTZ AUX)
    Blend: AUG-CC-PVTZ-RI
    Molecular point group: c1

    Geometry (in Angstrom), charge = 0, multiplicity = 1:

       Center              X                  Y                   Z               Mass
    ------------   -----------------  -----------------  -----------------  -----------------
         S            1.361505286751     0.022739123915    -0.213626589173    31.972071174400
         C            0.303707286751    -1.299879876085     0.443607410827    12.000000000000
         C           -1.076895713249    -1.207143876085    -0.139521589173    12.000000000000
         C           -1.728004713249    -0.024089876085    -0.158568589173    12.000000000000
         C           -1.067639713249     1.222390123915     0.188495410827    12.000000000000
         C            0.280520286751     1.356032123915     0.125159410827    12.000000000000
         H            0.278947286751    -1.213133876085     1.537269410827     1.007825032230
         H            0.790714286751    -2.243067876085     0.185002410827     1.007825032230
         H           -1.560796713249    -2.117784876085    -0.483868589173     1.007825032230
         H           -2.754399713249     0.024207123915    -0.515335589173     1.007825032230
         H           -1.558005913249     1.942483623915     0.356071810827     1.007825032230
         H            0.764751286751     2.322628123915     0.230631410827     1.007825032230

  Basis Set: AUG-CC-PVTZ
    Blend: AUG-CC-PVTZ
  Basis Set: (AUG-CC-PVTZ AUX)
    Blend: AUG-CC-PVTZ-JKFIT
	 Reference Energy          =    -590.3706221858599292 [Eh]
	 Singles Energy            =      -0.0000000000000000 [Eh]
	 Same-Spin Energy          =      -0.2676722621431156 [Eh]
	 Opposite-Spin Energy      =      -0.8623052544056402 [Eh]
	 Correlation Energy        =      -1.1299775165487558 [Eh]
	 Total Energy              =    -591.5005997024086355 [Eh]

	 ================> DF-SCS-MP2 Energies <==================
	-----------------------------------------------------------
	 SCS Same-Spin Scale       =       0.3333333333333333 [-]
	 SCS Opposite-Spin Scale   =       1.2000000000000000 [-]
	 SCS Same-Spin Energy      =      -0.0892240873810385 [Eh]
	 SCS Opposite-Spin Energy  =      -1.0347663052867682 [Eh]
	 SCS Correlation Energy    =      -1.1239903926678068 [Eh]
	 SCS Total Energy          =    -591.4946125785277218 [Eh]
	-----------------------------------------------------------

  Dipole Moment: [D]
     X:    -0.8668      Y:    -0.3138      Z:     0.5004     Total:     1.0489

*** Psi4 exiting successfully. Buy a developer a beer!
