                               Psi4 1.3.2 release

  ==> Input File <==

--------------------------------------------------------------------------
#psi4
#
memory 32 gb

molecule  {
0 1
  S        1.4017960     0.0318670    -0.2267910
  C        0.3439980    -1.2907520     0.4304430
  C       -1.0366050    -1.1980160    -0.1526860
  C       -1.5961663    -0.0538644    -0.1913932
  C       -1.0273490     1.2315180     0.1753310
  C        0.3208110     1.3651600     0.1119950
  H        0.3192380    -1.2040060     1.5241050
  H        0.8310050    -2.2339400     0.1718380
  H       -1.5205060    -2.1086570    -0.4970330
  H       -2.7141090     0.0333350    -0.5285000
  H       -1.6282610     2.1139460     0.3806850
  H        0.8050420     2.3317560     0.2174670
units angstrom
no_reorient  #important for SAPT in psi4, default
symmetry c1  #important for SAPT in psi4, default
}

set PROPERTIES_ORIGIN ["COM"]
properties('MP2/aug-cc-pvtz', properties = ['dipole'])
--------------------------------------------------------------------------

    Molecular point group: c1
  Charge       = 0
  Multiplicity = 1
  Basis Set: AUG-CC-PVTZ
    Blend: AUG-CC-PVTZ
  Basis Set: (AUG-CC-PVTZ AUX)
    Blend: AUG-CC-PVTZ-JKFIT

    Orbital Energies [Eh]
    ---------------------

    Doubly Occupied:

       1A    -91.961613     2A    -11.268691     3A    -11.265660
       4A    -11.240880     5A    -11.235955     6A    -11.230176
       7A     -8.962180     8A     -6.643425     9A     -6.642472
      10A     -6.641614    11A     -1.150388    12A     -1.034878
      13A     -1.018369    14A     -0.863278    15A     -0.812806
      16A     -0.689379    17A     -0.677501    18A     -0.611792
      19A     -0.605048    20A     -0.589695    21A     -0.512245
      22A     -0.485916    23A     -0.463454    24A     -0.452475
      25A     -0.370166    26A     -0.303360

  @DF-RHF Final Energy:  -590.39544215545686

   => Energetics <=

    Nuclear Repulsion Energy =            273.8588991164705249
    One-Electron Energy =               -1353.0418461834065056
    Two-Electron Energy =                 488.7875049114790045
    Total Energy =                       -590.3954421554568626
  Basis Set: (AUG-CC-PVTZ AUX)
    Blend: AUG-CC-PVTZ-RI
    Molecular point group: c1

    Geometry (in Angstrom), charge = 0, multiplicity = 1:

       Center              X                  Y                   Z               Mass
    ------------   -----------------  -----------------  -----------------  -----------------
         S            1.351434164209     0.025832646203    -0.211608111675    31.972071174400
         C            0.293636164209    -1.296786353797     0.445625888325    12.000000000000
         C           -1.086966835791    -1.204050353797    -0.137503111675    12.000000000000
         C           -1.646528135791    -0.059898753797    -0.176210311675    12.000000000000
         C           -1.077710835791     1.225483646203     0.190513888325    12.000000000000
         C            0.270449164209     1.359125646203     0.127177888325    12.000000000000
         H            0.268876164209    -1.210040353797     1.539287888325     1.007825032230
         H            0.780643164209    -2.239974353797     0.187020888325     1.007825032230
         H           -1.570867835791    -2.114691353797    -0.481850111675     1.007825032230
         H           -2.764470835791     0.027300646203    -0.513317111675     1.007825032230
         H           -1.678622835791     2.107911646203     0.395867888325     1.007825032230
         H            0.754680164209     2.325721646203     0.232649888325     1.007825032230

  Basis Set: AUG-CC-PVTZ
    Blend: AUG-CC-PVTZ
  Basis Set: (AUG-CC-PVTZ AUX)
    Blend: AUG-CC-PVTZ-JKFIT
	 Reference Energy          =    -590.3954421554568626 [Eh]
	 Singles Energy            =      -0.0000000000000000 [Eh]
	 Same-Spin Energy          =      -0.2673071774797277 [Eh]
	 Opposite-Spin Energy      =      -0.8613986343090259 [Eh]
	 Correlation Energy        =      -1.1287058117887536 [Eh]
	 Total Energy              =    -591.5241479672456535 [Eh]

	 ================> DF-SCS-MP2 Energies <==================
	-----------------------------------------------------------
	 SCS Same-Spin Scale       =       0.3333333333333333 [-]
	 SCS Opposite-Spin Scale   =       1.2000000000000000 [-]
	 SCS Same-Spin Energy      =      -0.0891023924932426 [Eh]
	 SCS Opposite-Spin Energy  =      -1.0336783611708309 [Eh]
	 SCS Correlation Energy    =      -1.1227807536640735 [Eh]
	 SCS Total Energy          =    -591.5182229091209365 [Eh]
	-----------------------------------------------------------

  Dipole Moment: [D]
     X:    -0.8557      Y:    -0.3454      Z:     0.5361     Total:     1.0672

*** Psi4 exiting successfully. Buy a developer a beer!
