                               Psi4 1.4a3.dev225

  ==> Input File <==

--------------------------------------------------------------------------
#psi4
#
memory 32 gb

molecule  {
0 1
  S        1.4017960     0.0318670    -0.2267910
  C        0.3439980    -1.2907520     0.4304430
  C       -1.0182162    -1.1992512    -0.1449191
  C       -1.6877140    -0.0149620    -0.1717330
  C       -1.0273490     1.2315180     0.1753310
  C        0.3208110     1.3651600     0.1119950
  H        0.3192380    -1.2040060     1.5241050
  H        0.8310050    -2.2339400     0.1718380
  H       -1.5205060    -2.1086570    -0.4970330
  H       -2.7141090     0.0333350    -0.5285000
  H       -1.6282610     2.1139460     0.3806850
  H        0.8050420     2.3317560     0.2174670
units angstrom
no_reorient  #important for SAPT in psi4, default
symmetry c1  #important for SAPT in psi4, default
}

set PROPERTIES_ORIGIN ["COM"]
properties('MP2/aug-cc-pvtz', properties = ['dipole'])
--------------------------------------------------------------------------

    Molecular point group: c1
  Charge       = 0
  Multiplicity = 1
  Basis Set: AUG-CC-PVTZ
    Blend: AUG-CC-PVTZ
  Basis Set: (AUG-CC-PVTZ AUX)
    Blend: AUG-CC-PVTZ-JKFIT

    Orbital Energies [Eh]
    ---------------------

    Doubly Occupied:

       1A    -91.962269     2A    -11.268518     3A    -11.267252
       4A    -11.244663     5A    -11.241197     6A    -11.240343
       7A     -8.962787     8A     -6.644018     9A     -6.643080
      10A     -6.642213    11A     -1.142677    12A     -1.028242
      13A     -1.017889    14A     -0.859963    15A     -0.816725
      16A     -0.694884    17A     -0.678732    18A     -0.610330
      19A     -0.600928    20A     -0.582041    21A     -0.538364
      22A     -0.482034    23A     -0.463871    24A     -0.450824
      25A     -0.362843    26A     -0.296732

  @DF-RHF Final Energy:  -590.40423595706113

   => Energetics <=

    Nuclear Repulsion Energy =            272.3824313428899018
    One-Electron Energy =               -1350.0864971005782991
    Two-Electron Energy =                 487.2998298006272080
    Total Energy =                       -590.4042359570611325
  Basis Set: (AUG-CC-PVTZ AUX)
    Blend: AUG-CC-PVTZ-RI
    Molecular point group: c1

    Geometry (in Angstrom), charge = 0, multiplicity = 1:

       Center              X                  Y                   Z               Mass
    ------------   -----------------  -----------------  -----------------  -----------------
         S            1.360390658447     0.021221231054    -0.214965880355    31.972071174400
         C            0.302592658447    -1.301397768946     0.442268119645    12.000000000000
         C           -1.059621541553    -1.209896968946    -0.133093980355    12.000000000000
         C           -1.729119341553    -0.025607768946    -0.159907880355    12.000000000000
         C           -1.068754341553     1.220872231054     0.187156119645    12.000000000000
         C            0.279405658447     1.354514231054     0.123820119645    12.000000000000
         H            0.277832658447    -1.214651768946     1.535930119645     1.007825032230
         H            0.789599658447    -2.244585768946     0.183663119645     1.007825032230
         H           -1.561911341553    -2.119302768946    -0.485207880355     1.007825032230
         H           -2.755514341553     0.022689231054    -0.516674880355     1.007825032230
         H           -1.669666341553     2.103300231054     0.392510119645     1.007825032230
         H            0.763636658447     2.321110231054     0.229292119645     1.007825032230

  Basis Set: AUG-CC-PVTZ
    Blend: AUG-CC-PVTZ
  Basis Set: (AUG-CC-PVTZ AUX)
    Blend: AUG-CC-PVTZ-JKFIT
	 Reference Energy          =    -590.4042359570611325 [Eh]
	 Singles Energy            =      -0.0000000000000000 [Eh]
	 Same-Spin Energy          =      -0.2681699357217541 [Eh]
	 Opposite-Spin Energy      =      -0.8630617642513698 [Eh]
	 Correlation Energy        =      -1.1312316999731240 [Eh]
	 Total Energy              =    -591.5354676570342463 [Eh]

	 ================> DF-SCS-MP2 Energies <==================
	-----------------------------------------------------------
	 SCS Same-Spin Scale       =       0.3333333333333333 [-]
	 SCS Opposite-Spin Scale   =       1.2000000000000000 [-]
	 SCS Same-Spin Energy      =      -0.0893899785739180 [Eh]
	 SCS Opposite-Spin Energy  =      -1.0356741171016437 [Eh]
	 SCS Correlation Energy    =      -1.1250640956755618 [Eh]
	 SCS Total Energy          =    -591.5293000527367440 [Eh]
	-----------------------------------------------------------

  Dipole Moment: [D]
     X:    -0.8495      Y:    -0.3508      Z:     0.4991     Total:     1.0458

*** Psi4 exiting successfully. Buy a developer a beer!
