                               Psi4 1.3.2 release

  ==> Input File <==

--------------------------------------------------------------------------
#psi4
#
memory 32 gb

molecule  {
0 1
  S        1.4017960     0.0318670    -0.2267910
  C        0.3439980    -1.2907520     0.4304430
  C       -1.0887760    -1.1814602    -0.0053527
  C       -1.6877140    -0.0149620    -0.1717330
  C       -1.0273490     1.2315180     0.1753310
  C        0.3208110     1.3651600     0.1119950
  H        0.3192380    -1.2040060     1.5241050
  H        0.8310050    -2.2339400     0.1718380
  H       -1.5205060    -2.1086570    -0.4970330
  H       -2.7141090     0.0333350    -0.5285000
  H       -1.6282610     2.1139460     0.3806850
  H        0.8050420     2.3317560     0.2174670
units angstrom
no_reorient  #important for SAPT in psi4, default
symmetry c1  #important for SAPT in psi4, default
}

set PROPERTIES_ORIGIN ["COM"]
properties('MP2/aug-cc-pvtz', properties = ['dipole'])
--------------------------------------------------------------------------

    Molecular point group: c1
  Charge       = 0
  Multiplicity = 1
  Basis Set: AUG-CC-PVTZ
    Blend: AUG-CC-PVTZ
  Basis Set: (AUG-CC-PVTZ AUX)
    Blend: AUG-CC-PVTZ-JKFIT

    Orbital Energies [Eh]
    ---------------------

    Doubly Occupied:

       1A    -91.962091     2A    -11.269690     3A    -11.267240
       4A    -11.243062     5A    -11.240950     6A    -11.236880
       7A     -8.962640     8A     -6.643913     9A     -6.642924
      10A     -6.642054    11A     -1.144083    12A     -1.028364
      13A     -1.021268    14A     -0.862798    15A     -0.814199
      16A     -0.695009    17A     -0.671887    18A     -0.615256
      19A     -0.600448    20A     -0.579127    21A     -0.532524
      22A     -0.480032    23A     -0.466257    24A     -0.448372
      25A     -0.369179    26A     -0.298728

  @DF-RHF Final Energy:  -590.39869161259526

   => Energetics <=

    Nuclear Repulsion Energy =            272.2282487141820297
    One-Electron Energy =               -1349.7759336467538560
    Two-Electron Energy =                 487.1489933199766256
    Total Energy =                       -590.3986916125952575
  Basis Set: (AUG-CC-PVTZ AUX)
    Blend: AUG-CC-PVTZ-RI
    Molecular point group: c1

    Geometry (in Angstrom), charge = 0, multiplicity = 1:

       Center              X                  Y                   Z               Mass
    ------------   -----------------  -----------------  -----------------  -----------------
         S            1.369028957301     0.019043164012    -0.232052327216    31.972071174400
         C            0.311230957301    -1.303575835988     0.425181672784    12.000000000000
         C           -1.121543042699    -1.194284035988    -0.010614027216    12.000000000000
         C           -1.720481042699    -0.027785835988    -0.176994327216    12.000000000000
         C           -1.060116042699     1.218694164012     0.170069672784    12.000000000000
         C            0.288043957301     1.352336164012     0.106733672784    12.000000000000
         H            0.286470957301    -1.216829835988     1.518843672784     1.007825032230
         H            0.798237957301    -2.246763835988     0.166576672784     1.007825032230
         H           -1.553273042699    -2.121480835988    -0.502294327216     1.007825032230
         H           -2.746876042699     0.020511164012    -0.533761327216     1.007825032230
         H           -1.661028042699     2.101122164012     0.375423672784     1.007825032230
         H            0.772274957301     2.318932164012     0.212205672784     1.007825032230

  Basis Set: AUG-CC-PVTZ
    Blend: AUG-CC-PVTZ
  Basis Set: (AUG-CC-PVTZ AUX)
    Blend: AUG-CC-PVTZ-JKFIT
	 Reference Energy          =    -590.3986916125952575 [Eh]
	 Singles Energy            =      -0.0000000000000000 [Eh]
	 Same-Spin Energy          =      -0.2673515279799652 [Eh]
	 Opposite-Spin Energy      =      -0.8623554920450283 [Eh]
	 Correlation Energy        =      -1.1297070200249935 [Eh]
	 Total Energy              =    -591.5283986326202239 [Eh]

	 ================> DF-SCS-MP2 Energies <==================
	-----------------------------------------------------------
	 SCS Same-Spin Scale       =       0.3333333333333333 [-]
	 SCS Opposite-Spin Scale   =       1.2000000000000000 [-]
	 SCS Same-Spin Energy      =      -0.0891171759933217 [Eh]
	 SCS Opposite-Spin Energy  =      -1.0348265904540339 [Eh]
	 SCS Correlation Energy    =      -1.1239437664473557 [Eh]
	 SCS Total Energy          =    -591.5226353790426401 [Eh]
	-----------------------------------------------------------

  Dipole Moment: [D]
     X:    -0.8279      Y:    -0.2695      Z:     0.3707     Total:     0.9463

*** Psi4 exiting successfully. Buy a developer a beer!
