                               Psi4 1.4a3.dev225

  ==> Input File <==

--------------------------------------------------------------------------
#psi4
#
memory 32 gb

molecule  {
0 1
  S        1.4017960     0.0318670    -0.2267910
  C        0.3439980    -1.2907520     0.4304430
  C       -1.0366050    -1.1980160    -0.1526860
  C       -1.6877140    -0.0149620    -0.1717330
  C       -1.0273490     1.2315180     0.1753310
  C        0.3208110     1.3651600     0.1119950
  H        0.3192380    -1.2040060     1.5241050
  H        0.8310050    -2.2339400     0.1718380
  H       -1.5205060    -2.1086570    -0.4970330
  H       -2.7141090     0.0333350    -0.5285000
  H       -1.6006245     2.0733624     0.3712406
  H        0.8050420     2.3317560     0.2174670
units angstrom
no_reorient  #important for SAPT in psi4, default
symmetry c1  #important for SAPT in psi4, default
}

set PROPERTIES_ORIGIN ["COM"]
properties('MP2/aug-cc-pvtz', properties = ['dipole'])
--------------------------------------------------------------------------

    Molecular point group: c1
  Charge       = 0
  Multiplicity = 1
  Basis Set: AUG-CC-PVTZ
    Blend: AUG-CC-PVTZ
  Basis Set: (AUG-CC-PVTZ AUX)
    Blend: AUG-CC-PVTZ-JKFIT

    Orbital Energies [Eh]
    ---------------------

    Doubly Occupied:

       1A    -91.961788     2A    -11.268474     3A    -11.267649
       4A    -11.243164     5A    -11.239070     6A    -11.235012
       7A     -8.962296     8A     -6.643536     9A     -6.642593
      10A     -6.641735    11A     -1.141894    12A     -1.027490
      13A     -1.019277    14A     -0.861785    15A     -0.817573
      16A     -0.694727    17A     -0.685727    18A     -0.612522
      19A     -0.600398    20A     -0.584266    21A     -0.534608
      22A     -0.485038    23A     -0.463604    24A     -0.450683
      25A     -0.363666    26A     -0.297516

  @DF-RHF Final Energy:  -590.40465326866649

   => Energetics <=

    Nuclear Repulsion Energy =            272.4623252079903182
    One-Electron Energy =               -1350.2417746128799081
    Two-Electron Energy =                 487.3747961362231536
    Total Energy =                       -590.4046532686664932
  Basis Set: (AUG-CC-PVTZ AUX)
    Blend: AUG-CC-PVTZ-RI
    Molecular point group: c1

    Geometry (in Angstrom), charge = 0, multiplicity = 1:

       Center              X                  Y                   Z               Mass
    ------------   -----------------  -----------------  -----------------  -----------------
         S            1.362357754637     0.021487289291    -0.213917909244    31.972071174400
         C            0.304559754637    -1.301131710709     0.443316090756    12.000000000000
         C           -1.076043245363    -1.208395710709    -0.139812909244    12.000000000000
         C           -1.727152245363    -0.025341710709    -0.158859909244    12.000000000000
         C           -1.066787245363     1.221138289291     0.188204090756    12.000000000000
         C            0.281372754637     1.354780289291     0.124868090756    12.000000000000
         H            0.279799754637    -1.214385710709     1.536978090756     1.007825032230
         H            0.791566754637    -2.244319710709     0.184711090756     1.007825032230
         H           -1.559944245363    -2.119036710709    -0.484159909244     1.007825032230
         H           -2.753547245363     0.022955289291    -0.515626909244     1.007825032230
         H           -1.640062745363     2.062982689291     0.384113690756     1.007825032230
         H            0.765603754637     2.321376289291     0.230340090756     1.007825032230

  Basis Set: AUG-CC-PVTZ
    Blend: AUG-CC-PVTZ
  Basis Set: (AUG-CC-PVTZ AUX)
    Blend: AUG-CC-PVTZ-JKFIT
	 Reference Energy          =    -590.4046532686664932 [Eh]
	 Singles Energy            =      -0.0000000000000000 [Eh]
	 Same-Spin Energy          =      -0.2677351021915311 [Eh]
	 Opposite-Spin Energy      =      -0.8623578903041280 [Eh]
	 Correlation Energy        =      -1.1300929924956591 [Eh]
	 Total Energy              =    -591.5347462611621268 [Eh]

	 ================> DF-SCS-MP2 Energies <==================
	-----------------------------------------------------------
	 SCS Same-Spin Scale       =       0.3333333333333333 [-]
	 SCS Opposite-Spin Scale   =       1.2000000000000000 [-]
	 SCS Same-Spin Energy      =      -0.0892450340638437 [Eh]
	 SCS Opposite-Spin Energy  =      -1.0348294683649535 [Eh]
	 SCS Correlation Energy    =      -1.1240745024287973 [Eh]
	 SCS Total Energy          =    -591.5287277710953049 [Eh]
	-----------------------------------------------------------

  Dipole Moment: [D]
     X:    -0.8655      Y:    -0.3413      Z:     0.4979     Total:     1.0552

*** Psi4 exiting successfully. Buy a developer a beer!
