                               Psi4 1.4a3.dev225

  ==> Input File <==

--------------------------------------------------------------------------
#psi4
#
memory 32 gb

molecule  {
0 1
  S        1.4017960     0.0318670    -0.2267910
  C        0.3439980    -1.2907520     0.4304430
  C       -1.0366050    -1.1980160    -0.1526860
  C       -1.6877140    -0.0149620    -0.1717330
  C       -1.0273490     1.2315180     0.1753310
  C        0.3208110     1.3651600     0.1119950
  H        0.3192380    -1.2040060     1.5241050
  H        0.8310050    -2.2339400     0.1718380
  H       -1.5294078    -2.1254091    -0.5033676
  H       -2.7141090     0.0333350    -0.5285000
  H       -1.6282610     2.1139460     0.3806850
  H        0.8050420     2.3317560     0.2174670
units angstrom
no_reorient  #important for SAPT in psi4, default
symmetry c1  #important for SAPT in psi4, default
}

set PROPERTIES_ORIGIN ["COM"]
properties('MP2/aug-cc-pvtz', properties = ['dipole'])
--------------------------------------------------------------------------

    Molecular point group: c1
  Charge       = 0
  Multiplicity = 1
  Basis Set: AUG-CC-PVTZ
    Blend: AUG-CC-PVTZ
  Basis Set: (AUG-CC-PVTZ AUX)
    Blend: AUG-CC-PVTZ-JKFIT

    Orbital Energies [Eh]
    ---------------------

    Doubly Occupied:

       1A    -91.962168     2A    -11.268762     3A    -11.268050
       4A    -11.245750     5A    -11.241193     6A    -11.239587
       7A     -8.962670     8A     -6.643909     9A     -6.642963
      10A     -6.642102    11A     -1.141678    12A     -1.026006
      13A     -1.018999    14A     -0.859730    15A     -0.815712
      16A     -0.694212    17A     -0.677941    18A     -0.609015
      19A     -0.599911    20A     -0.582632    21A     -0.534813
      22A     -0.483177    23A     -0.463434    24A     -0.450668
      25A     -0.363985    26A     -0.297798

  @DF-RHF Final Energy:  -590.40485235939661

   => Energetics <=

    Nuclear Repulsion Energy =            272.1063729489297884
    One-Electron Energy =               -1349.5487209785640061
    Two-Electron Energy =                 487.0374956702374902
    Total Energy =                       -590.4048523593966138
  Basis Set: (AUG-CC-PVTZ AUX)
    Blend: AUG-CC-PVTZ-RI
    Molecular point group: c1

    Geometry (in Angstrom), charge = 0, multiplicity = 1:

       Center              X                  Y                   Z               Mass
    ------------   -----------------  -----------------  -----------------  -----------------
         S            1.362733438997     0.021242255399    -0.213949884000    31.972071174400
         C            0.304935438997    -1.301376744601     0.443284116000    12.000000000000
         C           -1.075667561003    -1.208640744601    -0.139844884000    12.000000000000
         C           -1.726776561003    -0.025586744601    -0.158891884000    12.000000000000
         C           -1.066411561003     1.220893255399     0.188172116000    12.000000000000
         C            0.281748438997     1.354535255399     0.124836116000    12.000000000000
         H            0.280175438997    -1.214630744601     1.536946116000     1.007825032230
         H            0.791942438997    -2.244564744601     0.184679116000     1.007825032230
         H           -1.568470361003    -2.136033844601    -0.490526484000     1.007825032230
         H           -2.753171561003     0.022710255399    -0.515658884000     1.007825032230
         H           -1.667323561003     2.103321255399     0.393526116000     1.007825032230
         H            0.765979438997     2.321131255399     0.230308116000     1.007825032230

  Basis Set: AUG-CC-PVTZ
    Blend: AUG-CC-PVTZ
  Basis Set: (AUG-CC-PVTZ AUX)
    Blend: AUG-CC-PVTZ-JKFIT
	 Reference Energy          =    -590.4048523593966138 [Eh]
	 Singles Energy            =      -0.0000000000000000 [Eh]
	 Same-Spin Energy          =      -0.2678410674341796 [Eh]
	 Opposite-Spin Energy      =      -0.8627349667066868 [Eh]
	 Correlation Energy        =      -1.1305760341408664 [Eh]
	 Total Energy              =    -591.5354283935374724 [Eh]

	 ================> DF-SCS-MP2 Energies <==================
	-----------------------------------------------------------
	 SCS Same-Spin Scale       =       0.3333333333333333 [-]
	 SCS Opposite-Spin Scale   =       1.2000000000000000 [-]
	 SCS Same-Spin Energy      =      -0.0892803558113932 [Eh]
	 SCS Opposite-Spin Energy  =      -1.0352819600480241 [Eh]
	 SCS Correlation Energy    =      -1.1245623158594173 [Eh]
	 SCS Total Energy          =    -591.5294146752560209 [Eh]
	-----------------------------------------------------------

  Dipole Moment: [D]
     X:    -0.8535      Y:    -0.3509      Z:     0.4974     Total:     1.0483

*** Psi4 exiting successfully. Buy a developer a beer!
