                               Psi4 1.3.2 release

  ==> Input File <==

--------------------------------------------------------------------------
#psi4
#
memory 32 gb

molecule  {
0 1
  S        1.3535862    -0.0056088    -0.2276268
  C        0.3439980    -1.2907520     0.4304430
  C       -1.0366050    -1.1980160    -0.1526860
  C       -1.6877140    -0.0149620    -0.1717330
  C       -1.0273490     1.2315180     0.1753310
  C        0.3208110     1.3651600     0.1119950
  H        0.3192380    -1.2040060     1.5241050
  H        0.8310050    -2.2339400     0.1718380
  H       -1.5205060    -2.1086570    -0.4970330
  H       -2.7141090     0.0333350    -0.5285000
  H       -1.6282610     2.1139460     0.3806850
  H        0.8050420     2.3317560     0.2174670
units angstrom
no_reorient  #important for SAPT in psi4, default
symmetry c1  #important for SAPT in psi4, default
}

set PROPERTIES_ORIGIN ["COM"]
properties('MP2/aug-cc-pvtz', properties = ['dipole'])
--------------------------------------------------------------------------

    Molecular point group: c1
  Charge       = 0
  Multiplicity = 1
  Basis Set: AUG-CC-PVTZ
    Blend: AUG-CC-PVTZ
  Basis Set: (AUG-CC-PVTZ AUX)
    Blend: AUG-CC-PVTZ-JKFIT

    Orbital Energies [Eh]
    ---------------------

    Doubly Occupied:

       1A    -91.958988     2A    -11.268018     3A    -11.263830
       4A    -11.243747     5A    -11.241213     6A    -11.239034
       7A     -8.960566     8A     -6.641879     9A     -6.640965
      10A     -6.640030    11A     -1.147102    12A     -1.029565
      13A     -1.022006    14A     -0.856761    15A     -0.819562
      16A     -0.695698    17A     -0.680509    18A     -0.609494
      19A     -0.601367    20A     -0.588775    21A     -0.538014
      22A     -0.489549    23A     -0.460657    24A     -0.449423
      25A     -0.360809    26A     -0.298615

  @DF-RHF Final Energy:  -590.40420615588459

   => Energetics <=

    Nuclear Repulsion Energy =            274.1010054696870952
    One-Electron Energy =               -1353.5180672646554285
    Two-Electron Energy =                 489.0128556390837389
    Total Energy =                       -590.4042061558845944
  Basis Set: (AUG-CC-PVTZ AUX)
    Blend: AUG-CC-PVTZ-RI
    Molecular point group: c1

    Geometry (in Angstrom), charge = 0, multiplicity = 1:

       Center              X                  Y                   Z               Mass
    ------------   -----------------  -----------------  -----------------  -----------------
         S            1.330157295390    -0.004181845423    -0.214578192756    31.972071174400
         C            0.320569095390    -1.289325045423     0.443491607244    12.000000000000
         C           -1.060033904610    -1.196589045423    -0.139637392756    12.000000000000
         C           -1.711142904610    -0.013535045423    -0.158684392756    12.000000000000
         C           -1.050777904610     1.232944954577     0.188379607244    12.000000000000
         C            0.297382095390     1.366586954577     0.125043607244    12.000000000000
         H            0.295809095390    -1.202579045423     1.537153607244     1.007825032230
         H            0.807576095390    -2.232513045423     0.184886607244     1.007825032230
         H           -1.543934904610    -2.107230045423    -0.483984392756     1.007825032230
         H           -2.737537904610     0.034761954577    -0.515451392756     1.007825032230
         H           -1.651689904610     2.115372954577     0.393733607244     1.007825032230
         H            0.781613095390     2.333182954577     0.230515607244     1.007825032230

  Basis Set: AUG-CC-PVTZ
    Blend: AUG-CC-PVTZ
  Basis Set: (AUG-CC-PVTZ AUX)
    Blend: AUG-CC-PVTZ-JKFIT
	 Reference Energy          =    -590.4042061558845944 [Eh]
	 Singles Energy            =      -0.0000000000000000 [Eh]
	 Same-Spin Energy          =      -0.2683183884543416 [Eh]
	 Opposite-Spin Energy      =      -0.8625053077534733 [Eh]
	 Correlation Energy        =      -1.1308236962078149 [Eh]
	 Total Energy              =    -591.5350298520924071 [Eh]

	 ================> DF-SCS-MP2 Energies <==================
	-----------------------------------------------------------
	 SCS Same-Spin Scale       =       0.3333333333333333 [-]
	 SCS Opposite-Spin Scale   =       1.2000000000000000 [-]
	 SCS Same-Spin Energy      =      -0.0894394628181139 [Eh]
	 SCS Opposite-Spin Energy  =      -1.0350063693041680 [Eh]
	 SCS Correlation Energy    =      -1.1244458321222819 [Eh]
	 SCS Total Energy          =    -591.5286519880069136 [Eh]
	-----------------------------------------------------------

  Dipole Moment: [D]
     X:    -0.8634      Y:    -0.3455      Z:     0.5065     Total:     1.0589

*** Psi4 exiting successfully. Buy a developer a beer!
