                               Psi4 1.3.2 release

  ==> Input File <==

--------------------------------------------------------------------------
#psi4
#
memory 32 gb

molecule  {
0 1
  S        1.5382966     0.1538485    -0.2218135
  C        0.3439980    -1.2907520     0.4304430
  C       -1.0366050    -1.1980160    -0.1526860
  C       -1.6877140    -0.0149620    -0.1717330
  C       -1.0273490     1.2315180     0.1753310
  C        0.3208110     1.3651600     0.1119950
  H        0.3192380    -1.2040060     1.5241050
  H        0.8310050    -2.2339400     0.1718380
  H       -1.5205060    -2.1086570    -0.4970330
  H       -2.7141090     0.0333350    -0.5285000
  H       -1.6282610     2.1139460     0.3806850
  H        0.8050420     2.3317560     0.2174670
units angstrom
no_reorient  #important for SAPT in psi4, default
symmetry c1  #important for SAPT in psi4, default
}

set PROPERTIES_ORIGIN ["COM"]
properties('MP2/aug-cc-pvtz', properties = ['dipole'])
--------------------------------------------------------------------------

    Molecular point group: c1
  Charge       = 0
  Multiplicity = 1
  Basis Set: AUG-CC-PVTZ
    Blend: AUG-CC-PVTZ
  Basis Set: (AUG-CC-PVTZ AUX)
    Blend: AUG-CC-PVTZ-JKFIT

    Orbital Energies [Eh]
    ---------------------

    Doubly Occupied:

       1A    -91.968227     2A    -11.280589     3A    -11.270752
       4A    -11.243640     5A    -11.241678     6A    -11.240044
       7A     -8.966567     8A     -6.647641     9A     -6.646524
      10A     -6.645807    11A     -1.131039    12A     -1.027934
      13A     -1.002890    14A     -0.868274    15A     -0.809756
      16A     -0.691585    17A     -0.680541    18A     -0.608765
      19A     -0.597370    20A     -0.572998    21A     -0.528594
      22A     -0.476103    23A     -0.460072    24A     -0.449777
      25A     -0.368950    26A     -0.295525

  @DF-RHF Final Energy:  -590.39300051378802

   => Energetics <=

    Nuclear Repulsion Energy =            267.0394357503524816
    One-Electron Energy =               -1339.4215905812952769
    Two-Electron Energy =                 481.9891543171548847
    Total Energy =                       -590.3930005137880244
  Basis Set: (AUG-CC-PVTZ AUX)
    Blend: AUG-CC-PVTZ-RI
    Molecular point group: c1

    Geometry (in Angstrom), charge = 0, multiplicity = 1:

       Center              X                  Y                   Z               Mass
    ------------   -----------------  -----------------  -----------------  -----------------
         S            1.454618429757     0.103263303530    -0.210661088400    31.972071174400
         C            0.260319829757    -1.341337196470     0.441595411600    12.000000000000
         C           -1.120283170243    -1.248601196470    -0.141533588400    12.000000000000
         C           -1.771392170243    -0.065547196470    -0.160580588400    12.000000000000
         C           -1.111027170243     1.180932803530     0.186483411600    12.000000000000
         C            0.237132829757     1.314574803530     0.123147411600    12.000000000000
         H            0.235559829757    -1.254591196470     1.535257411600     1.007825032230
         H            0.747326829757    -2.284525196470     0.182990411600     1.007825032230
         H           -1.604184170243    -2.159242196470    -0.485880588400     1.007825032230
         H           -2.797787170243    -0.017250196470    -0.517347588400     1.007825032230
         H           -1.711939170243     2.063360803530     0.391837411600     1.007825032230
         H            0.721363829757     2.281170803530     0.228619411600     1.007825032230

  Basis Set: AUG-CC-PVTZ
    Blend: AUG-CC-PVTZ
  Basis Set: (AUG-CC-PVTZ AUX)
    Blend: AUG-CC-PVTZ-JKFIT
	 Reference Energy          =    -590.3930005137880244 [Eh]
	 Singles Energy            =      -0.0000000000000000 [Eh]
	 Same-Spin Energy          =      -0.2672016822965785 [Eh]
	 Opposite-Spin Energy      =      -0.8641287506564101 [Eh]
	 Correlation Energy        =      -1.1313304329529887 [Eh]
	 Total Energy              =    -591.5243309467409745 [Eh]

	 ================> DF-SCS-MP2 Energies <==================
	-----------------------------------------------------------
	 SCS Same-Spin Scale       =       0.3333333333333333 [-]
	 SCS Opposite-Spin Scale   =       1.2000000000000000 [-]
	 SCS Same-Spin Energy      =      -0.0890672274321928 [Eh]
	 SCS Opposite-Spin Energy  =      -1.0369545007876921 [Eh]
	 SCS Correlation Energy    =      -1.1260217282198850 [Eh]
	 SCS Total Energy          =    -591.5190222420079635 [Eh]
	-----------------------------------------------------------

  Dipole Moment: [D]
     X:    -0.8898      Y:    -0.4328      Z:     0.4778     Total:     1.0988

*** Psi4 exiting successfully. Buy a developer a beer!
