                               Psi4 1.3.2 release

  ==> Input File <==

--------------------------------------------------------------------------
#psi4
#
memory 32 gb

molecule  {
0 1
  S        1.4017960     0.0318670    -0.2267910
  C        0.3439980    -1.2907520     0.4304430
  C       -1.0366050    -1.1980160    -0.1526860
  C       -1.6877140    -0.0149620    -0.1717330
  C       -1.1565467     1.3015564     0.1363067
  C        0.3208110     1.3651600     0.1119950
  H        0.3192380    -1.2040060     1.5241050
  H        0.8310050    -2.2339400     0.1718380
  H       -1.5205060    -2.1086570    -0.4970330
  H       -2.7141090     0.0333350    -0.5285000
  H       -1.6282610     2.1139460     0.3806850
  H        0.8050420     2.3317560     0.2174670
units angstrom
no_reorient  #important for SAPT in psi4, default
symmetry c1  #important for SAPT in psi4, default
}

set PROPERTIES_ORIGIN ["COM"]
properties('MP2/aug-cc-pvtz', properties = ['dipole'])
--------------------------------------------------------------------------

    Molecular point group: c1
  Charge       = 0
  Multiplicity = 1
  Basis Set: AUG-CC-PVTZ
    Blend: AUG-CC-PVTZ
  Basis Set: (AUG-CC-PVTZ AUX)
    Blend: AUG-CC-PVTZ-JKFIT

    Orbital Energies [Eh]
    ---------------------

    Doubly Occupied:

       1A    -91.969961     2A    -11.287383     3A    -11.268809
       4A    -11.246096     5A    -11.242194     6A    -11.240625
       7A     -8.969931     8A     -6.651140     9A     -6.650146
      10A     -6.649390    11A     -1.132812    12A     -1.023117
      13A     -1.014484    14A     -0.865540    15A     -0.815576
      16A     -0.703812    17A     -0.686155    18A     -0.621018
      19A     -0.592484    20A     -0.578201    21A     -0.525964
      22A     -0.499178    23A     -0.463300    24A     -0.437972
      25A     -0.366315    26A     -0.285943

  @DF-RHF Final Energy:  -590.37170894319274

   => Energetics <=

    Nuclear Repulsion Energy =            269.9160672973291071
    One-Electron Energy =               -1345.0004548015874661
    Two-Electron Energy =                 484.7126785610655588
    Total Energy =                       -590.3717089431927434
  Basis Set: (AUG-CC-PVTZ AUX)
    Blend: AUG-CC-PVTZ-RI
    Molecular point group: c1

    Geometry (in Angstrom), charge = 0, multiplicity = 1:

       Center              X                  Y                   Z               Mass
    ------------   -----------------  -----------------  -----------------  -----------------
         S            1.378458967794     0.012495545080    -0.209237457523    31.972071174400
         C            0.320660967794    -1.310123454920     0.447996542477    12.000000000000
         C           -1.059942032206    -1.217387454920    -0.135132457523    12.000000000000
         C           -1.711051032206    -0.034333454920    -0.154179457523    12.000000000000
         C           -1.179883732206     1.282184945080     0.153860242477    12.000000000000
         C            0.297473967794     1.345788545080     0.129548542477    12.000000000000
         H            0.295900967794    -1.223377454920     1.541658542477     1.007825032230
         H            0.807667967794    -2.253311454920     0.189391542477     1.007825032230
         H           -1.543843032206    -2.128028454920    -0.479479457523     1.007825032230
         H           -2.737446032206     0.013963545080    -0.510946457523     1.007825032230
         H           -1.651598032206     2.094574545080     0.398238542477     1.007825032230
         H            0.781704967794     2.312384545080     0.235020542477     1.007825032230

  Basis Set: AUG-CC-PVTZ
    Blend: AUG-CC-PVTZ
  Basis Set: (AUG-CC-PVTZ AUX)
    Blend: AUG-CC-PVTZ-JKFIT
	 Reference Energy          =    -590.3717089431927434 [Eh]
	 Singles Energy            =      -0.0000000000000000 [Eh]
	 Same-Spin Energy          =      -0.2699719657703642 [Eh]
	 Opposite-Spin Energy      =      -0.8673092637260149 [Eh]
	 Correlation Energy        =      -1.1372812294963790 [Eh]
	 Total Energy              =    -591.5089901726890957 [Eh]

	 ================> DF-SCS-MP2 Energies <==================
	-----------------------------------------------------------
	 SCS Same-Spin Scale       =       0.3333333333333333 [-]
	 SCS Opposite-Spin Scale   =       1.2000000000000000 [-]
	 SCS Same-Spin Energy      =      -0.0899906552567881 [Eh]
	 SCS Opposite-Spin Energy  =      -1.0407711164712179 [Eh]
	 SCS Correlation Energy    =      -1.1307617717280061 [Eh]
	 SCS Total Energy          =    -591.5024707149207188 [Eh]
	-----------------------------------------------------------

  Dipole Moment: [D]
     X:    -0.6807      Y:    -0.4073      Z:     0.5385     Total:     0.9588

*** Psi4 exiting successfully. Buy a developer a beer!
