                               Psi4 1.3.2 release

  ==> Input File <==

--------------------------------------------------------------------------
#psi4
#
memory 32 gb

molecule  {
0 1
  S        1.4017960     0.0318670    -0.2267910
  C        0.3439980    -1.2907520     0.4304430
  C       -1.0366050    -1.1980160    -0.1526860
  C       -1.6877140    -0.0149620    -0.1717330
  C       -1.0273490     1.2315180     0.1753310
  C        0.3158231     1.4113648     0.1210102
  H        0.3192380    -1.2040060     1.5241050
  H        0.8310050    -2.2339400     0.1718380
  H       -1.5205060    -2.1086570    -0.4970330
  H       -2.7141090     0.0333350    -0.5285000
  H       -1.6282610     2.1139460     0.3806850
  H        0.8050420     2.3317560     0.2174670
units angstrom
no_reorient  #important for SAPT in psi4, default
symmetry c1  #important for SAPT in psi4, default
}

set PROPERTIES_ORIGIN ["COM"]
properties('MP2/aug-cc-pvtz', properties = ['dipole'])
--------------------------------------------------------------------------

    Molecular point group: c1
  Charge       = 0
  Multiplicity = 1
  Basis Set: AUG-CC-PVTZ
    Blend: AUG-CC-PVTZ
  Basis Set: (AUG-CC-PVTZ AUX)
    Blend: AUG-CC-PVTZ-JKFIT

    Orbital Energies [Eh]
    ---------------------

    Doubly Occupied:

       1A    -91.960201     2A    -11.268021     3A    -11.267701
       4A    -11.245555     5A    -11.243236     6A    -11.240737
       7A     -8.960077     8A     -6.641249     9A     -6.640392
      10A     -6.639524    11A     -1.138967    12A     -1.027860
      13A     -1.015497    14A     -0.856489    15A     -0.822047
      16A     -0.700436    17A     -0.681128    18A     -0.609943
      19A     -0.601381    20A     -0.585124    21A     -0.535567
      22A     -0.484195    23A     -0.456916    24A     -0.448616
      25A     -0.361996    26A     -0.300196

  @DF-RHF Final Energy:  -590.40414002865361

   => Energetics <=

    Nuclear Repulsion Energy =            271.3642108581094590
    One-Electron Energy =               -1348.0705994592176467
    Two-Electron Energy =                 486.3022485724546868
    Total Energy =                       -590.4041400286536145
  Basis Set: (AUG-CC-PVTZ AUX)
    Blend: AUG-CC-PVTZ-RI
    Molecular point group: c1

    Geometry (in Angstrom), charge = 0, multiplicity = 1:

       Center              X                  Y                   Z               Mass
    ------------   -----------------  -----------------  -----------------  -----------------
         S            1.363252556026     0.015413378741    -0.215118703754    31.972071174400
         C            0.305454556026    -1.307205621259     0.442115296246    12.000000000000
         C           -1.075148443974    -1.214469621259    -0.141013703754    12.000000000000
         C           -1.726257443974    -0.031415621259    -0.160060703754    12.000000000000
         C           -1.065892443974     1.215064378741     0.187003296246    12.000000000000
         C            0.277279656026     1.394911178741     0.132682496246    12.000000000000
         H            0.280694556026    -1.220459621259     1.535777296246     1.007825032230
         H            0.792461556026    -2.250393621259     0.183510296246     1.007825032230
         H           -1.559049443974    -2.125110621259    -0.485360703754     1.007825032230
         H           -2.752652443974     0.016881378741    -0.516827703754     1.007825032230
         H           -1.666804443974     2.097492378741     0.392357296246     1.007825032230
         H            0.766498556026     2.315302378741     0.229139296246     1.007825032230

  Basis Set: AUG-CC-PVTZ
    Blend: AUG-CC-PVTZ
  Basis Set: (AUG-CC-PVTZ AUX)
    Blend: AUG-CC-PVTZ-JKFIT
	 Reference Energy          =    -590.4041400286536145 [Eh]
	 Singles Energy            =      -0.0000000000000000 [Eh]
	 Same-Spin Energy          =      -0.2672606934028078 [Eh]
	 Opposite-Spin Energy      =      -0.8623802562259727 [Eh]
	 Correlation Energy        =      -1.1296409496287805 [Eh]
	 Total Energy              =    -591.5337809782823797 [Eh]

	 ================> DF-SCS-MP2 Energies <==================
	-----------------------------------------------------------
	 SCS Same-Spin Scale       =       0.3333333333333333 [-]
	 SCS Opposite-Spin Scale   =       1.2000000000000000 [-]
	 SCS Same-Spin Energy      =      -0.0890868978009359 [Eh]
	 SCS Opposite-Spin Energy  =      -1.0348563074711672 [Eh]
	 SCS Correlation Energy    =      -1.1239432052721030 [Eh]
	 SCS Total Energy          =    -591.5280832339257131 [Eh]
	-----------------------------------------------------------

  Dipole Moment: [D]
     X:    -0.9671      Y:    -0.3268      Z:     0.5056     Total:     1.1391

*** Psi4 exiting successfully. Buy a developer a beer!
