                               Psi4 1.4a3.dev225

  ==> Input File <==

--------------------------------------------------------------------------
#psi4
#
memory 32 gb

molecule  {
0 1
  S        1.4017960     0.0318670    -0.2267910
  C        0.3439980    -1.2907520     0.4304430
  C       -1.0366050    -1.1980160    -0.1526860
  C       -1.6877140    -0.0149620    -0.1717330
  C       -1.0273490     1.2315180     0.1753310
  C        0.3208110     1.3651600     0.1119950
  H        0.3192380    -1.2040060     1.5241050
  H        0.8310050    -2.2339400     0.1718380
  H       -1.5205060    -2.1086570    -0.4970330
  H       -2.7141090     0.0333350    -0.5285000
  H       -1.6282610     2.1139460     0.3806850
  H        0.8273314     2.3762488     0.2223219
units angstrom
no_reorient  #important for SAPT in psi4, default
symmetry c1  #important for SAPT in psi4, default
}

set PROPERTIES_ORIGIN ["COM"]
properties('MP2/aug-cc-pvtz', properties = ['dipole'])
--------------------------------------------------------------------------

    Molecular point group: c1
  Charge       = 0
  Multiplicity = 1
  Basis Set: AUG-CC-PVTZ
    Blend: AUG-CC-PVTZ
  Basis Set: (AUG-CC-PVTZ AUX)
    Blend: AUG-CC-PVTZ-JKFIT

    Orbital Energies [Eh]
    ---------------------

    Doubly Occupied:

       1A    -91.962504     2A    -11.274076     3A    -11.268026
       4A    -11.243623     5A    -11.241251     6A    -11.239653
       7A     -8.962970     8A     -6.644202     9A     -6.643259
      10A     -6.642394    11A     -1.141524    12A     -1.025074
      13A     -1.019021    14A     -0.859869    15A     -0.813608
      16A     -0.689658    17A     -0.678812    18A     -0.608363
      19A     -0.599470    20A     -0.581441    21A     -0.535002
      22A     -0.481759    23A     -0.463558    24A     -0.450814
      25A     -0.363966    26A     -0.297860

  @DF-RHF Final Energy:  -590.40304008901944

   => Energetics <=

    Nuclear Repulsion Energy =            271.9528789294523676
    One-Electron Energy =               -1349.2483222463911261
    Two-Electron Energy =                 486.8924032279194307
    Total Energy =                       -590.4030400890194414
  Basis Set: (AUG-CC-PVTZ AUX)
    Blend: AUG-CC-PVTZ-RI
    Molecular point group: c1

    Geometry (in Angstrom), charge = 0, multiplicity = 1:

       Center              X                  Y                   Z               Mass
    ------------   -----------------  -----------------  -----------------  -----------------
         S            1.362412733162     0.020612539427    -0.214064933691    31.972071174400
         C            0.304614733162    -1.302006460573     0.443169066309    12.000000000000
         C           -1.075988266838    -1.209270460573    -0.139959933691    12.000000000000
         C           -1.727097266838    -0.026216460573    -0.159006933691    12.000000000000
         C           -1.066732266838     1.220263539427     0.188057066309    12.000000000000
         C            0.281427733162     1.353905539427     0.124721066309    12.000000000000
         H            0.279854733162    -1.215260460573     1.536831066309     1.007825032230
         H            0.791621733162    -2.245194460573     0.184564066309     1.007825032230
         H           -1.559889266838    -2.119911460573    -0.484306933691     1.007825032230
         H           -2.753492266838     0.022080539427    -0.515773933691     1.007825032230
         H           -1.667644266838     2.102691539427     0.393411066309     1.007825032230
         H            0.787948133162     2.364994339427     0.235047966309     1.007825032230

  Basis Set: AUG-CC-PVTZ
    Blend: AUG-CC-PVTZ
  Basis Set: (AUG-CC-PVTZ AUX)
    Blend: AUG-CC-PVTZ-JKFIT
	 Reference Energy          =    -590.4030400890194414 [Eh]
	 Singles Energy            =      -0.0000000000000000 [Eh]
	 Same-Spin Energy          =      -0.2679206621234428 [Eh]
	 Opposite-Spin Energy      =      -0.8629681409313290 [Eh]
	 Correlation Energy        =      -1.1308888030547719 [Eh]
	 Total Energy              =    -591.5339288920741865 [Eh]

	 ================> DF-SCS-MP2 Energies <==================
	-----------------------------------------------------------
	 SCS Same-Spin Scale       =       0.3333333333333333 [-]
	 SCS Opposite-Spin Scale   =       1.2000000000000000 [-]
	 SCS Same-Spin Energy      =      -0.0893068873744809 [Eh]
	 SCS Opposite-Spin Energy  =      -1.0355617691175947 [Eh]
	 SCS Correlation Energy    =      -1.1248686564920756 [Eh]
	 SCS Total Energy          =    -591.5279087455114677 [Eh]
	-----------------------------------------------------------

  Dipole Moment: [D]
     X:    -0.8567      Y:    -0.3692      Z:     0.4949     Total:     1.0560

*** Psi4 exiting successfully. Buy a developer a beer!
