                               Psi4 1.3.2 release

  ==> Input File <==

--------------------------------------------------------------------------
#psi4
#
memory 32 gb

molecule  {
0 1
  S        1.4017960     0.0318670    -0.2267910
  C        0.3439980    -1.2907520     0.4304430
  C       -0.9593995    -1.1513298    -0.1253788
  C       -1.6877140    -0.0149620    -0.1717330
  C       -1.0273490     1.2315180     0.1753310
  C        0.3208110     1.3651600     0.1119950
  H        0.3192380    -1.2040060     1.5241050
  H        0.8310050    -2.2339400     0.1718380
  H       -1.5205060    -2.1086570    -0.4970330
  H       -2.7141090     0.0333350    -0.5285000
  H       -1.6282610     2.1139460     0.3806850
  H        0.8050420     2.3317560     0.2174670
units angstrom
no_reorient  #important for SAPT in psi4, default
symmetry c1  #important for SAPT in psi4, default
}

set PROPERTIES_ORIGIN ["COM"]
properties('MP2/aug-cc-pvtz', properties = ['dipole'])
--------------------------------------------------------------------------

    Molecular point group: c1
  Charge       = 0
  Multiplicity = 1
  Basis Set: AUG-CC-PVTZ
    Blend: AUG-CC-PVTZ
  Basis Set: (AUG-CC-PVTZ AUX)
    Blend: AUG-CC-PVTZ-JKFIT

    Orbital Energies [Eh]
    ---------------------

    Doubly Occupied:

       1A    -91.962122     2A    -11.266864     3A    -11.265863
       4A    -11.247231     5A    -11.239921     6A    -11.238890
       7A     -8.962775     8A     -6.643975     9A     -6.643083
      10A     -6.642176    11A     -1.150559    12A     -1.034291
      13A     -1.018665    14A     -0.863900    15A     -0.811760
      16A     -0.699530    17A     -0.671126    18A     -0.616769
      19A     -0.605613    20A     -0.574441    21A     -0.549684
      22A     -0.471670    23A     -0.464871    24A     -0.451666
      25A     -0.361846    26A     -0.296511

  @DF-RHF Final Energy:  -590.39407885834294

   => Energetics <=

    Nuclear Repulsion Energy =            273.7358729937379280
    One-Electron Energy =               -1352.7483051957885891
    Two-Electron Energy =                 488.6183533437077244
    Total Energy =                       -590.3940788583429367
  Basis Set: (AUG-CC-PVTZ AUX)
    Blend: AUG-CC-PVTZ-RI
    Molecular point group: c1

    Geometry (in Angstrom), charge = 0, multiplicity = 1:

       Center              X                  Y                   Z               Mass
    ------------   -----------------  -----------------  -----------------  -----------------
         S            1.353190011162     0.015354443241    -0.217358105830    31.972071174400
         C            0.295392011162    -1.307264556759     0.439875894170    12.000000000000
         C           -1.008005488838    -1.167842356759    -0.115945905830    12.000000000000
         C           -1.736319988838    -0.031474556759    -0.162300105830    12.000000000000
         C           -1.075954988838     1.215005443241     0.184763894170    12.000000000000
         C            0.272205011162     1.348647443241     0.121427894170    12.000000000000
         H            0.270632011162    -1.220518556759     1.533537894170     1.007825032230
         H            0.782399011162    -2.250452556759     0.181270894170     1.007825032230
         H           -1.569111988838    -2.125169556759    -0.487600105830     1.007825032230
         H           -2.762714988838     0.016822443241    -0.519067105830     1.007825032230
         H           -1.676866988838     2.097433443241     0.390117894170     1.007825032230
         H            0.756436011162     2.315243443241     0.226899894170     1.007825032230

  Basis Set: AUG-CC-PVTZ
    Blend: AUG-CC-PVTZ
  Basis Set: (AUG-CC-PVTZ AUX)
    Blend: AUG-CC-PVTZ-JKFIT
	 Reference Energy          =    -590.3940788583429367 [Eh]
	 Singles Energy            =      -0.0000000000000000 [Eh]
	 Same-Spin Energy          =      -0.2690657313963192 [Eh]
	 Opposite-Spin Energy      =      -0.8638985767209592 [Eh]
	 Correlation Energy        =      -1.1329643081172782 [Eh]
	 Total Energy              =    -591.5270431664602029 [Eh]

	 ================> DF-SCS-MP2 Energies <==================
	-----------------------------------------------------------
	 SCS Same-Spin Scale       =       0.3333333333333333 [-]
	 SCS Opposite-Spin Scale   =       1.2000000000000000 [-]
	 SCS Same-Spin Energy      =      -0.0896885771321064 [Eh]
	 SCS Opposite-Spin Energy  =      -1.0366782920651509 [Eh]
	 SCS Correlation Energy    =      -1.1263668691972573 [Eh]
	 SCS Total Energy          =    -591.5204457275401637 [Eh]
	-----------------------------------------------------------

  Dipole Moment: [D]
     X:    -0.8310      Y:    -0.3453      Z:     0.5312     Total:     1.0450

*** Psi4 exiting successfully. Buy a developer a beer!
