                               Psi4 1.4a3.dev225

  ==> Input File <==

--------------------------------------------------------------------------
#psi4
#
memory 32 gb

molecule  {
0 1
  S        1.4017960     0.0318670    -0.2267910
  C        0.3439980    -1.2907520     0.4304430
  C       -1.0366050    -1.1980160    -0.1526860
  C       -1.6877140    -0.0149620    -0.1717330
  C       -1.0273490     1.2315180     0.1753310
  C        0.3208110     1.3651600     0.1119950
  H        0.3192380    -1.2040060     1.5241050
  H        0.8310050    -2.2339400     0.1718380
  H       -1.5205060    -2.1086570    -0.4970330
  H       -2.7141090     0.0333350    -0.5285000
  H       -1.6282610     2.1139460     0.3806850
  H        0.8139577     2.3495531     0.2194090
units angstrom
no_reorient  #important for SAPT in psi4, default
symmetry c1  #important for SAPT in psi4, default
}

set PROPERTIES_ORIGIN ["COM"]
properties('MP2/aug-cc-pvtz', properties = ['dipole'])
--------------------------------------------------------------------------

    Molecular point group: c1
  Charge       = 0
  Multiplicity = 1
  Basis Set: AUG-CC-PVTZ
    Blend: AUG-CC-PVTZ
  Basis Set: (AUG-CC-PVTZ AUX)
    Blend: AUG-CC-PVTZ-JKFIT

    Orbital Energies [Eh]
    ---------------------

    Doubly Occupied:

       1A    -91.962224     2A    -11.270871     3A    -11.267912
       4A    -11.243545     5A    -11.241118     6A    -11.239501
       7A     -8.962713     8A     -6.643949     9A     -6.643005
      10A     -6.642143    11A     -1.141616    12A     -1.025830
      13A     -1.019000    14A     -0.859742    15A     -0.815600
      16A     -0.692201    17A     -0.679763    18A     -0.608691
      19A     -0.599672    20A     -0.583094    21A     -0.534937
      22A     -0.483004    23A     -0.463423    24A     -0.450721
      25A     -0.363927    26A     -0.297763

  @DF-RHF Final Energy:  -590.40484419519419

   => Energetics <=

    Nuclear Repulsion Energy =            272.1022824093811323
    One-Electron Energy =               -1349.5423216472183867
    Two-Electron Energy =                 487.0351950426430676
    Total Energy =                       -590.4048441951941868
  Basis Set: (AUG-CC-PVTZ AUX)
    Blend: AUG-CC-PVTZ-RI
    Molecular point group: c1

    Geometry (in Angstrom), charge = 0, multiplicity = 1:

       Center              X                  Y                   Z               Mass
    ------------   -----------------  -----------------  -----------------  -----------------
         S            1.362550240652     0.020887022832    -0.214034983448    31.972071174400
         C            0.304752240652    -1.301731977168     0.443199016552    12.000000000000
         C           -1.075850759348    -1.208995977168    -0.139929983448    12.000000000000
         C           -1.726959759348    -0.025941977168    -0.158976983448    12.000000000000
         C           -1.066594759348     1.220538022832     0.188087016552    12.000000000000
         C            0.281565240652     1.354180022832     0.124751016552    12.000000000000
         H            0.279992240652    -1.214985977168     1.536861016552     1.007825032230
         H            0.791759240652    -2.244919977168     0.184594016552     1.007825032230
         H           -1.559751759348    -2.119636977168    -0.484276983448     1.007825032230
         H           -2.753354759348     0.022355022832    -0.515743983448     1.007825032230
         H           -1.667506759348     2.102966022832     0.393441016552     1.007825032230
         H            0.774711940652     2.338573122832     0.232165016552     1.007825032230

  Basis Set: AUG-CC-PVTZ
    Blend: AUG-CC-PVTZ
  Basis Set: (AUG-CC-PVTZ AUX)
    Blend: AUG-CC-PVTZ-JKFIT
	 Reference Energy          =    -590.4048441951941868 [Eh]
	 Singles Energy            =      -0.0000000000000000 [Eh]
	 Same-Spin Energy          =      -0.2678484022641681 [Eh]
	 Opposite-Spin Energy      =      -0.8627345630203788 [Eh]
	 Correlation Energy        =      -1.1305829652845469 [Eh]
	 Total Energy              =    -591.5354271604787755 [Eh]

	 ================> DF-SCS-MP2 Energies <==================
	-----------------------------------------------------------
	 SCS Same-Spin Scale       =       0.3333333333333333 [-]
	 SCS Opposite-Spin Scale   =       1.2000000000000000 [-]
	 SCS Same-Spin Energy      =      -0.0892828007547227 [Eh]
	 SCS Opposite-Spin Energy  =      -1.0352814756244544 [Eh]
	 SCS Correlation Energy    =      -1.1245642763791770 [Eh]
	 SCS Total Energy          =    -591.5294084715733334 [Eh]
	-----------------------------------------------------------

  Dipole Moment: [D]
     X:    -0.8582      Y:    -0.3615      Z:     0.4953     Total:     1.0548

*** Psi4 exiting successfully. Buy a developer a beer!
