                               Psi4 1.3.2 release

  ==> Input File <==

--------------------------------------------------------------------------
#psi4
#
memory 32 gb

molecule  {
0 1
  S        1.4017960     0.0318670    -0.2267910
  C        0.3439980    -1.2907520     0.4304430
  C       -1.0366050    -1.1980160    -0.1526860
  C       -1.6877140    -0.0149620    -0.1717330
  C       -1.0273490     1.2315180     0.1753310
  C        0.4202147     1.3750138     0.1073251
  H        0.3192380    -1.2040060     1.5241050
  H        0.8310050    -2.2339400     0.1718380
  H       -1.5205060    -2.1086570    -0.4970330
  H       -2.7141090     0.0333350    -0.5285000
  H       -1.6282610     2.1139460     0.3806850
  H        0.8050420     2.3317560     0.2174670
units angstrom
no_reorient  #important for SAPT in psi4, default
symmetry c1  #important for SAPT in psi4, default
}

set PROPERTIES_ORIGIN ["COM"]
properties('MP2/aug-cc-pvtz', properties = ['dipole'])
--------------------------------------------------------------------------

    Molecular point group: c1
  Charge       = 0
  Multiplicity = 1
  Basis Set: AUG-CC-PVTZ
    Blend: AUG-CC-PVTZ
  Basis Set: (AUG-CC-PVTZ AUX)
    Blend: AUG-CC-PVTZ-JKFIT

    Orbital Energies [Eh]
    ---------------------

    Doubly Occupied:

       1A    -91.966049     2A    -11.275812     3A    -11.270387
       4A    -11.251193     5A    -11.242797     6A    -11.239901
       7A     -8.967302     8A     -6.648638     9A     -6.647660
      10A     -6.646826    11A     -1.139062    12A     -1.030393
      13A     -1.012565    14A     -0.858361    15A     -0.821555
      16A     -0.698209    17A     -0.680266    18A     -0.602825
      19A     -0.595660    20A     -0.590672    21A     -0.536301
      22A     -0.500238    23A     -0.462511    24A     -0.442056
      25A     -0.367845    26A     -0.283216

  @DF-RHF Final Energy:  -590.38862080557976

   => Energetics <=

    Nuclear Repulsion Energy =            271.7614350815937314
    One-Electron Energy =               -1348.7435112556536296
    Two-Electron Energy =                 486.5934553684800221
    Total Energy =                       -590.3886208055797624
  Basis Set: (AUG-CC-PVTZ AUX)
    Blend: AUG-CC-PVTZ-RI
    Molecular point group: c1

    Geometry (in Angstrom), charge = 0, multiplicity = 1:

       Center              X                  Y                   Z               Mass
    ------------   -----------------  -----------------  -----------------  -----------------
         S            1.350472391702     0.019863657819    -0.213443302411    31.972071174400
         C            0.292674391702    -1.302755342181     0.443790697589    12.000000000000
         C           -1.087928608298    -1.210019342181    -0.139338302411    12.000000000000
         C           -1.739037608298    -0.026965342181    -0.158385302411    12.000000000000
         C           -1.078672608298     1.219514657819     0.188678697589    12.000000000000
         C            0.368891091702     1.363010457819     0.120672797589    12.000000000000
         H            0.267914391702    -1.216009342181     1.537452697589     1.007825032230
         H            0.779681391702    -2.245943342181     0.185185697589     1.007825032230
         H           -1.571829608298    -2.120660342181    -0.483685302411     1.007825032230
         H           -2.765432608298     0.021331657819    -0.515152302411     1.007825032230
         H           -1.679584608298     2.101942657819     0.394032697589     1.007825032230
         H            0.753718391702     2.319752657819     0.230814697589     1.007825032230

  Basis Set: AUG-CC-PVTZ
    Blend: AUG-CC-PVTZ
  Basis Set: (AUG-CC-PVTZ AUX)
    Blend: AUG-CC-PVTZ-JKFIT
	 Reference Energy          =    -590.3886208055797624 [Eh]
	 Singles Energy            =      -0.0000000000000000 [Eh]
	 Same-Spin Energy          =      -0.2701580369837758 [Eh]
	 Opposite-Spin Energy      =      -0.8660783430988703 [Eh]
	 Correlation Energy        =      -1.1362363800826460 [Eh]
	 Total Energy              =    -591.5248571856624267 [Eh]

	 ================> DF-SCS-MP2 Energies <==================
	-----------------------------------------------------------
	 SCS Same-Spin Scale       =       0.3333333333333333 [-]
	 SCS Opposite-Spin Scale   =       1.2000000000000000 [-]
	 SCS Same-Spin Energy      =      -0.0900526789945919 [Eh]
	 SCS Opposite-Spin Energy  =      -1.0392940117186444 [Eh]
	 SCS Correlation Energy    =      -1.1293466907132363 [Eh]
	 SCS Total Energy          =    -591.5179674962929539 [Eh]
	-----------------------------------------------------------

  Dipole Moment: [D]
     X:    -0.7066      Y:    -0.4393      Z:     0.4800     Total:     0.9606

*** Psi4 exiting successfully. Buy a developer a beer!
