                               Psi4 1.3.2 release

  ==> Input File <==

--------------------------------------------------------------------------
#psi4
#
memory 32 gb

molecule  {
0 1
  S        1.4017960     0.0318670    -0.2267910
  C        0.3439980    -1.2907520     0.4304430
  C       -1.0366050    -1.1980160    -0.1526860
  C       -1.7982876    -0.0851204    -0.2249735
  C       -1.0273490     1.2315180     0.1753310
  C        0.3208110     1.3651600     0.1119950
  H        0.3192380    -1.2040060     1.5241050
  H        0.8310050    -2.2339400     0.1718380
  H       -1.5205060    -2.1086570    -0.4970330
  H       -2.7141090     0.0333350    -0.5285000
  H       -1.6282610     2.1139460     0.3806850
  H        0.8050420     2.3317560     0.2174670
units angstrom
no_reorient  #important for SAPT in psi4, default
symmetry c1  #important for SAPT in psi4, default
}

set PROPERTIES_ORIGIN ["COM"]
properties('MP2/aug-cc-pvtz', properties = ['dipole'])
--------------------------------------------------------------------------

    Molecular point group: c1
  Charge       = 0
  Multiplicity = 1
  Basis Set: AUG-CC-PVTZ
    Blend: AUG-CC-PVTZ
  Basis Set: (AUG-CC-PVTZ AUX)
    Blend: AUG-CC-PVTZ-JKFIT

    Orbital Energies [Eh]
    ---------------------

    Doubly Occupied:

       1A    -91.960260     2A    -11.272010     3A    -11.265895
       4A    -11.247961     5A    -11.246995     6A    -11.240713
       7A     -8.960886     8A     -6.642146     9A     -6.641199
      10A     -6.640294    11A     -1.132566    12A     -1.027624
      13A     -1.013223    14A     -0.865693    15A     -0.811341
      16A     -0.713367    17A     -0.674016    18A     -0.611577
      19A     -0.596086    20A     -0.587436    21A     -0.544750
      22A     -0.466201    23A     -0.461392    24A     -0.444716
      25A     -0.363545    26A     -0.301989

  @DF-RHF Final Energy:  -590.38468116460342

   => Energetics <=

    Nuclear Repulsion Energy =            270.2331790608927236
    One-Electron Energy =               -1345.7679560106591907
    Two-Electron Energy =                 485.1500957851629892
    Total Energy =                       -590.3846811646034212
  Basis Set: (AUG-CC-PVTZ AUX)
    Blend: AUG-CC-PVTZ-RI
    Molecular point group: c1

    Geometry (in Angstrom), charge = 0, multiplicity = 1:

       Center              X                  Y                   Z               Mass
    ------------   -----------------  -----------------  -----------------  -----------------
         S            1.376178908303     0.029659168798    -0.207497036147    31.972071174400
         C            0.318380908303    -1.292959831202     0.449736963853    12.000000000000
         C           -1.062222091697    -1.200223831202    -0.133392036147    12.000000000000
         C           -1.823904691697    -0.087328231202    -0.205679536147    12.000000000000
         C           -1.052966091697     1.229310168798     0.194624963853    12.000000000000
         C            0.295193908303     1.362952168798     0.131288963853    12.000000000000
         H            0.293620908303    -1.206213831202     1.543398963853     1.007825032230
         H            0.805387908303    -2.236147831202     0.191131963853     1.007825032230
         H           -1.546123091697    -2.110864831202    -0.477739036147     1.007825032230
         H           -2.739726091697     0.031127168798    -0.509206036147     1.007825032230
         H           -1.653878091697     2.111738168798     0.399978963853     1.007825032230
         H            0.779424908303     2.329548168798     0.236760963853     1.007825032230

  Basis Set: AUG-CC-PVTZ
    Blend: AUG-CC-PVTZ
  Basis Set: (AUG-CC-PVTZ AUX)
    Blend: AUG-CC-PVTZ-JKFIT
	 Reference Energy          =    -590.3846811646034212 [Eh]
	 Singles Energy            =      -0.0000000000000000 [Eh]
	 Same-Spin Energy          =      -0.2661328582207046 [Eh]
	 Opposite-Spin Energy      =      -0.8622810220111264 [Eh]
	 Correlation Energy        =      -1.1284138802318311 [Eh]
	 Total Energy              =    -591.5130950448352678 [Eh]

	 ================> DF-SCS-MP2 Energies <==================
	-----------------------------------------------------------
	 SCS Same-Spin Scale       =       0.3333333333333333 [-]
	 SCS Opposite-Spin Scale   =       1.2000000000000000 [-]
	 SCS Same-Spin Energy      =      -0.0887109527402349 [Eh]
	 SCS Opposite-Spin Energy  =      -1.0347372264133516 [Eh]
	 SCS Correlation Energy    =      -1.1234481791535864 [Eh]
	 SCS Total Energy          =    -591.5081293437569911 [Eh]
	-----------------------------------------------------------

  Dipole Moment: [D]
     X:    -0.9560      Y:    -0.4270      Z:     0.4721     Total:     1.1485

*** Psi4 exiting successfully. Buy a developer a beer!
