                               Psi4 1.4a3.dev225

  ==> Input File <==

--------------------------------------------------------------------------
#psi4
#
memory 32 gb

molecule  {
0 1
  S        1.4017960     0.0318670    -0.2267910
  C        0.3323524    -1.3053131     0.4376787
  C       -1.0366050    -1.1980160    -0.1526860
  C       -1.6877140    -0.0149620    -0.1717330
  C       -1.0273490     1.2315180     0.1753310
  C        0.3208110     1.3651600     0.1119950
  H        0.3192380    -1.2040060     1.5241050
  H        0.8310050    -2.2339400     0.1718380
  H       -1.5205060    -2.1086570    -0.4970330
  H       -2.7141090     0.0333350    -0.5285000
  H       -1.6282610     2.1139460     0.3806850
  H        0.8050420     2.3317560     0.2174670
units angstrom
no_reorient  #important for SAPT in psi4, default
symmetry c1  #important for SAPT in psi4, default
}

set PROPERTIES_ORIGIN ["COM"]
properties('MP2/aug-cc-pvtz', properties = ['dipole'])
--------------------------------------------------------------------------

    Molecular point group: c1
  Charge       = 0
  Multiplicity = 1
  Basis Set: AUG-CC-PVTZ
    Blend: AUG-CC-PVTZ
  Basis Set: (AUG-CC-PVTZ AUX)
    Blend: AUG-CC-PVTZ-JKFIT

    Orbital Energies [Eh]
    ---------------------

    Doubly Occupied:

       1A    -91.961813     2A    -11.268736     3A    -11.268109
       4A    -11.243278     5A    -11.240813     6A    -11.239670
       7A     -8.962083     8A     -6.643294     9A     -6.642353
      10A     -6.641511    11A     -1.140998    12A     -1.027453
      13A     -1.017061    14A     -0.860899    15A     -0.816520
      16A     -0.694633    17A     -0.680829    18A     -0.610464
      19A     -0.600591    20A     -0.583940    21A     -0.535203
      22A     -0.481818    23A     -0.463211    24A     -0.451155
      25A     -0.363057    26A     -0.297621

  @DF-RHF Final Energy:  -590.40527793118019

   => Energetics <=

    Nuclear Repulsion Energy =            271.9349930057428537
    One-Electron Energy =               -1349.2063152615971831
    Two-Electron Energy =                 486.8660443246741920
    Total Energy =                       -590.4052779311800805
  Basis Set: (AUG-CC-PVTZ AUX)
    Blend: AUG-CC-PVTZ-RI
    Molecular point group: c1

    Geometry (in Angstrom), charge = 0, multiplicity = 1:

       Center              X                  Y                   Z               Mass
    ------------   -----------------  -----------------  -----------------  -----------------
         S            1.364067626396     0.022852657259    -0.214900848079    31.972071174400
         C            0.294624026396    -1.314327442741     0.449568851921    12.000000000000
         C           -1.074333373604    -1.207030342741    -0.140795848079    12.000000000000
         C           -1.725442373604    -0.023976342741    -0.159842848079    12.000000000000
         C           -1.065077373604     1.222503657259     0.187221151921    12.000000000000
         C            0.283082626396     1.356145657259     0.123885151921    12.000000000000
         H            0.281509626396    -1.213020342741     1.535995151921     1.007825032230
         H            0.793276626396    -2.242954342741     0.183728151921     1.007825032230
         H           -1.558234373604    -2.117671342741    -0.485142848079     1.007825032230
         H           -2.751837373604     0.024320657259    -0.516609848079     1.007825032230
         H           -1.665989373604     2.104931657259     0.392575151921     1.007825032230
         H            0.767313626396     2.322741657259     0.229357151921     1.007825032230

  Basis Set: AUG-CC-PVTZ
    Blend: AUG-CC-PVTZ
  Basis Set: (AUG-CC-PVTZ AUX)
    Blend: AUG-CC-PVTZ-JKFIT
	 Reference Energy          =    -590.4052779311801942 [Eh]
	 Singles Energy            =      -0.0000000000000000 [Eh]
	 Same-Spin Energy          =      -0.2677891565639689 [Eh]
	 Opposite-Spin Energy      =      -0.8626351899274523 [Eh]
	 Correlation Energy        =      -1.1304243464914212 [Eh]
	 Total Energy              =    -591.5357022776715894 [Eh]

	 ================> DF-SCS-MP2 Energies <==================
	-----------------------------------------------------------
	 SCS Same-Spin Scale       =       0.3333333333333333 [-]
	 SCS Opposite-Spin Scale   =       1.2000000000000000 [-]
	 SCS Same-Spin Energy      =      -0.0892630521879896 [Eh]
	 SCS Opposite-Spin Energy  =      -1.0351622279129427 [Eh]
	 SCS Correlation Energy    =      -1.1244252801009322 [Eh]
	 SCS Total Energy          =    -591.5297032112811166 [Eh]
	-----------------------------------------------------------

  Dipole Moment: [D]
     X:    -0.8649      Y:    -0.3719      Z:     0.5099     Total:     1.0707

*** Psi4 exiting successfully. Buy a developer a beer!
