                               Psi4 1.3.2 release

  ==> Input File <==

--------------------------------------------------------------------------
#psi4
#
memory 32 gb

molecule  {
0 1
  S        1.4017960     0.0318670    -0.2267910
  C        0.3439980    -1.2907520     0.4304430
  C       -1.1146212    -1.2377600    -0.1876125
  C       -1.6877140    -0.0149620    -0.1717330
  C       -1.0273490     1.2315180     0.1753310
  C        0.3208110     1.3651600     0.1119950
  H        0.3192380    -1.2040060     1.5241050
  H        0.8310050    -2.2339400     0.1718380
  H       -1.5205060    -2.1086570    -0.4970330
  H       -2.7141090     0.0333350    -0.5285000
  H       -1.6282610     2.1139460     0.3806850
  H        0.8050420     2.3317560     0.2174670
units angstrom
no_reorient  #important for SAPT in psi4, default
symmetry c1  #important for SAPT in psi4, default
}

set PROPERTIES_ORIGIN ["COM"]
properties('MP2/aug-cc-pvtz', properties = ['dipole'])
--------------------------------------------------------------------------

    Molecular point group: c1
  Charge       = 0
  Multiplicity = 1
  Basis Set: AUG-CC-PVTZ
    Blend: AUG-CC-PVTZ
  Basis Set: (AUG-CC-PVTZ AUX)
    Blend: AUG-CC-PVTZ-JKFIT

    Orbital Energies [Eh]
    ---------------------

    Doubly Occupied:

       1A    -91.962385     2A    -11.270687     3A    -11.269510
       4A    -11.242834     5A    -11.242060     6A    -11.240568
       7A     -8.962741     8A     -6.644005     9A     -6.643020
      10A     -6.642197    11A     -1.135506    12A     -1.024514
      13A     -1.015580    14A     -0.856749    15A     -0.823866
      16A     -0.694450    17A     -0.689708    18A     -0.603605
      19A     -0.598248    20A     -0.591010    21A     -0.516761
      22A     -0.491818    23A     -0.462127    24A     -0.446955
      25A     -0.365197    26A     -0.299268

  @DF-RHF Final Energy:  -590.39662198786607

   => Energetics <=

    Nuclear Repulsion Energy =            270.8032970119063521
    One-Electron Energy =               -1346.9291017698267297
    Two-Electron Energy =                 485.7291827700542513
    Total Energy =                       -590.3966219878661832
  Basis Set: (AUG-CC-PVTZ AUX)
    Blend: AUG-CC-PVTZ-RI
    Molecular point group: c1

    Geometry (in Angstrom), charge = 0, multiplicity = 1:

       Center              X                  Y                   Z               Mass
    ------------   -----------------  -----------------  -----------------  -----------------
         S            1.372193061530     0.025935679266    -0.209739131578    31.972071174400
         C            0.314395061530    -1.296683320734     0.447494868422    12.000000000000
         C           -1.144224138470    -1.243691320734    -0.170560631578    12.000000000000
         C           -1.717316938470    -0.020893320734    -0.154681131578    12.000000000000
         C           -1.056951938470     1.225586679266     0.192382868422    12.000000000000
         C            0.291208061530     1.359228679266     0.129046868422    12.000000000000
         H            0.289635061530    -1.209937320734     1.541156868422     1.007825032230
         H            0.801402061530    -2.239871320734     0.188889868422     1.007825032230
         H           -1.550108938470    -2.114588320734    -0.479981131578     1.007825032230
         H           -2.743711938470     0.027403679266    -0.511448131578     1.007825032230
         H           -1.657863938470     2.108014679266     0.397736868422     1.007825032230
         H            0.775439061530     2.325824679266     0.234518868422     1.007825032230

  Basis Set: AUG-CC-PVTZ
    Blend: AUG-CC-PVTZ
  Basis Set: (AUG-CC-PVTZ AUX)
    Blend: AUG-CC-PVTZ-JKFIT
	 Reference Energy          =    -590.3966219878660695 [Eh]
	 Singles Energy            =      -0.0000000000000000 [Eh]
	 Same-Spin Energy          =      -0.2672150962646854 [Eh]
	 Opposite-Spin Energy      =      -0.8626119423185609 [Eh]
	 Correlation Energy        =      -1.1298270385832463 [Eh]
	 Total Energy              =    -591.5264490264493134 [Eh]

	 ================> DF-SCS-MP2 Energies <==================
	-----------------------------------------------------------
	 SCS Same-Spin Scale       =       0.3333333333333333 [-]
	 SCS Opposite-Spin Scale   =       1.2000000000000000 [-]
	 SCS Same-Spin Energy      =      -0.0890716987548951 [Eh]
	 SCS Opposite-Spin Energy  =      -1.0351343307822729 [Eh]
	 SCS Correlation Energy    =      -1.1242060295371681 [Eh]
	 SCS Total Energy          =    -591.5208280174032325 [Eh]
	-----------------------------------------------------------

  Dipole Moment: [D]
     X:    -0.8704      Y:    -0.3438      Z:     0.4717     Total:     1.0480

*** Psi4 exiting successfully. Buy a developer a beer!
