                               Psi4 1.4a3.dev225

  ==> Input File <==

--------------------------------------------------------------------------
#psi4
#
memory 32 gb

molecule  {
0 1
  S        1.4017960     0.0318670    -0.2267910
  C        0.3439980    -1.2907520     0.4304430
  C       -1.0366050    -1.1980160    -0.1526860
  C       -1.6877140    -0.0149620    -0.1717330
  C       -1.0273490     1.2315180     0.1753310
  C        0.2711092     1.3602331     0.1143300
  H        0.3192380    -1.2040060     1.5241050
  H        0.8310050    -2.2339400     0.1718380
  H       -1.5205060    -2.1086570    -0.4970330
  H       -2.7141090     0.0333350    -0.5285000
  H       -1.6282610     2.1139460     0.3806850
  H        0.8050420     2.3317560     0.2174670
units angstrom
no_reorient  #important for SAPT in psi4, default
symmetry c1  #important for SAPT in psi4, default
}

set PROPERTIES_ORIGIN ["COM"]
properties('MP2/aug-cc-pvtz', properties = ['dipole'])
--------------------------------------------------------------------------

    Molecular point group: c1
  Charge       = 0
  Multiplicity = 1
  Basis Set: AUG-CC-PVTZ
    Blend: AUG-CC-PVTZ
  Basis Set: (AUG-CC-PVTZ AUX)
    Blend: AUG-CC-PVTZ-JKFIT

    Orbital Energies [Eh]
    ---------------------

    Doubly Occupied:

       1A    -91.960454     2A    -11.266708     3A    -11.264991
       4A    -11.243757     5A    -11.239454     6A    -11.234705
       7A     -8.960593     8A     -6.641791     9A     -6.640837
      10A     -6.639975    11A     -1.144670    12A     -1.032909
      13A     -1.015291    14A     -0.860476    15A     -0.814799
      16A     -0.693344    17A     -0.678699    18A     -0.613618
      19A     -0.600831    20A     -0.580866    21A     -0.534218
      22A     -0.476463    23A     -0.461873    24A     -0.455201
      25A     -0.361944    26A     -0.304908

  @DF-RHF Final Energy:  -590.40430422078657

   => Energetics <=

    Nuclear Repulsion Energy =            272.4790014417821453
    One-Electron Energy =               -1350.3198640101084038
    Two-Electron Energy =                 487.4365583475396306
    Total Energy =                       -590.4043042207865710
  Basis Set: (AUG-CC-PVTZ AUX)
    Blend: AUG-CC-PVTZ-RI
    Molecular point group: c1

    Geometry (in Angstrom), charge = 0, multiplicity = 1:

       Center              X                  Y                   Z               Mass
    ------------   -----------------  -----------------  -----------------  -----------------
         S            1.368726664954     0.021673188229    -0.214300878816    31.972071174400
         C            0.310928664954    -1.300945811771     0.442933121184    12.000000000000
         C           -1.069674335046    -1.208209811771    -0.140195878816    12.000000000000
         C           -1.720783335046    -0.025155811771    -0.159242878816    12.000000000000
         C           -1.060418335046     1.221324188229     0.187821121184    12.000000000000
         C            0.238039864954     1.350039288229     0.126820121184    12.000000000000
         H            0.286168664954    -1.214199811771     1.536595121184     1.007825032230
         H            0.797935664954    -2.244133811771     0.184328121184     1.007825032230
         H           -1.553575335046    -2.118850811771    -0.484542878816     1.007825032230
         H           -2.747178335046     0.023141188229    -0.516009878816     1.007825032230
         H           -1.661330335046     2.103752188229     0.393175121184     1.007825032230
         H            0.771972664954     2.321562188229     0.229957121184     1.007825032230

  Basis Set: AUG-CC-PVTZ
    Blend: AUG-CC-PVTZ
  Basis Set: (AUG-CC-PVTZ AUX)
    Blend: AUG-CC-PVTZ-JKFIT
	 Reference Energy          =    -590.4043042207865710 [Eh]
	 Singles Energy            =      -0.0000000000000000 [Eh]
	 Same-Spin Energy          =      -0.2669512499754714 [Eh]
	 Opposite-Spin Energy      =      -0.8614309133253745 [Eh]
	 Correlation Energy        =      -1.1283821633008460 [Eh]
	 Total Energy              =    -591.5326863840874694 [Eh]

	 ================> DF-SCS-MP2 Energies <==================
	-----------------------------------------------------------
	 SCS Same-Spin Scale       =       0.3333333333333333 [-]
	 SCS Opposite-Spin Scale   =       1.2000000000000000 [-]
	 SCS Same-Spin Energy      =      -0.0889837499918238 [Eh]
	 SCS Opposite-Spin Energy  =      -1.0337170959904494 [Eh]
	 SCS Correlation Energy    =      -1.1227008459822732 [Eh]
	 SCS Total Energy          =    -591.5270050667688793 [Eh]
	-----------------------------------------------------------

  Dipole Moment: [D]
     X:    -0.9425      Y:    -0.3187      Z:     0.5045     Total:     1.1155

*** Psi4 exiting successfully. Buy a developer a beer!
