                               Psi4 1.3.2 release

  ==> Input File <==

--------------------------------------------------------------------------
#psi4
#
memory 32 gb

molecule  {
0 1
  S        1.4017960     0.0318670    -0.2267910
  C        0.3439980    -1.2907520     0.4304430
  C       -0.9446609    -1.2041919    -0.1138513
  C       -1.6877140    -0.0149620    -0.1717330
  C       -1.0273490     1.2315180     0.1753310
  C        0.3208110     1.3651600     0.1119950
  H        0.3192380    -1.2040060     1.5241050
  H        0.8310050    -2.2339400     0.1718380
  H       -1.5205060    -2.1086570    -0.4970330
  H       -2.7141090     0.0333350    -0.5285000
  H       -1.6282610     2.1139460     0.3806850
  H        0.8050420     2.3317560     0.2174670
units angstrom
no_reorient  #important for SAPT in psi4, default
symmetry c1  #important for SAPT in psi4, default
}

set PROPERTIES_ORIGIN ["COM"]
properties('MP2/aug-cc-pvtz', properties = ['dipole'])
--------------------------------------------------------------------------

    Molecular point group: c1
  Charge       = 0
  Multiplicity = 1
  Basis Set: AUG-CC-PVTZ
    Blend: AUG-CC-PVTZ
  Basis Set: (AUG-CC-PVTZ AUX)
    Blend: AUG-CC-PVTZ-JKFIT

    Orbital Energies [Eh]
    ---------------------

    Doubly Occupied:

       1A    -91.963311     2A    -11.267843     3A    -11.264215
       4A    -11.249902     5A    -11.245860     6A    -11.240387
       7A     -8.963883     8A     -6.645075     9A     -6.644168
      10A     -6.643271    11A     -1.148313    12A     -1.038727
      13A     -1.011868    14A     -0.861799    15A     -0.814437
      16A     -0.697792    17A     -0.674494    18A     -0.617202
      19A     -0.606684    20A     -0.574246    21A     -0.549893
      22A     -0.473164    23A     -0.466208    24A     -0.450599
      25A     -0.358490    26A     -0.292169

  @DF-RHF Final Energy:  -590.38898872358413

   => Energetics <=

    Nuclear Repulsion Energy =            273.1406378083709114
    One-Electron Energy =               -1351.5312573674943906
    Two-Electron Energy =                 488.0016308355392880
    Total Energy =                       -590.3889887235841343
  Basis Set: (AUG-CC-PVTZ AUX)
    Blend: AUG-CC-PVTZ-RI
    Molecular point group: c1

    Geometry (in Angstrom), charge = 0, multiplicity = 1:

       Center              X                  Y                   Z               Mass
    ------------   -----------------  -----------------  -----------------  -----------------
         S            1.351385634853     0.021826097326    -0.218769362524    31.972071174400
         C            0.293587634853    -1.300792902674     0.438464637476    12.000000000000
         C           -0.995071265147    -1.214232802674    -0.105829662524    12.000000000000
         C           -1.738124365147    -0.025002902674    -0.163711362524    12.000000000000
         C           -1.077759365147     1.221477097326     0.183352637476    12.000000000000
         C            0.270400634853     1.355119097326     0.120016637476    12.000000000000
         H            0.268827634853    -1.214046902674     1.532126637476     1.007825032230
         H            0.780594634853    -2.243980902674     0.179859637476     1.007825032230
         H           -1.570916365147    -2.118697902674    -0.489011362524     1.007825032230
         H           -2.764519365147     0.023294097326    -0.520478362524     1.007825032230
         H           -1.678671365147     2.103905097326     0.388706637476     1.007825032230
         H            0.754631634853     2.321715097326     0.225488637476     1.007825032230

  Basis Set: AUG-CC-PVTZ
    Blend: AUG-CC-PVTZ
  Basis Set: (AUG-CC-PVTZ AUX)
    Blend: AUG-CC-PVTZ-JKFIT
	 Reference Energy          =    -590.3889887235841343 [Eh]
	 Singles Energy            =      -0.0000000000000000 [Eh]
	 Same-Spin Energy          =      -0.2700998280380297 [Eh]
	 Opposite-Spin Energy      =      -0.8656021833308114 [Eh]
	 Correlation Energy        =      -1.1357020113688412 [Eh]
	 Total Energy              =    -591.5246907349529693 [Eh]

	 ================> DF-SCS-MP2 Energies <==================
	-----------------------------------------------------------
	 SCS Same-Spin Scale       =       0.3333333333333333 [-]
	 SCS Opposite-Spin Scale   =       1.2000000000000000 [-]
	 SCS Same-Spin Energy      =      -0.0900332760126765 [Eh]
	 SCS Opposite-Spin Energy  =      -1.0387226199969737 [Eh]
	 SCS Correlation Energy    =      -1.1287558960096502 [Eh]
	 SCS Total Energy          =    -591.5177446195938273 [Eh]
	-----------------------------------------------------------

  Dipole Moment: [D]
     X:    -0.8079      Y:    -0.3211      Z:     0.5120     Total:     1.0089

*** Psi4 exiting successfully. Buy a developer a beer!
