                               Psi4 1.4a3.dev225

  ==> Input File <==

--------------------------------------------------------------------------
#psi4
#
memory 32 gb

molecule  {
0 1
  S        1.4017960     0.0318670    -0.2267910
  C        0.3439980    -1.2907520     0.4304430
  C       -1.0366050    -1.1980160    -0.1526860
  C       -1.6877140    -0.0149620    -0.1717330
  C       -1.0273490     1.2315180     0.1753310
  C        0.3009303     1.3631892     0.1129290
  H        0.3192380    -1.2040060     1.5241050
  H        0.8310050    -2.2339400     0.1718380
  H       -1.5205060    -2.1086570    -0.4970330
  H       -2.7141090     0.0333350    -0.5285000
  H       -1.6282610     2.1139460     0.3806850
  H        0.8050420     2.3317560     0.2174670
units angstrom
no_reorient  #important for SAPT in psi4, default
symmetry c1  #important for SAPT in psi4, default
}

set PROPERTIES_ORIGIN ["COM"]
properties('MP2/aug-cc-pvtz', properties = ['dipole'])
--------------------------------------------------------------------------

    Molecular point group: c1
  Charge       = 0
  Multiplicity = 1
  Basis Set: AUG-CC-PVTZ
    Blend: AUG-CC-PVTZ
  Basis Set: (AUG-CC-PVTZ AUX)
    Blend: AUG-CC-PVTZ-JKFIT

    Orbital Energies [Eh]
    ---------------------

    Doubly Occupied:

       1A    -91.961385     2A    -11.267379     3A    -11.267222
       4A    -11.243608     5A    -11.239635     6A    -11.238367
       7A     -8.961741     8A     -6.642963     9A     -6.642016
      10A     -6.641154    11A     -1.142735    12A     -1.028729
      13A     -1.017675    14A     -0.859984    15A     -0.816182
      16A     -0.693723    17A     -0.679761    18A     -0.610824
      19A     -0.600256    20A     -0.582720    21A     -0.534623
      22A     -0.480504    23A     -0.463064    24A     -0.452540
      25A     -0.363118    26A     -0.300605

  @DF-RHF Final Energy:  -590.40589892227786

   => Energetics <=

    Nuclear Repulsion Energy =            272.3096286456627695
    One-Electron Energy =               -1349.9660285007685161
    Two-Electron Energy =                 487.2505009328279471
    Total Energy =                       -590.4058989222778564
  Basis Set: (AUG-CC-PVTZ AUX)
    Blend: AUG-CC-PVTZ-RI
    Molecular point group: c1

    Geometry (in Angstrom), charge = 0, multiplicity = 1:

       Center              X                  Y                   Z               Mass
    ------------   -----------------  -----------------  -----------------  -----------------
         S            1.365075810304     0.021311287044    -0.214129361087    31.972071174400
         C            0.307277810304    -1.301307712956     0.443104638913    12.000000000000
         C           -1.073325189696    -1.208571712956    -0.140024361087    12.000000000000
         C           -1.724434189696    -0.025517712956    -0.159071361087    12.000000000000
         C           -1.064069189696     1.220962287044     0.187992638913    12.000000000000
         C            0.264210110304     1.352633487044     0.125590638913    12.000000000000
         H            0.282517810304    -1.214561712956     1.536766638913     1.007825032230
         H            0.794284810304    -2.244495712956     0.184499638913     1.007825032230
         H           -1.557226189696    -2.119212712956    -0.484371361087     1.007825032230
         H           -2.750829189696     0.022779287044    -0.515838361087     1.007825032230
         H           -1.664981189696     2.103390287044     0.393346638913     1.007825032230
         H            0.768321810304     2.321200287044     0.230128638913     1.007825032230

  Basis Set: AUG-CC-PVTZ
    Blend: AUG-CC-PVTZ
  Basis Set: (AUG-CC-PVTZ AUX)
    Blend: AUG-CC-PVTZ-JKFIT
	 Reference Energy          =    -590.4058989222778564 [Eh]
	 Singles Energy            =      -0.0000000000000000 [Eh]
	 Same-Spin Energy          =      -0.2674348894141700 [Eh]
	 Opposite-Spin Energy      =      -0.8620866317531901 [Eh]
	 Correlation Energy        =      -1.1295215211673602 [Eh]
	 Total Energy              =    -591.5354204434452186 [Eh]

	 ================> DF-SCS-MP2 Energies <==================
	-----------------------------------------------------------
	 SCS Same-Spin Scale       =       0.3333333333333333 [-]
	 SCS Opposite-Spin Scale   =       1.2000000000000000 [-]
	 SCS Same-Spin Energy      =      -0.0891449631380567 [Eh]
	 SCS Opposite-Spin Energy  =      -1.0345039581038280 [Eh]
	 SCS Correlation Energy    =      -1.1236489212418848 [Eh]
	 SCS Total Energy          =    -591.5295478435197083 [Eh]
	-----------------------------------------------------------

  Dipole Moment: [D]
     X:    -0.8923      Y:    -0.3416      Z:     0.4990     Total:     1.0779

*** Psi4 exiting successfully. Buy a developer a beer!
