                               Psi4 1.3.2 release

  ==> Input File <==

--------------------------------------------------------------------------
#psi4
#
memory 32 gb

molecule  {
0 1
  S        1.4017960     0.0318670    -0.2267910
  C        0.3443556    -1.3419213     0.4191035
  C       -1.0366050    -1.1980160    -0.1526860
  C       -1.6877140    -0.0149620    -0.1717330
  C       -1.0273490     1.2315180     0.1753310
  C        0.3208110     1.3651600     0.1119950
  H        0.3192380    -1.2040060     1.5241050
  H        0.8310050    -2.2339400     0.1718380
  H       -1.5205060    -2.1086570    -0.4970330
  H       -2.7141090     0.0333350    -0.5285000
  H       -1.6282610     2.1139460     0.3806850
  H        0.8050420     2.3317560     0.2174670
units angstrom
no_reorient  #important for SAPT in psi4, default
symmetry c1  #important for SAPT in psi4, default
}

set PROPERTIES_ORIGIN ["COM"]
properties('MP2/aug-cc-pvtz', properties = ['dipole'])
--------------------------------------------------------------------------

    Molecular point group: c1
  Charge       = 0
  Multiplicity = 1
  Basis Set: AUG-CC-PVTZ
    Blend: AUG-CC-PVTZ
  Basis Set: (AUG-CC-PVTZ AUX)
    Blend: AUG-CC-PVTZ-JKFIT

    Orbital Energies [Eh]
    ---------------------

    Doubly Occupied:

       1A    -91.961345     2A    -11.269120     3A    -11.268727
       4A    -11.244429     5A    -11.240901     6A    -11.240027
       7A     -8.961493     8A     -6.642690     9A     -6.641790
      10A     -6.640943    11A     -1.139334    12A     -1.027827
      13A     -1.016469    14A     -0.863192    15A     -0.816313
      16A     -0.696579    17A     -0.678480    18A     -0.615863
      19A     -0.599474    20A     -0.582462    21A     -0.538005
      22A     -0.483837    23A     -0.460811    24A     -0.449508
      25A     -0.363087    26A     -0.296395

  @DF-RHF Final Energy:  -590.40340122909959

   => Energetics <=

    Nuclear Repulsion Energy =            271.4723637675424470
    One-Electron Energy =               -1348.2733271904405683
    Two-Electron Energy =                 486.3975621937985920
    Total Energy =                       -590.4034012290994724
  Basis Set: (AUG-CC-PVTZ AUX)
    Blend: AUG-CC-PVTZ-RI
    Molecular point group: c1

    Geometry (in Angstrom), charge = 0, multiplicity = 1:

       Center              X                  Y                   Z               Mass
    ------------   -----------------  -----------------  -----------------  -----------------
         S            1.362598132026     0.027334424102    -0.212626775181    31.972071174400
         C            0.305157732026    -1.346453875898     0.433267724819    12.000000000000
         C           -1.075802867974    -1.202548575898    -0.138521775181    12.000000000000
         C           -1.726911867974    -0.019494575898    -0.157568775181    12.000000000000
         C           -1.066546867974     1.226985424102     0.189495224819    12.000000000000
         C            0.281613132026     1.360627424102     0.126159224819    12.000000000000
         H            0.280040132026    -1.208538575898     1.538269224819     1.007825032230
         H            0.791807132026    -2.238472575898     0.186002224819     1.007825032230
         H           -1.559703867974    -2.113189575898    -0.482868775181     1.007825032230
         H           -2.753306867974     0.028802424102    -0.514335775181     1.007825032230
         H           -1.667458867974     2.109413424102     0.394849224819     1.007825032230
         H            0.765844132026     2.327223424102     0.231631224819     1.007825032230

  Basis Set: AUG-CC-PVTZ
    Blend: AUG-CC-PVTZ
  Basis Set: (AUG-CC-PVTZ AUX)
    Blend: AUG-CC-PVTZ-JKFIT
	 Reference Energy          =    -590.4034012290995861 [Eh]
	 Singles Energy            =      -0.0000000000000000 [Eh]
	 Same-Spin Energy          =      -0.2675621430115359 [Eh]
	 Opposite-Spin Energy      =      -0.8624040915222488 [Eh]
	 Correlation Energy        =      -1.1299662345337849 [Eh]
	 Total Energy              =    -591.5333674636333399 [Eh]

	 ================> DF-SCS-MP2 Energies <==================
	-----------------------------------------------------------
	 SCS Same-Spin Scale       =       0.3333333333333333 [-]
	 SCS Opposite-Spin Scale   =       1.2000000000000000 [-]
	 SCS Same-Spin Energy      =      -0.0891873810038453 [Eh]
	 SCS Opposite-Spin Energy  =      -1.0348849098266986 [Eh]
	 SCS Correlation Energy    =      -1.1240722908305438 [Eh]
	 SCS Total Energy          =    -591.5274735199301404 [Eh]
	-----------------------------------------------------------

  Dipole Moment: [D]
     X:    -0.8726      Y:    -0.3967      Z:     0.5080     Total:     1.0849

*** Psi4 exiting successfully. Buy a developer a beer!
