                               Psi4 1.3.2 release

  ==> Input File <==

--------------------------------------------------------------------------
#psi4
#
memory 32 gb

molecule  {
0 1
  S        1.4017960     0.0318670    -0.2267910
  C        0.3439980    -1.2907520     0.4304430
  C       -1.0366050    -1.1980160    -0.1526860
  C       -1.6423147    -0.0351849    -0.1817807
  C       -1.0273490     1.2315180     0.1753310
  C        0.3208110     1.3651600     0.1119950
  H        0.3192380    -1.2040060     1.5241050
  H        0.8310050    -2.2339400     0.1718380
  H       -1.5205060    -2.1086570    -0.4970330
  H       -2.7141090     0.0333350    -0.5285000
  H       -1.6282610     2.1139460     0.3806850
  H        0.8050420     2.3317560     0.2174670
units angstrom
no_reorient  #important for SAPT in psi4, default
symmetry c1  #important for SAPT in psi4, default
}

set PROPERTIES_ORIGIN ["COM"]
properties('MP2/aug-cc-pvtz', properties = ['dipole'])
--------------------------------------------------------------------------

    Molecular point group: c1
  Charge       = 0
  Multiplicity = 1
  Basis Set: AUG-CC-PVTZ
    Blend: AUG-CC-PVTZ
  Basis Set: (AUG-CC-PVTZ AUX)
    Blend: AUG-CC-PVTZ-JKFIT

    Orbital Energies [Eh]
    ---------------------

    Doubly Occupied:

       1A    -91.961763     2A    -11.268658     3A    -11.266654
       4A    -11.240760     5A    -11.238124     6A    -11.236045
       7A     -8.962297     8A     -6.643540     9A     -6.642590
      10A     -6.641732    11A     -1.145705    12A     -1.030086
      13A     -1.018964    14A     -0.861222    15A     -0.815033
      16A     -0.690057    17A     -0.680209    18A     -0.608426
      19A     -0.603454    20A     -0.587494    21A     -0.523346
      22A     -0.485245    23A     -0.463388    24A     -0.451926
      25A     -0.366969    26A     -0.300627

  @DF-RHF Final Energy:  -590.40385735633015

   => Energetics <=

    Nuclear Repulsion Energy =            273.0183484960300575
    One-Electron Energy =               -1351.3757810738090939
    Two-Electron Energy =                 487.9535752214488866
    Total Energy =                       -590.4038573563301497
  Basis Set: (AUG-CC-PVTZ AUX)
    Blend: AUG-CC-PVTZ-RI
    Molecular point group: c1

    Geometry (in Angstrom), charge = 0, multiplicity = 1:

       Center              X                  Y                   Z               Mass
    ------------   -----------------  -----------------  -----------------  -----------------
         S            1.357083892112     0.023545804355    -0.212784924077    31.972071174400
         C            0.299285892112    -1.299073195645     0.444449075923    12.000000000000
         C           -1.081317107888    -1.206337195645    -0.138679924077    12.000000000000
         C           -1.687026807888    -0.043506095645    -0.167774624077    12.000000000000
         C           -1.072061107888     1.223196804355     0.189337075923    12.000000000000
         C            0.276098892112     1.356838804355     0.126001075923    12.000000000000
         H            0.274525892112    -1.212327195645     1.538111075923     1.007825032230
         H            0.786292892112    -2.242261195645     0.185844075923     1.007825032230
         H           -1.565218107888    -2.116978195645    -0.483026924077     1.007825032230
         H           -2.758821107888     0.025013804355    -0.514493924077     1.007825032230
         H           -1.672973107888     2.105624804355     0.394691075923     1.007825032230
         H            0.760329892112     2.323434804355     0.231473075923     1.007825032230

  Basis Set: AUG-CC-PVTZ
    Blend: AUG-CC-PVTZ
  Basis Set: (AUG-CC-PVTZ AUX)
    Blend: AUG-CC-PVTZ-JKFIT
	 Reference Energy          =    -590.4038573563301497 [Eh]
	 Singles Energy            =      -0.0000000000000000 [Eh]
	 Same-Spin Energy          =      -0.2674619985998850 [Eh]
	 Opposite-Spin Energy      =      -0.8617950968743062 [Eh]
	 Correlation Energy        =      -1.1292570954741912 [Eh]
	 Total Energy              =    -591.5331144518042947 [Eh]

	 ================> DF-SCS-MP2 Energies <==================
	-----------------------------------------------------------
	 SCS Same-Spin Scale       =       0.3333333333333333 [-]
	 SCS Opposite-Spin Scale   =       1.2000000000000000 [-]
	 SCS Same-Spin Energy      =      -0.0891539995332950 [Eh]
	 SCS Opposite-Spin Energy  =      -1.0341541162491674 [Eh]
	 SCS Correlation Energy    =      -1.1233081157824625 [Eh]
	 SCS Total Energy          =    -591.5271654721126424 [Eh]
	-----------------------------------------------------------

  Dipole Moment: [D]
     X:    -0.8644      Y:    -0.3507      Z:     0.5143     Total:     1.0652

*** Psi4 exiting successfully. Buy a developer a beer!
