                               Psi4 1.3.2 release

  ==> Input File <==

--------------------------------------------------------------------------
#psi4
#
memory 32 gb

molecule  {
0 1
  S        1.4017960     0.0318670    -0.2267910
  C        0.3439980    -1.2907520     0.4304430
  C       -1.0366050    -1.1980160    -0.1526860
  C       -1.6877140    -0.0149620    -0.1717330
  C       -1.1182665     1.0599056     0.1275481
  C        0.3208110     1.3651600     0.1119950
  H        0.3192380    -1.2040060     1.5241050
  H        0.8310050    -2.2339400     0.1718380
  H       -1.5205060    -2.1086570    -0.4970330
  H       -2.7141090     0.0333350    -0.5285000
  H       -1.6282610     2.1139460     0.3806850
  H        0.8050420     2.3317560     0.2174670
units angstrom
no_reorient  #important for SAPT in psi4, default
symmetry c1  #important for SAPT in psi4, default
}

set PROPERTIES_ORIGIN ["COM"]
properties('MP2/aug-cc-pvtz', properties = ['dipole'])
--------------------------------------------------------------------------

    Molecular point group: c1
  Charge       = 0
  Multiplicity = 1
  Basis Set: AUG-CC-PVTZ
    Blend: AUG-CC-PVTZ
  Basis Set: (AUG-CC-PVTZ AUX)
    Blend: AUG-CC-PVTZ-JKFIT

    Orbital Energies [Eh]
    ---------------------

    Doubly Occupied:

       1A    -91.965227     2A    -11.286403     3A    -11.269422
       4A    -11.247627     5A    -11.246368     6A    -11.222615
       7A     -8.965470     8A     -6.646594     9A     -6.645800
      10A     -6.645012    11A     -1.160640    12A     -1.045582
      13A     -1.010671    14A     -0.851668    15A     -0.833637
      16A     -0.704324    17A     -0.673529    18A     -0.622979
      19A     -0.594079    20A     -0.570481    21A     -0.549134
      22A     -0.491648    23A     -0.466708    24A     -0.433685
      25A     -0.372527    26A     -0.272113

  @DF-RHF Final Energy:  -590.33667957900946

   => Energetics <=

    Nuclear Repulsion Energy =            273.8384314708159195
    One-Electron Energy =               -1352.7623365025222029
    Two-Electron Energy =                 488.5872254526967140
    Total Energy =                       -590.3366795790095694
  Basis Set: (AUG-CC-PVTZ AUX)
    Blend: AUG-CC-PVTZ-RI
    Molecular point group: c1

    Geometry (in Angstrom), charge = 0, multiplicity = 1:

       Center              X                  Y                   Z               Mass
    ------------   -----------------  -----------------  -----------------  -----------------
         S            1.373772505987     0.042079696804    -0.208165184013    31.972071174400
         C            0.315974505987    -1.280539303196     0.449068815987    12.000000000000
         C           -1.064628494013    -1.187803303196    -0.134060184013    12.000000000000
         C           -1.715737494013    -0.004749303196    -0.153107184013    12.000000000000
         C           -1.146289994013     1.070118296804     0.146173915987    12.000000000000
         C            0.292787505987     1.375372696804     0.130620815987    12.000000000000
         H            0.291214505987    -1.193793303196     1.542730815987     1.007825032230
         H            0.802981505987    -2.223727303196     0.190463815987     1.007825032230
         H           -1.548529494013    -2.098444303196    -0.478407184013     1.007825032230
         H           -2.742132494013     0.043547696804    -0.509874184013     1.007825032230
         H           -1.656284494013     2.124158696804     0.399310815987     1.007825032230
         H            0.777018505987     2.341968696804     0.236092815987     1.007825032230

  Basis Set: AUG-CC-PVTZ
    Blend: AUG-CC-PVTZ
  Basis Set: (AUG-CC-PVTZ AUX)
    Blend: AUG-CC-PVTZ-JKFIT
	 Reference Energy          =    -590.3366795790094557 [Eh]
	 Singles Energy            =      -0.0000000000000000 [Eh]
	 Same-Spin Energy          =      -0.2755898560670495 [Eh]
	 Opposite-Spin Energy      =      -0.8724078963828275 [Eh]
	 Correlation Energy        =      -1.1479977524498770 [Eh]
	 Total Energy              =    -591.4846773314593520 [Eh]

	 ================> DF-SCS-MP2 Energies <==================
	-----------------------------------------------------------
	 SCS Same-Spin Scale       =       0.3333333333333333 [-]
	 SCS Opposite-Spin Scale   =       1.2000000000000000 [-]
	 SCS Same-Spin Energy      =      -0.0918632853556832 [Eh]
	 SCS Opposite-Spin Energy  =      -1.0468894756593929 [Eh]
	 SCS Correlation Energy    =      -1.1387527610150761 [Eh]
	 SCS Total Energy          =    -591.4754323400245539 [Eh]
	-----------------------------------------------------------

  Dipole Moment: [D]
     X:    -0.6997      Y:    -0.3437      Z:     0.5013     Total:     0.9268

*** Psi4 exiting successfully. Buy a developer a beer!
