                               Psi4 1.4a3.dev225

  ==> Input File <==

--------------------------------------------------------------------------
#psi4
#
memory 32 gb

molecule  {
0 1
  S        1.4017960     0.0318670    -0.2267910
  C        0.3439980    -1.2907520     0.4304430
  C       -1.0366050    -1.1980160    -0.1526860
  C       -1.6877140    -0.0149620    -0.1717330
  C       -1.0273490     1.2315180     0.1753310
  C        0.3084538     1.3804014     0.1158678
  H        0.3192380    -1.2040060     1.5241050
  H        0.8310050    -2.2339400     0.1718380
  H       -1.5205060    -2.1086570    -0.4970330
  H       -2.7141090     0.0333350    -0.5285000
  H       -1.6282610     2.1139460     0.3806850
  H        0.8050420     2.3317560     0.2174670
units angstrom
no_reorient  #important for SAPT in psi4, default
symmetry c1  #important for SAPT in psi4, default
}

set PROPERTIES_ORIGIN ["COM"]
properties('MP2/aug-cc-pvtz', properties = ['dipole'])
--------------------------------------------------------------------------

    Molecular point group: c1
  Charge       = 0
  Multiplicity = 1
  Basis Set: AUG-CC-PVTZ
    Blend: AUG-CC-PVTZ
  Basis Set: (AUG-CC-PVTZ AUX)
    Blend: AUG-CC-PVTZ-JKFIT

    Orbital Energies [Eh]
    ---------------------

    Doubly Occupied:

       1A    -91.961033     2A    -11.267624     3A    -11.267539
       4A    -11.244270     5A    -11.240629     6A    -11.239674
       7A     -8.961232     8A     -6.642438     9A     -6.641525
      10A     -6.640661    11A     -1.141219    12A     -1.028137
      13A     -1.017018    14A     -0.858704    15A     -0.818222
      16A     -0.695806    17A     -0.680492    18A     -0.610108
      19A     -0.600585    20A     -0.583959    21A     -0.534971
      22A     -0.482222    23A     -0.460839    24A     -0.451135
      25A     -0.362820    26A     -0.300140

  @DF-RHF Final Energy:  -590.40595917949702

   => Energetics <=

    Nuclear Repulsion Energy =            271.9621724318374163
    One-Electron Energy =               -1349.2702565233150835
    Two-Electron Energy =                 486.9021249119805930
    Total Energy =                       -590.4059591794971311
  Basis Set: (AUG-CC-PVTZ AUX)
    Blend: AUG-CC-PVTZ-RI
    Molecular point group: c1

    Geometry (in Angstrom), charge = 0, multiplicity = 1:

       Center              X                  Y                   Z               Mass
    ------------   -----------------  -----------------  -----------------  -----------------
         S            1.364154744181     0.019204079717    -0.214489144316    31.972071174400
         C            0.306356744181    -1.303414920283     0.442744855684    12.000000000000
         C           -1.074246255819    -1.210678920283    -0.140384144316    12.000000000000
         C           -1.725355255819    -0.027624920283    -0.159431144316    12.000000000000
         C           -1.064990255819     1.218855079717     0.187632855684    12.000000000000
         C            0.270812544181     1.367738479717     0.128169655684    12.000000000000
         H            0.281596744181    -1.216668920283     1.536406855684     1.007825032230
         H            0.793363744181    -2.246602920283     0.184139855684     1.007825032230
         H           -1.558147255819    -2.121319920283    -0.484731144316     1.007825032230
         H           -2.751750255819     0.020672079717    -0.516198144316     1.007825032230
         H           -1.665902255819     2.101283079717     0.392986855684     1.007825032230
         H            0.767400744181     2.319093079717     0.229768855684     1.007825032230

  Basis Set: AUG-CC-PVTZ
    Blend: AUG-CC-PVTZ
  Basis Set: (AUG-CC-PVTZ AUX)
    Blend: AUG-CC-PVTZ-JKFIT
	 Reference Energy          =    -590.4059591794970174 [Eh]
	 Singles Energy            =      -0.0000000000000000 [Eh]
	 Same-Spin Energy          =      -0.2673971129410451 [Eh]
	 Opposite-Spin Energy      =      -0.8622015116632258 [Eh]
	 Correlation Energy        =      -1.1295986246042709 [Eh]
	 Total Energy              =    -591.5355578041012450 [Eh]

	 ================> DF-SCS-MP2 Energies <==================
	-----------------------------------------------------------
	 SCS Same-Spin Scale       =       0.3333333333333333 [-]
	 SCS Opposite-Spin Scale   =       1.2000000000000000 [-]
	 SCS Same-Spin Energy      =      -0.0891323709803483 [Eh]
	 SCS Opposite-Spin Energy  =      -1.0346418139958709 [Eh]
	 SCS Correlation Energy    =      -1.1237741849762193 [Eh]
	 SCS Total Energy          =    -591.5297333644732589 [Eh]
	-----------------------------------------------------------

  Dipole Moment: [D]
     X:    -0.9146      Y:    -0.3372      Z:     0.5009     Total:     1.0960

*** Psi4 exiting successfully. Buy a developer a beer!
