                               Psi4 1.3.2 release

  ==> Input File <==

--------------------------------------------------------------------------
#psi4
#
memory 32 gb

molecule  {
0 1
  S        1.4017960     0.0318670    -0.2267910
  C        0.3439980    -1.2907520     0.4304430
  C       -1.2204933    -1.1856641    -0.2303554
  C       -1.6877140    -0.0149620    -0.1717330
  C       -1.0273490     1.2315180     0.1753310
  C        0.3208110     1.3651600     0.1119950
  H        0.3192380    -1.2040060     1.5241050
  H        0.8310050    -2.2339400     0.1718380
  H       -1.5205060    -2.1086570    -0.4970330
  H       -2.7141090     0.0333350    -0.5285000
  H       -1.6282610     2.1139460     0.3806850
  H        0.8050420     2.3317560     0.2174670
units angstrom
no_reorient  #important for SAPT in psi4, default
symmetry c1  #important for SAPT in psi4, default
}

set PROPERTIES_ORIGIN ["COM"]
properties('MP2/aug-cc-pvtz', properties = ['dipole'])
--------------------------------------------------------------------------

    Molecular point group: c1
  Charge       = 0
  Multiplicity = 1
  Basis Set: AUG-CC-PVTZ
    Blend: AUG-CC-PVTZ
  Basis Set: (AUG-CC-PVTZ AUX)
    Blend: AUG-CC-PVTZ-JKFIT

    Orbital Energies [Eh]
    ---------------------

    Doubly Occupied:

       1A    -91.960300     2A    -11.270806     3A    -11.268976
       4A    -11.242788     5A    -11.237228     6A    -11.230924
       7A     -8.960618     8A     -6.641912     9A     -6.640911
      10A     -6.640106    11A     -1.138004    12A     -1.039257
      13A     -1.006351    14A     -0.859311    15A     -0.818752
      16A     -0.702944    17A     -0.688561    18A     -0.611675
      19A     -0.598818    20A     -0.585961    21A     -0.500764
      22A     -0.490466    23A     -0.463375    24A     -0.438873
      25A     -0.370668    26A     -0.304429

  @DF-RHF Final Energy:  -590.37355968319366

   => Energetics <=

    Nuclear Repulsion Energy =            270.5949021890812674
    One-Electron Energy =               -1346.5113699734592956
    Two-Electron Energy =                 485.5429081011843664
    Total Energy =                       -590.3735596831936618
  Basis Set: (AUG-CC-PVTZ AUX)
    Blend: AUG-CC-PVTZ-RI
    Molecular point group: c1

    Geometry (in Angstrom), charge = 0, multiplicity = 1:

       Center              X                  Y                   Z               Mass
    ------------   -----------------  -----------------  -----------------  -----------------
         S            1.385154476388     0.019557827383    -0.204506322754    31.972071174400
         C            0.327356476388    -1.303061172617     0.452727677246    12.000000000000
         C           -1.237134823612    -1.197973272617    -0.208070722754    12.000000000000
         C           -1.704355523612    -0.027271172617    -0.149448322754    12.000000000000
         C           -1.043990523612     1.219208827383     0.197615677246    12.000000000000
         C            0.304169476388     1.352850827383     0.134279677246    12.000000000000
         H            0.302596476388    -1.216315172617     1.546389677246     1.007825032230
         H            0.814363476388    -2.246249172617     0.194122677246     1.007825032230
         H           -1.537147523612    -2.120966172617    -0.474748322754     1.007825032230
         H           -2.730750523612     0.021025827383    -0.506215322754     1.007825032230
         H           -1.644902523612     2.101636827383     0.402969677246     1.007825032230
         H            0.788400476388     2.319446827383     0.239751677246     1.007825032230

  Basis Set: AUG-CC-PVTZ
    Blend: AUG-CC-PVTZ
  Basis Set: (AUG-CC-PVTZ AUX)
    Blend: AUG-CC-PVTZ-JKFIT
	 Reference Energy          =    -590.3735596831936618 [Eh]
	 Singles Energy            =      -0.0000000000000000 [Eh]
	 Same-Spin Energy          =      -0.2664396099238718 [Eh]
	 Opposite-Spin Energy      =      -0.8614856964823162 [Eh]
	 Correlation Energy        =      -1.1279253064061880 [Eh]
	 Total Energy              =    -591.5014849895998168 [Eh]

	 ================> DF-SCS-MP2 Energies <==================
	-----------------------------------------------------------
	 SCS Same-Spin Scale       =       0.3333333333333333 [-]
	 SCS Opposite-Spin Scale   =       1.2000000000000000 [-]
	 SCS Same-Spin Energy      =      -0.0888132033079573 [Eh]
	 SCS Opposite-Spin Energy  =      -1.0337828357787795 [Eh]
	 SCS Correlation Energy    =      -1.1225960390867367 [Eh]
	 SCS Total Energy          =    -591.4961557222803776 [Eh]
	-----------------------------------------------------------

  Dipole Moment: [D]
     X:    -0.9788      Y:    -0.3975      Z:     0.4425     Total:     1.1454

*** Psi4 exiting successfully. Buy a developer a beer!
