                               Psi4 1.3.2 release

  ==> Input File <==

--------------------------------------------------------------------------
#psi4
#
memory 32 gb

molecule  {
0 1
  S        1.4017960     0.0318670    -0.2267910
  C        0.3439980    -1.2907520     0.4304430
  C       -1.0366050    -1.1980160    -0.1526860
  C       -1.6877140    -0.0149620    -0.1717330
  C       -1.0273490     1.2315180     0.1753310
  C        0.4443829     1.2127457     0.0732670
  H        0.3192380    -1.2040060     1.5241050
  H        0.8310050    -2.2339400     0.1718380
  H       -1.5205060    -2.1086570    -0.4970330
  H       -2.7141090     0.0333350    -0.5285000
  H       -1.6282610     2.1139460     0.3806850
  H        0.8050420     2.3317560     0.2174670
units angstrom
no_reorient  #important for SAPT in psi4, default
symmetry c1  #important for SAPT in psi4, default
}

set PROPERTIES_ORIGIN ["COM"]
properties('MP2/aug-cc-pvtz', properties = ['dipole'])
--------------------------------------------------------------------------

    Molecular point group: c1
  Charge       = 0
  Multiplicity = 1
  Basis Set: AUG-CC-PVTZ
    Blend: AUG-CC-PVTZ
  Basis Set: (AUG-CC-PVTZ AUX)
    Blend: AUG-CC-PVTZ-JKFIT

    Orbital Energies [Eh]
    ---------------------

    Doubly Occupied:

       1A    -91.972002     2A    -11.282951     3A    -11.270992
       4A    -11.244533     5A    -11.235705     6A    -11.232486
       7A     -8.977747     8A     -6.659627     9A     -6.657616
      10A     -6.656962    11A     -1.159556    12A     -1.048792
      13A     -1.005652    14A     -0.866899    15A     -0.801552
      16A     -0.684191    17A     -0.675697    18A     -0.610804
      19A     -0.601180    20A     -0.569096    21A     -0.536218
      22A     -0.506282    23A     -0.479815    24A     -0.436937
      25A     -0.373314    26A     -0.271021

  @DF-RHF Final Energy:  -590.35186431686736

   => Energetics <=

    Nuclear Repulsion Energy =            275.0627305387462798
    One-Electron Energy =               -1355.1939320367537221
    Two-Electron Energy =                 489.7793371811400220
    Total Energy =                       -590.3518643168673634
  Basis Set: (AUG-CC-PVTZ AUX)
    Blend: AUG-CC-PVTZ-RI
    Molecular point group: c1

    Geometry (in Angstrom), charge = 0, multiplicity = 1:

       Center              X                  Y                   Z               Mass
    ------------   -----------------  -----------------  -----------------  -----------------
         S            1.347513594563     0.039729365238    -0.209273732114    31.972071174400
         C            0.289715594563    -1.282889634762     0.447960267886    12.000000000000
         C           -1.090887405437    -1.190153634762    -0.135168732114    12.000000000000
         C           -1.741996405437    -0.007099634762    -0.154215732114    12.000000000000
         C           -1.081631405437     1.239380365238     0.192848267886    12.000000000000
         C            0.390100494563     1.220608065238     0.090784267886    12.000000000000
         H            0.264955594563    -1.196143634762     1.541622267886     1.007825032230
         H            0.776722594563    -2.226077634762     0.189355267886     1.007825032230
         H           -1.574788405437    -2.100794634762    -0.479515732114     1.007825032230
         H           -2.768391405437     0.041197365238    -0.510982732114     1.007825032230
         H           -1.682543405437     2.121808365238     0.398202267886     1.007825032230
         H            0.750759594563     2.339618365238     0.234984267886     1.007825032230

  Basis Set: AUG-CC-PVTZ
    Blend: AUG-CC-PVTZ
  Basis Set: (AUG-CC-PVTZ AUX)
    Blend: AUG-CC-PVTZ-JKFIT
	 Reference Energy          =    -590.3518643168673634 [Eh]
	 Singles Energy            =      -0.0000000000000000 [Eh]
	 Same-Spin Energy          =      -0.2741537184812181 [Eh]
	 Opposite-Spin Energy      =      -0.8696118795207191 [Eh]
	 Correlation Energy        =      -1.1437655980019370 [Eh]
	 Total Energy              =    -591.4956299148692551 [Eh]

	 ================> DF-SCS-MP2 Energies <==================
	-----------------------------------------------------------
	 SCS Same-Spin Scale       =       0.3333333333333333 [-]
	 SCS Opposite-Spin Scale   =       1.2000000000000000 [-]
	 SCS Same-Spin Energy      =      -0.0913845728270727 [Eh]
	 SCS Opposite-Spin Energy  =      -1.0435342554248628 [Eh]
	 SCS Correlation Energy    =      -1.1349188282519354 [Eh]
	 SCS Total Energy          =    -591.4867831451192615 [Eh]
	-----------------------------------------------------------

  Dipole Moment: [D]
     X:    -0.2805      Y:    -0.5113      Z:     0.4503     Total:     0.7368

*** Psi4 exiting successfully. Buy a developer a beer!
