                               Psi4 1.4a3.dev225

  ==> Input File <==

--------------------------------------------------------------------------
#psi4
#
memory 32 gb

molecule  {
0 1
  S        1.4017960     0.0318670    -0.2267910
  C        0.3439980    -1.2907520     0.4304430
  C       -1.0366050    -1.1980160    -0.1526860
  C       -1.6877140    -0.0149620    -0.1717330
  C       -1.0273490     1.2315180     0.1753310
  C        0.3208110     1.3651600     0.1119950
  H        0.3192380    -1.2040060     1.5241050
  H        0.8310050    -2.2339400     0.1718380
  H       -1.5205060    -2.1086570    -0.4970330
  H       -2.7141090     0.0333350    -0.5285000
  H       -1.6558975     2.1545296     0.3901294
  H        0.8050420     2.3317560     0.2174670
units angstrom
no_reorient  #important for SAPT in psi4, default
symmetry c1  #important for SAPT in psi4, default
}

set PROPERTIES_ORIGIN ["COM"]
properties('MP2/aug-cc-pvtz', properties = ['dipole'])
--------------------------------------------------------------------------

    Molecular point group: c1
  Charge       = 0
  Multiplicity = 1
  Basis Set: AUG-CC-PVTZ
    Blend: AUG-CC-PVTZ
  Basis Set: (AUG-CC-PVTZ AUX)
    Blend: AUG-CC-PVTZ-JKFIT

    Orbital Energies [Eh]
    ---------------------

    Doubly Occupied:

       1A    -91.962368     2A    -11.268986     3A    -11.268077
       4A    -11.246633     5A    -11.243875     6A    -11.240061
       7A     -8.962864     8A     -6.644103     9A     -6.643155
      10A     -6.642292    11A     -1.141654    12A     -1.025790
      13A     -1.018649    14A     -0.858014    15A     -0.816704
      16A     -0.694164    17A     -0.675258    18A     -0.606183
      19A     -0.598159    20A     -0.583668    21A     -0.535221
      22A     -0.482473    23A     -0.462999    24A     -0.450594
      25A     -0.364190    26A     -0.297955

  @DF-RHF Final Energy:  -590.40305854278836

   => Energetics <=

    Nuclear Repulsion Energy =            271.9624798886164854
    One-Electron Energy =               -1349.2628973073231009
    Two-Electron Energy =                 486.8973588759183713
    Total Energy =                       -590.4030585427883580
  Basis Set: (AUG-CC-PVTZ AUX)
    Blend: AUG-CC-PVTZ-RI
    Molecular point group: c1

    Geometry (in Angstrom), charge = 0, multiplicity = 1:

       Center              X                  Y                   Z               Mass
    ------------   -----------------  -----------------  -----------------  -----------------
         S            1.362926067932     0.020652733561    -0.214112122624    31.972071174400
         C            0.305128067932    -1.301966266439     0.443121877376    12.000000000000
         C           -1.075474932068    -1.209230266439    -0.140007122624    12.000000000000
         C           -1.726583932068    -0.026176266439    -0.159054122624    12.000000000000
         C           -1.066218932068     1.220303733561     0.188009877376    12.000000000000
         C            0.281941067932     1.353945733561     0.124673877376    12.000000000000
         H            0.280368067932    -1.215220266439     1.536783877376     1.007825032230
         H            0.792135067932    -2.245154266439     0.184516877376     1.007825032230
         H           -1.559375932068    -2.119871266439    -0.484354122624     1.007825032230
         H           -2.752978932068     0.022120733561    -0.515821122624     1.007825032230
         H           -1.694767432068     2.143315333561     0.402808277376     1.007825032230
         H            0.766172067932     2.320541733561     0.230145877376     1.007825032230

  Basis Set: AUG-CC-PVTZ
    Blend: AUG-CC-PVTZ
  Basis Set: (AUG-CC-PVTZ AUX)
    Blend: AUG-CC-PVTZ-JKFIT
	 Reference Energy          =    -590.4030585427883580 [Eh]
	 Singles Energy            =      -0.0000000000000000 [Eh]
	 Same-Spin Energy          =      -0.2678891560532747 [Eh]
	 Opposite-Spin Energy      =      -0.8629518129487213 [Eh]
	 Correlation Energy        =      -1.1308409690019960 [Eh]
	 Total Energy              =    -591.5338995117903096 [Eh]

	 ================> DF-SCS-MP2 Energies <==================
	-----------------------------------------------------------
	 SCS Same-Spin Scale       =       0.3333333333333333 [-]
	 SCS Opposite-Spin Scale   =       1.2000000000000000 [-]
	 SCS Same-Spin Energy      =      -0.0892963853510916 [Eh]
	 SCS Opposite-Spin Energy  =      -1.0355421755384655 [Eh]
	 SCS Correlation Energy    =      -1.1248385608895570 [Eh]
	 SCS Total Energy          =    -591.5278971036779012 [Eh]
	-----------------------------------------------------------

  Dipole Moment: [D]
     X:    -0.8509      Y:    -0.3767      Z:     0.4923     Total:     1.0527

*** Psi4 exiting successfully. Buy a developer a beer!
