                               Psi4 1.3.2 release

  ==> Input File <==

--------------------------------------------------------------------------
#psi4
#
memory 32 gb

molecule  {
0 1
  S        1.4017960     0.0318670    -0.2267910
  C        0.3439980    -1.2907520     0.4304430
  C       -0.9933787    -1.2096294    -0.2474558
  C       -1.6877140    -0.0149620    -0.1717330
  C       -1.0273490     1.2315180     0.1753310
  C        0.3208110     1.3651600     0.1119950
  H        0.3192380    -1.2040060     1.5241050
  H        0.8310050    -2.2339400     0.1718380
  H       -1.5205060    -2.1086570    -0.4970330
  H       -2.7141090     0.0333350    -0.5285000
  H       -1.6282610     2.1139460     0.3806850
  H        0.8050420     2.3317560     0.2174670
units angstrom
no_reorient  #important for SAPT in psi4, default
symmetry c1  #important for SAPT in psi4, default
}

set PROPERTIES_ORIGIN ["COM"]
properties('MP2/aug-cc-pvtz', properties = ['dipole'])
--------------------------------------------------------------------------

    Molecular point group: c1
  Charge       = 0
  Multiplicity = 1
  Basis Set: AUG-CC-PVTZ
    Blend: AUG-CC-PVTZ
  Basis Set: (AUG-CC-PVTZ AUX)
    Blend: AUG-CC-PVTZ-JKFIT

    Orbital Energies [Eh]
    ---------------------

    Doubly Occupied:

       1A    -91.962651     2A    -11.269670     3A    -11.268255
       4A    -11.246347     5A    -11.244905     6A    -11.241378
       7A     -8.963106     8A     -6.644312     9A     -6.643400
      10A     -6.642554    11A     -1.140172    12A     -1.026446
      13A     -1.015490    14A     -0.856915    15A     -0.818992
      16A     -0.694650    17A     -0.681902    18A     -0.605162
      19A     -0.601150    20A     -0.583636    21A     -0.535065
      22A     -0.484138    23A     -0.461521    24A     -0.451045
      25A     -0.359522    26A     -0.297111

  @DF-RHF Final Energy:  -590.39873360726062

   => Energetics <=

    Nuclear Repulsion Energy =            272.0168941180806428
    One-Electron Energy =               -1349.3522599833772802
    Two-Electron Energy =                 486.9366322580359565
    Total Energy =                       -590.3987336072606240
  Basis Set: (AUG-CC-PVTZ AUX)
    Blend: AUG-CC-PVTZ-RI
    Molecular point group: c1

    Geometry (in Angstrom), charge = 0, multiplicity = 1:

       Center              X                  Y                   Z               Mass
    ------------   -----------------  -----------------  -----------------  -----------------
         S            1.357349922109     0.022491784446    -0.202412802566    31.972071174400
         C            0.299551922109    -1.300127215554     0.454821197434    12.000000000000
         C           -1.037824777891    -1.219004615554    -0.223077602566    12.000000000000
         C           -1.732160077891    -0.024337215554    -0.147354802566    12.000000000000
         C           -1.071795077891     1.222142784446     0.199709197434    12.000000000000
         C            0.276364922109     1.355784784446     0.136373197434    12.000000000000
         H            0.274791922109    -1.213381215554     1.548483197434     1.007825032230
         H            0.786558922109    -2.243315215554     0.196216197434     1.007825032230
         H           -1.564952077891    -2.118032215554    -0.472654802566     1.007825032230
         H           -2.758555077891     0.023959784446    -0.504121802566     1.007825032230
         H           -1.672707077891     2.104570784446     0.405063197434     1.007825032230
         H            0.760595922109     2.322380784446     0.241845197434     1.007825032230

  Basis Set: AUG-CC-PVTZ
    Blend: AUG-CC-PVTZ
  Basis Set: (AUG-CC-PVTZ AUX)
    Blend: AUG-CC-PVTZ-JKFIT
	 Reference Energy          =    -590.3987336072606240 [Eh]
	 Singles Energy            =      -0.0000000000000000 [Eh]
	 Same-Spin Energy          =      -0.2689132967533218 [Eh]
	 Opposite-Spin Energy      =      -0.8644981493129495 [Eh]
	 Correlation Energy        =      -1.1334114460662712 [Eh]
	 Total Energy              =    -591.5321450533268717 [Eh]

	 ================> DF-SCS-MP2 Energies <==================
	-----------------------------------------------------------
	 SCS Same-Spin Scale       =       0.3333333333333333 [-]
	 SCS Opposite-Spin Scale   =       1.2000000000000000 [-]
	 SCS Same-Spin Energy      =      -0.0896377655844406 [Eh]
	 SCS Opposite-Spin Energy  =      -1.0373977791755393 [Eh]
	 SCS Correlation Energy    =      -1.1270355447599800 [Eh]
	 SCS Total Energy          =    -591.5257691520206436 [Eh]
	-----------------------------------------------------------

  Dipole Moment: [D]
     X:    -0.8611      Y:    -0.3347      Z:     0.5939     Total:     1.0984

*** Psi4 exiting successfully. Buy a developer a beer!
