                               Psi4 1.3.2 release

  ==> Input File <==

--------------------------------------------------------------------------
#psi4
#
memory 32 gb

molecule  {
0 1
  S        1.4017960     0.0318670    -0.2267910
  C        0.3439980    -1.2907520     0.4304430
  C       -1.0175821    -1.1871712    -0.1439622
  C       -1.6877140    -0.0149620    -0.1717330
  C       -1.0273490     1.2315180     0.1753310
  C        0.3208110     1.3651600     0.1119950
  H        0.3192380    -1.2040060     1.5241050
  H        0.8310050    -2.2339400     0.1718380
  H       -1.5205060    -2.1086570    -0.4970330
  H       -2.7141090     0.0333350    -0.5285000
  H       -1.6282610     2.1139460     0.3806850
  H        0.8050420     2.3317560     0.2174670
units angstrom
no_reorient  #important for SAPT in psi4, default
symmetry c1  #important for SAPT in psi4, default
}

set PROPERTIES_ORIGIN ["COM"]
properties('MP2/aug-cc-pvtz', properties = ['dipole'])
--------------------------------------------------------------------------

    Molecular point group: c1
  Charge       = 0
  Multiplicity = 1
  Basis Set: AUG-CC-PVTZ
    Blend: AUG-CC-PVTZ
  Basis Set: (AUG-CC-PVTZ AUX)
    Blend: AUG-CC-PVTZ-JKFIT

    Orbital Energies [Eh]
    ---------------------

    Doubly Occupied:

       1A    -91.962020     2A    -11.268218     3A    -11.267343
       4A    -11.244278     5A    -11.240702     6A    -11.239167
       7A     -8.962560     8A     -6.643791     9A     -6.642858
      10A     -6.641986    11A     -1.143647    12A     -1.028046
      13A     -1.019065    14A     -0.860645    15A     -0.815626
      16A     -0.695452    17A     -0.677378    18A     -0.610675
      19A     -0.601207    20A     -0.581486    21A     -0.539057
      22A     -0.481102    23A     -0.463748    24A     -0.451145
      25A     -0.363489    26A     -0.297350

  @DF-RHF Final Energy:  -590.40450591840488

   => Energetics <=

    Nuclear Repulsion Energy =            272.5733513271126753
    One-Electron Energy =               -1350.4716344257458331
    Two-Electron Energy =                 487.4937771802282214
    Total Energy =                       -590.4045059184048796
  Basis Set: (AUG-CC-PVTZ AUX)
    Blend: AUG-CC-PVTZ-RI
    Molecular point group: c1

    Geometry (in Angstrom), charge = 0, multiplicity = 1:

       Center              X                  Y                   Z               Mass
    ------------   -----------------  -----------------  -----------------  -----------------
         S            1.360313028616     0.019742334428    -0.215083029045    31.972071174400
         C            0.302515028616    -1.302876665572     0.442150970955    12.000000000000
         C           -1.059065071384    -1.199295865572    -0.132254229045    12.000000000000
         C           -1.729196971384    -0.027086665572    -0.160025029045    12.000000000000
         C           -1.068831971384     1.219393334428     0.187038970955    12.000000000000
         C            0.279328028616     1.353035334428     0.123702970955    12.000000000000
         H            0.277755028616    -1.216130665572     1.535812970955     1.007825032230
         H            0.789522028616    -2.246064665572     0.183545970955     1.007825032230
         H           -1.561988971384    -2.120781665572    -0.485325029045     1.007825032230
         H           -2.755591971384     0.021210334428    -0.516792029045     1.007825032230
         H           -1.669743971384     2.101821334428     0.392392970955     1.007825032230
         H            0.763559028616     2.319631334428     0.229174970955     1.007825032230

  Basis Set: AUG-CC-PVTZ
    Blend: AUG-CC-PVTZ
  Basis Set: (AUG-CC-PVTZ AUX)
    Blend: AUG-CC-PVTZ-JKFIT
	 Reference Energy          =    -590.4045059184048796 [Eh]
	 Singles Energy            =      -0.0000000000000000 [Eh]
	 Same-Spin Energy          =      -0.2680517615665424 [Eh]
	 Opposite-Spin Energy      =      -0.8627993508240452 [Eh]
	 Correlation Energy        =      -1.1308511123905878 [Eh]
	 Total Energy              =    -591.5353570307954669 [Eh]

	 ================> DF-SCS-MP2 Energies <==================
	-----------------------------------------------------------
	 SCS Same-Spin Scale       =       0.3333333333333333 [-]
	 SCS Opposite-Spin Scale   =       1.2000000000000000 [-]
	 SCS Same-Spin Energy      =      -0.0893505871888475 [Eh]
	 SCS Opposite-Spin Energy  =      -1.0353592209888542 [Eh]
	 SCS Correlation Energy    =      -1.1247098081777018 [Eh]
	 SCS Total Energy          =    -591.5292157265826063 [Eh]
	-----------------------------------------------------------

  Dipole Moment: [D]
     X:    -0.8544      Y:    -0.3566      Z:     0.5021     Total:     1.0532

*** Psi4 exiting successfully. Buy a developer a beer!
