                               Psi4 1.3.2 release

  ==> Input File <==

--------------------------------------------------------------------------
#psi4
#
memory 32 gb

molecule  {
0 1
  S        1.4017960     0.0318670    -0.2267910
  C        0.3439980    -1.2907520     0.4304430
  C       -1.1582392    -1.2571749    -0.1937790
  C       -1.6877140    -0.0149620    -0.1717330
  C       -1.0273490     1.2315180     0.1753310
  C        0.3208110     1.3651600     0.1119950
  H        0.3192380    -1.2040060     1.5241050
  H        0.8310050    -2.2339400     0.1718380
  H       -1.5205060    -2.1086570    -0.4970330
  H       -2.7141090     0.0333350    -0.5285000
  H       -1.6282610     2.1139460     0.3806850
  H        0.8050420     2.3317560     0.2174670
units angstrom
no_reorient  #important for SAPT in psi4, default
symmetry c1  #important for SAPT in psi4, default
}

set PROPERTIES_ORIGIN ["COM"]
properties('MP2/aug-cc-pvtz', properties = ['dipole'])
--------------------------------------------------------------------------

    Molecular point group: c1
  Charge       = 0
  Multiplicity = 1
  Basis Set: AUG-CC-PVTZ
    Blend: AUG-CC-PVTZ
  Basis Set: (AUG-CC-PVTZ AUX)
    Blend: AUG-CC-PVTZ-JKFIT

    Orbital Energies [Eh]
    ---------------------

    Doubly Occupied:

       1A    -91.962718     2A    -11.271804     3A    -11.269910
       4A    -11.243938     5A    -11.243115     6A    -11.240543
       7A     -8.963001     8A     -6.644276     9A     -6.643270
      10A     -6.642464    11A     -1.133225    12A     -1.025457
      13A     -1.013027    14A     -0.856077    15A     -0.827865
      16A     -0.702667    17A     -0.687716    18A     -0.603953
      19A     -0.599929    20A     -0.589469    21A     -0.507798
      22A     -0.494516    23A     -0.461983    24A     -0.443674
      25A     -0.365723    26A     -0.300072

  @DF-RHF Final Energy:  -590.38493130531936

   => Energetics <=

    Nuclear Repulsion Energy =            270.1256615174771696
    One-Electron Energy =               -1345.5448020423461912
    Two-Electron Energy =                 485.0342092195494956
    Total Energy =                       -590.3849313053194692
  Basis Set: (AUG-CC-PVTZ AUX)
    Blend: AUG-CC-PVTZ-RI
    Molecular point group: c1

    Geometry (in Angstrom), charge = 0, multiplicity = 1:

       Center              X                  Y                   Z               Mass
    ------------   -----------------  -----------------  -----------------  -----------------
         S            1.377533004662     0.028312552619    -0.208984196475    31.972071174400
         C            0.319735004662    -1.294306447381     0.448249803525    12.000000000000
         C           -1.182502195338    -1.260729347381    -0.175972196475    12.000000000000
         C           -1.711976995338    -0.018516447381    -0.153926196475    12.000000000000
         C           -1.051611995338     1.227963552619     0.193137803525    12.000000000000
         C            0.296548004662     1.361605552619     0.129801803525    12.000000000000
         H            0.294975004662    -1.207560447381     1.541911803525     1.007825032230
         H            0.806742004662    -2.237494447381     0.189644803525     1.007825032230
         H           -1.544768995338    -2.112211447381    -0.479226196475     1.007825032230
         H           -2.738371995338     0.029780552619    -0.510693196475     1.007825032230
         H           -1.652523995338     2.110391552619     0.398491803525     1.007825032230
         H            0.780779004662     2.328201552619     0.235273803525     1.007825032230

  Basis Set: AUG-CC-PVTZ
    Blend: AUG-CC-PVTZ
  Basis Set: (AUG-CC-PVTZ AUX)
    Blend: AUG-CC-PVTZ-JKFIT
	 Reference Energy          =    -590.3849313053193555 [Eh]
	 Singles Energy            =      -0.0000000000000000 [Eh]
	 Same-Spin Energy          =      -0.2671325479861707 [Eh]
	 Opposite-Spin Energy      =      -0.8630491791257952 [Eh]
	 Correlation Energy        =      -1.1301817271119659 [Eh]
	 Total Energy              =    -591.5151130324313726 [Eh]

	 ================> DF-SCS-MP2 Energies <==================
	-----------------------------------------------------------
	 SCS Same-Spin Scale       =       0.3333333333333333 [-]
	 SCS Opposite-Spin Scale   =       1.2000000000000000 [-]
	 SCS Same-Spin Energy      =      -0.0890441826620569 [Eh]
	 SCS Opposite-Spin Energy  =      -1.0356590149509541 [Eh]
	 SCS Correlation Energy    =      -1.1247031976130111 [Eh]
	 SCS Total Energy          =    -591.5096345029323857 [Eh]
	-----------------------------------------------------------

  Dipole Moment: [D]
     X:    -0.8678      Y:    -0.3246      Z:     0.4490     Total:     1.0296

*** Psi4 exiting successfully. Buy a developer a beer!
