                               Psi4 1.3.2 release

  ==> Input File <==

--------------------------------------------------------------------------
#psi4
#
memory 32 gb

molecule  {
0 1
  S        1.4017960     0.0318670    -0.2267910
  C        0.3439980    -1.2907520     0.4304430
  C       -1.0366050    -1.1980160    -0.1526860
  C       -1.6877140    -0.0149620    -0.1717330
  C       -1.0273490     1.2315180     0.1753310
  C        0.3208110     1.3651600     0.1119950
  H        0.3192380    -1.2040060     1.5241050
  H        0.8310050    -2.2339400     0.1718380
  H       -1.5205060    -2.1086570    -0.4970330
  H       -2.9028357     0.0422155    -0.5941000
  H       -1.6282610     2.1139460     0.3806850
  H        0.8050420     2.3317560     0.2174670
units angstrom
no_reorient  #important for SAPT in psi4, default
symmetry c1  #important for SAPT in psi4, default
}

set PROPERTIES_ORIGIN ["COM"]
properties('MP2/aug-cc-pvtz', properties = ['dipole'])
--------------------------------------------------------------------------

    Molecular point group: c1
  Charge       = 0
  Multiplicity = 1
  Basis Set: AUG-CC-PVTZ
    Blend: AUG-CC-PVTZ
  Basis Set: (AUG-CC-PVTZ AUX)
    Blend: AUG-CC-PVTZ-JKFIT

    Orbital Energies [Eh]
    ---------------------

    Doubly Occupied:

       1A    -91.963225     2A    -11.270408     3A    -11.269683
       4A    -11.261315     5A    -11.245201     6A    -11.243394
       7A     -8.963732     8A     -6.644968     9A     -6.644025
      10A     -6.643160    11A     -1.142304    12A     -1.027976
      13A     -1.015510    14A     -0.857932    15A     -0.814086
      16A     -0.682202    17A     -0.673256    18A     -0.607021
      19A     -0.601638    20A     -0.583752    21A     -0.512459
      22A     -0.484903    23A     -0.464404    24A     -0.449301
      25A     -0.365194    26A     -0.299034

  @DF-RHF Final Energy:  -590.38355148090636

   => Energetics <=

    Nuclear Repulsion Energy =            271.3186403950243744
    One-Electron Energy =               -1347.9442151852326788
    Two-Electron Energy =                 486.2420233093018851
    Total Energy =                       -590.3835514809063625
  Basis Set: (AUG-CC-PVTZ AUX)
    Blend: AUG-CC-PVTZ-RI
    Molecular point group: c1

    Geometry (in Angstrom), charge = 0, multiplicity = 1:

       Center              X                  Y                   Z               Mass
    ------------   -----------------  -----------------  -----------------  -----------------
         S            1.364582386611     0.020978702718    -0.213340521114    31.972071174400
         C            0.306784386611    -1.301640297282     0.443893478886    12.000000000000
         C           -1.073818613389    -1.208904297282    -0.139235521114    12.000000000000
         C           -1.724927613389    -0.025850297282    -0.158282521114    12.000000000000
         C           -1.064562613389     1.220629702718     0.188781478886    12.000000000000
         C            0.283597386611     1.354271702718     0.125445478886    12.000000000000
         H            0.282024386611    -1.214894297282     1.537555478886     1.007825032230
         H            0.793791386611    -2.244828297282     0.185288478886     1.007825032230
         H           -1.557719613389    -2.119545297282    -0.483582521114     1.007825032230
         H           -2.940049313389     0.031327202718    -0.580649521114     1.007825032230
         H           -1.665474613389     2.103057702718     0.394135478886     1.007825032230
         H            0.767828386611     2.320867702718     0.230917478886     1.007825032230

  Basis Set: AUG-CC-PVTZ
    Blend: AUG-CC-PVTZ
  Basis Set: (AUG-CC-PVTZ AUX)
    Blend: AUG-CC-PVTZ-JKFIT
	 Reference Energy          =    -590.3835514809063625 [Eh]
	 Singles Energy            =      -0.0000000000000000 [Eh]
	 Same-Spin Energy          =      -0.2682117746662013 [Eh]
	 Opposite-Spin Energy      =      -0.8645594042780640 [Eh]
	 Correlation Energy        =      -1.1327711789442654 [Eh]
	 Total Energy              =    -591.5163226598506299 [Eh]

	 ================> DF-SCS-MP2 Energies <==================
	-----------------------------------------------------------
	 SCS Same-Spin Scale       =       0.3333333333333333 [-]
	 SCS Opposite-Spin Scale   =       1.2000000000000000 [-]
	 SCS Same-Spin Energy      =      -0.0894039248887338 [Eh]
	 SCS Opposite-Spin Energy  =      -1.0374712851336767 [Eh]
	 SCS Correlation Energy    =      -1.1268752100224104 [Eh]
	 SCS Total Energy          =    -591.5104266909287389 [Eh]
	-----------------------------------------------------------

  Dipole Moment: [D]
     X:    -0.7444      Y:    -0.3503      Z:     0.5216     Total:     0.9741

*** Psi4 exiting successfully. Buy a developer a beer!
