                               Psi4 1.3.2 release

  ==> Input File <==

--------------------------------------------------------------------------
#psi4
#
memory 32 gb

molecule  {
0 1
  S        1.4070328     0.0419993    -0.1972074
  C        0.3439980    -1.2907520     0.4304430
  C       -1.0366050    -1.1980160    -0.1526860
  C       -1.6877140    -0.0149620    -0.1717330
  C       -1.0273490     1.2315180     0.1753310
  C        0.3208110     1.3651600     0.1119950
  H        0.3192380    -1.2040060     1.5241050
  H        0.8310050    -2.2339400     0.1718380
  H       -1.5205060    -2.1086570    -0.4970330
  H       -2.7141090     0.0333350    -0.5285000
  H       -1.6282610     2.1139460     0.3806850
  H        0.8050420     2.3317560     0.2174670
units angstrom
no_reorient  #important for SAPT in psi4, default
symmetry c1  #important for SAPT in psi4, default
}

set PROPERTIES_ORIGIN ["COM"]
properties('MP2/aug-cc-pvtz', properties = ['dipole'])
--------------------------------------------------------------------------

    Molecular point group: c1
  Charge       = 0
  Multiplicity = 1
  Basis Set: AUG-CC-PVTZ
    Blend: AUG-CC-PVTZ
  Basis Set: (AUG-CC-PVTZ AUX)
    Blend: AUG-CC-PVTZ-JKFIT

    Orbital Energies [Eh]
    ---------------------

    Doubly Occupied:

       1A    -91.961929     2A    -11.268458     3A    -11.267891
       4A    -11.243251     5A    -11.240511     6A    -11.239466
       7A     -8.962670     8A     -6.643931     9A     -6.642966
      10A     -6.642109    11A     -1.142258    12A     -1.026946
      13A     -1.019835    14A     -0.860436    15A     -0.817215
      16A     -0.694341    17A     -0.679364    18A     -0.609146
      19A     -0.601071    20A     -0.583972    21A     -0.534899
      22A     -0.484457    23A     -0.463604    24A     -0.450962
      25A     -0.365703    26A     -0.296016

  @DF-RHF Final Energy:  -590.40549290593742

   => Energetics <=

    Nuclear Repulsion Energy =            272.3357420962148012
    One-Electron Energy =               -1349.9956584850167474
    Two-Electron Energy =                 487.2544234828645813
    Total Energy =                       -590.4054929059374217
  Basis Set: (AUG-CC-PVTZ AUX)
    Blend: AUG-CC-PVTZ-RI
    Molecular point group: c1

    Geometry (in Angstrom), charge = 0, multiplicity = 1:

       Center              X                  Y                   Z               Mass
    ------------   -----------------  -----------------  -----------------  -----------------
         S            1.366170559744     0.027897334369    -0.194081063029    31.972071174400
         C            0.303135759744    -1.304853965631     0.433569336971    12.000000000000
         C           -1.077467240256    -1.212117965631    -0.149559663029    12.000000000000
         C           -1.728576240256    -0.029063965631    -0.168606663029    12.000000000000
         C           -1.068211240256     1.217416034369     0.178457336971    12.000000000000
         C            0.279948759744     1.351058034369     0.115121336971    12.000000000000
         H            0.278375759744    -1.218107965631     1.527231336971     1.007825032230
         H            0.790142759744    -2.248041965631     0.174964336971     1.007825032230
         H           -1.561368240256    -2.122758965631    -0.493906663029     1.007825032230
         H           -2.754971240256     0.019233034369    -0.525373663029     1.007825032230
         H           -1.669123240256     2.099844034369     0.383811336971     1.007825032230
         H            0.764179759744     2.317654034369     0.220593336971     1.007825032230

  Basis Set: AUG-CC-PVTZ
    Blend: AUG-CC-PVTZ
  Basis Set: (AUG-CC-PVTZ AUX)
    Blend: AUG-CC-PVTZ-JKFIT
	 Reference Energy          =    -590.4054929059374217 [Eh]
	 Singles Energy            =      -0.0000000000000000 [Eh]
	 Same-Spin Energy          =      -0.2678600594487470 [Eh]
	 Opposite-Spin Energy      =      -0.8625227448133022 [Eh]
	 Correlation Energy        =      -1.1303828042620492 [Eh]
	 Total Energy              =    -591.5358757101994343 [Eh]

	 ================> DF-SCS-MP2 Energies <==================
	-----------------------------------------------------------
	 SCS Same-Spin Scale       =       0.3333333333333333 [-]
	 SCS Opposite-Spin Scale   =       1.2000000000000000 [-]
	 SCS Same-Spin Energy      =      -0.0892866864829157 [Eh]
	 SCS Opposite-Spin Energy  =      -1.0350272937759626 [Eh]
	 SCS Correlation Energy    =      -1.1243139802588782 [Eh]
	 SCS Total Energy          =    -591.5298068861962975 [Eh]
	-----------------------------------------------------------

  Dipole Moment: [D]
     X:    -0.8419      Y:    -0.3682      Z:     0.4910     Total:     1.0419

*** Psi4 exiting successfully. Buy a developer a beer!
