                               Psi4 1.3.2 release

  ==> Input File <==

--------------------------------------------------------------------------
#psi4
#
memory 32 gb

molecule  {
0 1
  S        1.4017960     0.0318670    -0.2267910
  C        0.3443871    -1.3163547     0.4248612
  C       -1.0366050    -1.1980160    -0.1526860
  C       -1.6877140    -0.0149620    -0.1717330
  C       -1.0273490     1.2315180     0.1753310
  C        0.3208110     1.3651600     0.1119950
  H        0.3192380    -1.2040060     1.5241050
  H        0.8310050    -2.2339400     0.1718380
  H       -1.5205060    -2.1086570    -0.4970330
  H       -2.7141090     0.0333350    -0.5285000
  H       -1.6282610     2.1139460     0.3806850
  H        0.8050420     2.3317560     0.2174670
units angstrom
no_reorient  #important for SAPT in psi4, default
symmetry c1  #important for SAPT in psi4, default
}

set PROPERTIES_ORIGIN ["COM"]
properties('MP2/aug-cc-pvtz', properties = ['dipole'])
--------------------------------------------------------------------------

    Molecular point group: c1
  Charge       = 0
  Multiplicity = 1
  Basis Set: AUG-CC-PVTZ
    Blend: AUG-CC-PVTZ
  Basis Set: (AUG-CC-PVTZ AUX)
    Blend: AUG-CC-PVTZ-JKFIT

    Orbital Energies [Eh]
    ---------------------

    Doubly Occupied:

       1A    -91.961699     2A    -11.268900     3A    -11.268190
       4A    -11.243926     5A    -11.240926     6A    -11.239746
       7A     -8.962020     8A     -6.643238     9A     -6.642316
      10A     -6.641463    11A     -1.140469    12A     -1.027089
      13A     -1.017681    14A     -0.861368    15A     -0.816672
      16A     -0.695239    17A     -0.679331    18A     -0.612186
      19A     -0.599764    20A     -0.583250    21A     -0.536571
      22A     -0.483701    23A     -0.462314    24A     -0.450206
      25A     -0.363503    26A     -0.297056

  @DF-RHF Final Energy:  -590.40516172805565

   => Energetics <=

    Nuclear Repulsion Energy =            271.8370104888061292
    One-Electron Energy =               -1349.0067005503403834
    Two-Electron Energy =                 486.7645283334786654
    Total Energy =                       -590.4051617280556457
  Basis Set: (AUG-CC-PVTZ AUX)
    Blend: AUG-CC-PVTZ-RI
    Molecular point group: c1

    Geometry (in Angstrom), charge = 0, multiplicity = 1:

       Center              X                  Y                   Z               Mass
    ------------   -----------------  -----------------  -----------------  -----------------
         S            1.362594275632     0.024204427539    -0.213331662855    31.972071174400
         C            0.305185375632    -1.324017272461     0.438320537145    12.000000000000
         C           -1.075806724368    -1.205678572461    -0.139226662855    12.000000000000
         C           -1.726915724368    -0.022624572461    -0.158273662855    12.000000000000
         C           -1.066550724368     1.223855427539     0.188790337145    12.000000000000
         C            0.281609275632     1.357497427539     0.125454337145    12.000000000000
         H            0.280036275632    -1.211668572461     1.537564337145     1.007825032230
         H            0.791803275632    -2.241602572461     0.185297337145     1.007825032230
         H           -1.559707724368    -2.116319572461    -0.483573662855     1.007825032230
         H           -2.753310724368     0.025672427539    -0.515040662855     1.007825032230
         H           -1.667462724368     2.106283427539     0.394144337145     1.007825032230
         H            0.765840275632     2.324093427539     0.230926337145     1.007825032230

  Basis Set: AUG-CC-PVTZ
    Blend: AUG-CC-PVTZ
  Basis Set: (AUG-CC-PVTZ AUX)
    Blend: AUG-CC-PVTZ-JKFIT
	 Reference Energy          =    -590.4051617280556457 [Eh]
	 Singles Energy            =      -0.0000000000000000 [Eh]
	 Same-Spin Energy          =      -0.2676640553001816 [Eh]
	 Opposite-Spin Energy      =      -0.8624575889479790 [Eh]
	 Correlation Energy        =      -1.1301216442481605 [Eh]
	 Total Energy              =    -591.5352833723037520 [Eh]

	 ================> DF-SCS-MP2 Energies <==================
	-----------------------------------------------------------
	 SCS Same-Spin Scale       =       0.3333333333333333 [-]
	 SCS Opposite-Spin Scale   =       1.2000000000000000 [-]
	 SCS Same-Spin Energy      =      -0.0892213517667272 [Eh]
	 SCS Opposite-Spin Energy  =      -1.0349491067375747 [Eh]
	 SCS Correlation Energy    =      -1.1241704585043020 [Eh]
	 SCS Total Energy          =    -591.5293321865599410 [Eh]
	-----------------------------------------------------------

  Dipole Moment: [D]
     X:    -0.8658      Y:    -0.3775      Z:     0.5020     Total:     1.0696

*** Psi4 exiting successfully. Buy a developer a beer!
