                               Psi4 1.4a3.dev225

  ==> Input File <==

--------------------------------------------------------------------------
#psi4
#
memory 32 gb

molecule  {
0 1
  S        1.4017960     0.0318670    -0.2267910
  C        0.3439980    -1.2907520     0.4304430
  C       -1.0366050    -1.1980160    -0.1526860
  C       -1.6877140    -0.0149620    -0.1717330
  C       -1.0273490     1.2315180     0.1753310
  C        0.3331682     1.3499186     0.1081222
  H        0.3192380    -1.2040060     1.5241050
  H        0.8310050    -2.2339400     0.1718380
  H       -1.5205060    -2.1086570    -0.4970330
  H       -2.7141090     0.0333350    -0.5285000
  H       -1.6282610     2.1139460     0.3806850
  H        0.8050420     2.3317560     0.2174670
units angstrom
no_reorient  #important for SAPT in psi4, default
symmetry c1  #important for SAPT in psi4, default
}

set PROPERTIES_ORIGIN ["COM"]
properties('MP2/aug-cc-pvtz', properties = ['dipole'])
--------------------------------------------------------------------------

    Molecular point group: c1
  Charge       = 0
  Multiplicity = 1
  Basis Set: AUG-CC-PVTZ
    Blend: AUG-CC-PVTZ
  Basis Set: (AUG-CC-PVTZ AUX)
    Blend: AUG-CC-PVTZ-JKFIT

    Orbital Energies [Eh]
    ---------------------

    Doubly Occupied:

       1A    -91.963033     2A    -11.269854     3A    -11.268148
       4A    -11.242714     5A    -11.241554     6A    -11.239046
       7A     -8.963874     8A     -6.645150     9A     -6.644164
      10A     -6.643309    11A     -1.142352    12A     -1.025517
      13A     -1.020289    14A     -0.860620    15A     -0.815868
      16A     -0.692730    17A     -0.679902    18A     -0.608161
      19A     -0.599079    20A     -0.583891    21A     -0.534862
      22A     -0.485632    23A     -0.465637    24A     -0.449920
      25A     -0.364982    26A     -0.295218

  @DF-RHF Final Energy:  -590.40420480529167

   => Energetics <=

    Nuclear Repulsion Energy =            272.4539586010484413
    One-Electron Energy =               -1350.2253173331823746
    Two-Electron Energy =                 487.3671539268422066
    Total Energy =                       -590.4042048052916698
  Basis Set: (AUG-CC-PVTZ AUX)
    Blend: AUG-CC-PVTZ-RI
    Molecular point group: c1

    Geometry (in Angstrom), charge = 0, multiplicity = 1:

       Center              X                  Y                   Z               Mass
    ------------   -----------------  -----------------  -----------------  -----------------
         S            1.361129078388     0.022935943134    -0.213540887552    31.972071174400
         C            0.303331078388    -1.299683056866     0.443693112448    12.000000000000
         C           -1.077271921612    -1.206947056866    -0.139435887552    12.000000000000
         C           -1.728380921612    -0.023893056866    -0.158482887552    12.000000000000
         C           -1.068015921612     1.222586943134     0.188581112448    12.000000000000
         C            0.292501278388     1.340987543134     0.121372312448    12.000000000000
         H            0.278571078388    -1.212937056866     1.537355112448     1.007825032230
         H            0.790338078388    -2.242871056866     0.185088112448     1.007825032230
         H           -1.561172921612    -2.117588056866    -0.483782887552     1.007825032230
         H           -2.754775921612     0.024403943134    -0.515249887552     1.007825032230
         H           -1.668927921612     2.105014943134     0.393935112448     1.007825032230
         H            0.764375078388     2.322824943134     0.230717112448     1.007825032230

  Basis Set: AUG-CC-PVTZ
    Blend: AUG-CC-PVTZ
  Basis Set: (AUG-CC-PVTZ AUX)
    Blend: AUG-CC-PVTZ-JKFIT
	 Reference Energy          =    -590.4042048052916698 [Eh]
	 Singles Energy            =      -0.0000000000000000 [Eh]
	 Same-Spin Energy          =      -0.2682533651293183 [Eh]
	 Opposite-Spin Energy      =      -0.8630563754695910 [Eh]
	 Correlation Energy        =      -1.1313097405989092 [Eh]
	 Total Energy              =    -591.5355145458905781 [Eh]

	 ================> DF-SCS-MP2 Energies <==================
	-----------------------------------------------------------
	 SCS Same-Spin Scale       =       0.3333333333333333 [-]
	 SCS Opposite-Spin Scale   =       1.2000000000000000 [-]
	 SCS Same-Spin Energy      =      -0.0894177883764394 [Eh]
	 SCS Opposite-Spin Energy  =      -1.0356676505635092 [Eh]
	 SCS Correlation Energy    =      -1.1250854389399485 [Eh]
	 SCS Total Energy          =    -591.5292902442316745 [Eh]
	-----------------------------------------------------------

  Dipole Moment: [D]
     X:    -0.8037      Y:    -0.3764      Z:     0.4903     Total:     1.0139

*** Psi4 exiting successfully. Buy a developer a beer!
