                               Psi4 1.3.2 release

  ==> Input File <==

--------------------------------------------------------------------------
#psi4
#
memory 32 gb

molecule  {
0 1
  S        1.4017960     0.0318670    -0.2267910
  C        0.3439980    -1.2907520     0.4304430
  C       -1.0366050    -1.1980160    -0.1526860
  C       -1.7762870     0.0335286    -0.1625463
  C       -1.0273490     1.2315180     0.1753310
  C        0.3208110     1.3651600     0.1119950
  H        0.3192380    -1.2040060     1.5241050
  H        0.8310050    -2.2339400     0.1718380
  H       -1.5205060    -2.1086570    -0.4970330
  H       -2.7141090     0.0333350    -0.5285000
  H       -1.6282610     2.1139460     0.3806850
  H        0.8050420     2.3317560     0.2174670
units angstrom
no_reorient  #important for SAPT in psi4, default
symmetry c1  #important for SAPT in psi4, default
}

set PROPERTIES_ORIGIN ["COM"]
properties('MP2/aug-cc-pvtz', properties = ['dipole'])
--------------------------------------------------------------------------

    Molecular point group: c1
  Charge       = 0
  Multiplicity = 1
  Basis Set: AUG-CC-PVTZ
    Blend: AUG-CC-PVTZ
  Basis Set: (AUG-CC-PVTZ AUX)
    Blend: AUG-CC-PVTZ-JKFIT

    Orbital Energies [Eh]
    ---------------------

    Doubly Occupied:

       1A    -91.962967     2A    -11.270781     3A    -11.268841
       4A    -11.257756     5A    -11.244703     6A    -11.242354
       7A     -8.963409     8A     -6.644637     9A     -6.643703
      10A     -6.642837    11A     -1.135373    12A     -1.025506
      13A     -1.014398    14A     -0.859424    15A     -0.819746
      16A     -0.708171    17A     -0.677103    18A     -0.613670
      19A     -0.595636    20A     -0.573006    21A     -0.555789
      22A     -0.479151    23A     -0.462785    24A     -0.447879
      25A     -0.358373    26A     -0.290984

  @DF-RHF Final Energy:  -590.38776043076166

   => Energetics <=

    Nuclear Repulsion Energy =            270.6349876222400326
    One-Electron Energy =               -1346.5275248866271340
    Two-Electron Energy =                 485.5047768336254421
    Total Energy =                       -590.3877604307616593
  Basis Set: (AUG-CC-PVTZ AUX)
    Blend: AUG-CC-PVTZ-RI
    Molecular point group: c1

    Geometry (in Angstrom), charge = 0, multiplicity = 1:

       Center              X                  Y                   Z               Mass
    ------------   -----------------  -----------------  -----------------  -----------------
         S            1.373485480065     0.015133539179    -0.215139699678    31.972071174400
         C            0.315687480065    -1.307485460821     0.442094300322    12.000000000000
         C           -1.064915519935    -1.214749460821    -0.141034699678    12.000000000000
         C           -1.804597519935     0.016795139179    -0.150894999678    12.000000000000
         C           -1.055659519935     1.214784539179     0.186982300322    12.000000000000
         C            0.292500480065     1.348426539179     0.123646300322    12.000000000000
         H            0.290927480065    -1.220739460821     1.535756300322     1.007825032230
         H            0.802694480065    -2.250673460821     0.183489300322     1.007825032230
         H           -1.548816519935    -2.125390460821    -0.485381699678     1.007825032230
         H           -2.742419519935     0.016601539179    -0.516848699678     1.007825032230
         H           -1.656571519935     2.097212539179     0.392336300322     1.007825032230
         H            0.776731480065     2.315022539179     0.229118300322     1.007825032230

  Basis Set: AUG-CC-PVTZ
    Blend: AUG-CC-PVTZ
  Basis Set: (AUG-CC-PVTZ AUX)
    Blend: AUG-CC-PVTZ-JKFIT
	 Reference Energy          =    -590.3877604307616593 [Eh]
	 Singles Energy            =      -0.0000000000000000 [Eh]
	 Same-Spin Energy          =      -0.2690938443772454 [Eh]
	 Opposite-Spin Energy      =      -0.8655853402500204 [Eh]
	 Correlation Energy        =      -1.1346791846272657 [Eh]
	 Total Energy              =    -591.5224396153889757 [Eh]

	 ================> DF-SCS-MP2 Energies <==================
	-----------------------------------------------------------
	 SCS Same-Spin Scale       =       0.3333333333333333 [-]
	 SCS Opposite-Spin Scale   =       1.2000000000000000 [-]
	 SCS Same-Spin Energy      =      -0.0896979481257485 [Eh]
	 SCS Opposite-Spin Energy  =      -1.0387024083000245 [Eh]
	 SCS Correlation Energy    =      -1.1284003564257730 [Eh]
	 SCS Total Energy          =    -591.5161607871874594 [Eh]
	-----------------------------------------------------------

  Dipole Moment: [D]
     X:    -0.8222      Y:    -0.3661      Z:     0.4726     Total:     1.0165

*** Psi4 exiting successfully. Buy a developer a beer!
