                               Psi4 1.3.2 release

  ==> Input File <==

--------------------------------------------------------------------------
#psi4
#
memory 32 gb

molecule  {
0 1
  S        1.4254106     0.0512170    -0.2262182
  C        0.3439980    -1.2907520     0.4304430
  C       -1.0366050    -1.1980160    -0.1526860
  C       -1.6877140    -0.0149620    -0.1717330
  C       -1.0273490     1.2315180     0.1753310
  C        0.3208110     1.3651600     0.1119950
  H        0.3192380    -1.2040060     1.5241050
  H        0.8310050    -2.2339400     0.1718380
  H       -1.5205060    -2.1086570    -0.4970330
  H       -2.7141090     0.0333350    -0.5285000
  H       -1.6282610     2.1139460     0.3806850
  H        0.8050420     2.3317560     0.2174670
units angstrom
no_reorient  #important for SAPT in psi4, default
symmetry c1  #important for SAPT in psi4, default
}

set PROPERTIES_ORIGIN ["COM"]
properties('MP2/aug-cc-pvtz', properties = ['dipole'])
--------------------------------------------------------------------------

    Molecular point group: c1
  Charge       = 0
  Multiplicity = 1
  Basis Set: AUG-CC-PVTZ
    Blend: AUG-CC-PVTZ
  Basis Set: (AUG-CC-PVTZ AUX)
    Blend: AUG-CC-PVTZ-JKFIT

    Orbital Energies [Eh]
    ---------------------

    Doubly Occupied:

       1A    -91.963395     2A    -11.269899     3A    -11.269026
       4A    -11.243433     5A    -11.240961     6A    -11.239630
       7A     -8.963434     8A     -6.644642     9A     -6.643670
      10A     -6.642843    11A     -1.139403    12A     -1.026223
      13A     -1.016308    14A     -0.861117    15A     -0.815829
      16A     -0.693585    17A     -0.680149    18A     -0.608782
      19A     -0.599193    20A     -0.581905    21A     -0.533520
      22A     -0.480975    23A     -0.464438    24A     -0.451011
      25A     -0.365186    26A     -0.297287

  @DF-RHF Final Energy:  -590.40491483284484

   => Energetics <=

    Nuclear Repulsion Energy =            271.2902516781426243
    One-Electron Energy =               -1347.9186454531636628
    Two-Electron Energy =                 486.2234789421762571
    Total Energy =                       -590.4049148328448382
  Basis Set: (AUG-CC-PVTZ AUX)
    Blend: AUG-CC-PVTZ-RI
    Molecular point group: c1

    Geometry (in Angstrom), charge = 0, multiplicity = 1:

       Center              X                  Y                   Z               Mass
    ------------   -----------------  -----------------  -----------------  -----------------
         S            1.378553846420     0.034108383656    -0.213629053163    31.972071174400
         C            0.297141246420    -1.307860616344     0.443032146837    12.000000000000
         C           -1.083461753580    -1.215124616344    -0.140096853163    12.000000000000
         C           -1.734570753580    -0.032070616344    -0.159143853163    12.000000000000
         C           -1.074205753580     1.214409383656     0.187920146837    12.000000000000
         C            0.273954246420     1.348051383656     0.124584146837    12.000000000000
         H            0.272381246420    -1.221114616344     1.536694146837     1.007825032230
         H            0.784148246420    -2.251048616344     0.184427146837     1.007825032230
         H           -1.567362753580    -2.125765616344    -0.484443853163     1.007825032230
         H           -2.760965753580     0.016226383656    -0.515910853163     1.007825032230
         H           -1.675117753580     2.096837383656     0.393274146837     1.007825032230
         H            0.758185246420     2.314647383656     0.230056146837     1.007825032230

  Basis Set: AUG-CC-PVTZ
    Blend: AUG-CC-PVTZ
  Basis Set: (AUG-CC-PVTZ AUX)
    Blend: AUG-CC-PVTZ-JKFIT
	 Reference Energy          =    -590.4049148328448382 [Eh]
	 Singles Energy            =      -0.0000000000000000 [Eh]
	 Same-Spin Energy          =      -0.2676105283299029 [Eh]
	 Opposite-Spin Energy      =      -0.8627344838219069 [Eh]
	 Correlation Energy        =      -1.1303450121518097 [Eh]
	 Total Energy              =    -591.5352598449966308 [Eh]

	 ================> DF-SCS-MP2 Energies <==================
	-----------------------------------------------------------
	 SCS Same-Spin Scale       =       0.3333333333333333 [-]
	 SCS Opposite-Spin Scale   =       1.2000000000000000 [-]
	 SCS Same-Spin Energy      =      -0.0892035094433010 [Eh]
	 SCS Opposite-Spin Energy  =      -1.0352813805862882 [Eh]
	 SCS Correlation Energy    =      -1.1244848900295892 [Eh]
	 SCS Total Energy          =    -591.5293997228744729 [Eh]
	-----------------------------------------------------------

  Dipole Moment: [D]
     X:    -0.8600      Y:    -0.3661      Z:     0.4910     Total:     1.0558

*** Psi4 exiting successfully. Buy a developer a beer!
