                               Psi4 1.3.2 release

  ==> Input File <==

--------------------------------------------------------------------------
#psi4
#
memory 32 gb

molecule  {
0 1
  S        1.2509255     0.0887806    -0.3275718
  C        0.3439980    -1.2907520     0.4304430
  C       -1.0366050    -1.1980160    -0.1526860
  C       -1.6877140    -0.0149620    -0.1717330
  C       -1.0273490     1.2315180     0.1753310
  C        0.3208110     1.3651600     0.1119950
  H        0.3192380    -1.2040060     1.5241050
  H        0.8310050    -2.2339400     0.1718380
  H       -1.5205060    -2.1086570    -0.4970330
  H       -2.7141090     0.0333350    -0.5285000
  H       -1.6282610     2.1139460     0.3806850
  H        0.8050420     2.3317560     0.2174670
units angstrom
no_reorient  #important for SAPT in psi4, default
symmetry c1  #important for SAPT in psi4, default
}

set PROPERTIES_ORIGIN ["COM"]
properties('MP2/aug-cc-pvtz', properties = ['dipole'])
--------------------------------------------------------------------------

    Molecular point group: c1
  Charge       = 0
  Multiplicity = 1
  Basis Set: AUG-CC-PVTZ
    Blend: AUG-CC-PVTZ
  Basis Set: (AUG-CC-PVTZ AUX)
    Blend: AUG-CC-PVTZ-JKFIT

    Orbital Energies [Eh]
    ---------------------

    Doubly Occupied:

       1A    -91.956093     2A    -11.268778     3A    -11.258354
       4A    -11.243587     5A    -11.237398     6A    -11.236440
       7A     -8.959607     8A     -6.641117     9A     -6.639980
      10A     -6.639055    11A     -1.155940    12A     -1.037545
      13A     -1.017923    14A     -0.866306    15A     -0.812254
      16A     -0.699403    17A     -0.679011    18A     -0.608349
      19A     -0.600738    20A     -0.592276    21A     -0.537258
      22A     -0.495459    23A     -0.473306    24A     -0.445240
      25A     -0.354795    26A     -0.294801

  @DF-RHF Final Energy:  -590.39409146552498

   => Energetics <=

    Nuclear Repulsion Energy =            276.8976303197341053
    One-Electron Energy =               -1359.0814176129811131
    Two-Electron Energy =                 491.7896958277219710
    Total Energy =                       -590.3940914655249799
  Basis Set: (AUG-CC-PVTZ AUX)
    Blend: AUG-CC-PVTZ-RI
    Molecular point group: c1

    Geometry (in Angstrom), charge = 0, multiplicity = 1:

       Center              X                  Y                   Z               Mass
    ------------   -----------------  -----------------  -----------------  -----------------
         S            1.260982700040     0.059419401698    -0.281922901415    31.972071174400
         C            0.354055200040    -1.320113198302     0.476091898585    12.000000000000
         C           -1.026547799960    -1.227377198302    -0.107037101415    12.000000000000
         C           -1.677656799960    -0.044323198302    -0.126084101415    12.000000000000
         C           -1.017291799960     1.202156801698     0.220979898585    12.000000000000
         C            0.330868200040     1.335798801698     0.157643898585    12.000000000000
         H            0.329295200040    -1.233367198302     1.569753898585     1.007825032230
         H            0.841062200040    -2.263301198302     0.217486898585     1.007825032230
         H           -1.510448799960    -2.138018198302    -0.451384101415     1.007825032230
         H           -2.704051799960     0.003973801698    -0.482851101415     1.007825032230
         H           -1.618203799960     2.084584801698     0.426333898585     1.007825032230
         H            0.815099200040     2.302394801698     0.263115898585     1.007825032230

  Basis Set: AUG-CC-PVTZ
    Blend: AUG-CC-PVTZ
  Basis Set: (AUG-CC-PVTZ AUX)
    Blend: AUG-CC-PVTZ-JKFIT
	 Reference Energy          =    -590.3940914655249799 [Eh]
	 Singles Energy            =      -0.0000000000000000 [Eh]
	 Same-Spin Energy          =      -0.2700037918206579 [Eh]
	 Opposite-Spin Energy      =      -0.8633755081070158 [Eh]
	 Correlation Energy        =      -1.1333792999276737 [Eh]
	 Total Energy              =    -591.5274707654526765 [Eh]

	 ================> DF-SCS-MP2 Energies <==================
	-----------------------------------------------------------
	 SCS Same-Spin Scale       =       0.3333333333333333 [-]
	 SCS Opposite-Spin Scale   =       1.2000000000000000 [-]
	 SCS Same-Spin Energy      =      -0.0900012639402193 [Eh]
	 SCS Opposite-Spin Energy  =      -1.0360506097284190 [Eh]
	 SCS Correlation Energy    =      -1.1260518736686382 [Eh]
	 SCS Total Energy          =    -591.5201433391936234 [Eh]
	-----------------------------------------------------------

  Dipole Moment: [D]
     X:    -0.6894      Y:    -0.4204      Z:     0.5200     Total:     0.9604

*** Psi4 exiting successfully. Buy a developer a beer!
