                               Psi4 1.3.2 release

  ==> Input File <==

--------------------------------------------------------------------------
#psi4
#
memory 32 gb

molecule  {
0 1
  S        1.4017960     0.0318670    -0.2267910
  C        0.3438862    -1.2648222     0.4342426
  C       -1.0366050    -1.1980160    -0.1526860
  C       -1.6877140    -0.0149620    -0.1717330
  C       -1.0273490     1.2315180     0.1753310
  C        0.3208110     1.3651600     0.1119950
  H        0.3192380    -1.2040060     1.5241050
  H        0.8310050    -2.2339400     0.1718380
  H       -1.5205060    -2.1086570    -0.4970330
  H       -2.7141090     0.0333350    -0.5285000
  H       -1.6282610     2.1139460     0.3806850
  H        0.8050420     2.3317560     0.2174670
units angstrom
no_reorient  #important for SAPT in psi4, default
symmetry c1  #important for SAPT in psi4, default
}

set PROPERTIES_ORIGIN ["COM"]
properties('MP2/aug-cc-pvtz', properties = ['dipole'])
--------------------------------------------------------------------------

    Molecular point group: c1
  Charge       = 0
  Multiplicity = 1
  Basis Set: AUG-CC-PVTZ
    Blend: AUG-CC-PVTZ
  Basis Set: (AUG-CC-PVTZ AUX)
    Blend: AUG-CC-PVTZ-JKFIT

    Orbital Energies [Eh]
    ---------------------

    Doubly Occupied:

       1A    -91.962400     2A    -11.268507     3A    -11.267709
       4A    -11.243162     5A    -11.241212     6A    -11.239068
       7A     -8.963111     8A     -6.644372     9A     -6.643403
      10A     -6.642531    11A     -1.143107    12A     -1.025807
      13A     -1.020486    14A     -0.858001    15A     -0.817597
      16A     -0.693464    17A     -0.680946    18A     -0.606610
      19A     -0.599220    20A     -0.584900    21A     -0.533207
      22A     -0.484499    23A     -0.463465    24A     -0.450855
      25A     -0.364403    26A     -0.298291

  @DF-RHF Final Energy:  -590.40444354417696

   => Energetics <=

    Nuclear Repulsion Energy =            272.5925247582505335
    One-Electron Energy =               -1350.5132715337040281
    Two-Electron Energy =                 487.5163032312767086
    Total Energy =                       -590.4044435441769565
  Basis Set: (AUG-CC-PVTZ AUX)
    Blend: AUG-CC-PVTZ-RI
    Molecular point group: c1

    Geometry (in Angstrom), charge = 0, multiplicity = 1:

       Center              X                  Y                   Z               Mass
    ------------   -----------------  -----------------  -----------------  -----------------
         S            1.362655598423     0.017895550024    -0.214480182790    31.972071174400
         C            0.304745798423    -1.278793649976     0.446553417210    12.000000000000
         C           -1.075745401577    -1.211987449976    -0.140375182790    12.000000000000
         C           -1.726854401577    -0.028933449976    -0.159422182790    12.000000000000
         C           -1.066489401577     1.217546550024     0.187641817210    12.000000000000
         C            0.281670598423     1.351188550024     0.124305817210    12.000000000000
         H            0.280097598423    -1.217977449976     1.536415817210     1.007825032230
         H            0.791864598423    -2.247911449976     0.184148817210     1.007825032230
         H           -1.559646401577    -2.122628449976    -0.484722182790     1.007825032230
         H           -2.753249401577     0.019363550024    -0.516189182790     1.007825032230
         H           -1.667401401577     2.099974550024     0.392995817210     1.007825032230
         H            0.765901598423     2.317784550024     0.229777817210     1.007825032230

  Basis Set: AUG-CC-PVTZ
    Blend: AUG-CC-PVTZ
  Basis Set: (AUG-CC-PVTZ AUX)
    Blend: AUG-CC-PVTZ-JKFIT
	 Reference Energy          =    -590.4044435441769565 [Eh]
	 Singles Energy            =      -0.0000000000000000 [Eh]
	 Same-Spin Energy          =      -0.2679835133526330 [Eh]
	 Opposite-Spin Energy      =      -0.8628272859660424 [Eh]
	 Correlation Energy        =      -1.1308107993186753 [Eh]
	 Total Energy              =    -591.5352543434955805 [Eh]

	 ================> DF-SCS-MP2 Energies <==================
	-----------------------------------------------------------
	 SCS Same-Spin Scale       =       0.3333333333333333 [-]
	 SCS Opposite-Spin Scale   =       1.2000000000000000 [-]
	 SCS Same-Spin Energy      =      -0.0893278377842110 [Eh]
	 SCS Opposite-Spin Energy  =      -1.0353927431592509 [Eh]
	 SCS Correlation Energy    =      -1.1247205809434619 [Eh]
	 SCS Total Energy          =    -591.5291641251204737 [Eh]
	-----------------------------------------------------------

  Dipole Moment: [D]
     X:    -0.8534      Y:    -0.3354      Z:     0.4871     Total:     1.0383

*** Psi4 exiting successfully. Buy a developer a beer!
