                               Psi4 1.3.2 release

  ==> Input File <==

--------------------------------------------------------------------------
#psi4
#
memory 32 gb

molecule  {
0 1
  S        1.3903575     0.0103969    -0.2853486
  C        0.3439980    -1.2907520     0.4304430
  C       -1.0366050    -1.1980160    -0.1526860
  C       -1.6877140    -0.0149620    -0.1717330
  C       -1.0273490     1.2315180     0.1753310
  C        0.3208110     1.3651600     0.1119950
  H        0.3192380    -1.2040060     1.5241050
  H        0.8310050    -2.2339400     0.1718380
  H       -1.5205060    -2.1086570    -0.4970330
  H       -2.7141090     0.0333350    -0.5285000
  H       -1.6282610     2.1139460     0.3806850
  H        0.8050420     2.3317560     0.2174670
units angstrom
no_reorient  #important for SAPT in psi4, default
symmetry c1  #important for SAPT in psi4, default
}

set PROPERTIES_ORIGIN ["COM"]
properties('MP2/aug-cc-pvtz', properties = ['dipole'])
--------------------------------------------------------------------------

    Molecular point group: c1
  Charge       = 0
  Multiplicity = 1
  Basis Set: AUG-CC-PVTZ
    Blend: AUG-CC-PVTZ
  Basis Set: (AUG-CC-PVTZ AUX)
    Blend: AUG-CC-PVTZ-JKFIT

    Orbital Energies [Eh]
    ---------------------

    Doubly Occupied:

       1A    -91.962364     2A    -11.269268     3A    -11.267719
       4A    -11.244017     5A    -11.242224     6A    -11.239110
       7A     -8.962382     8A     -6.643576     9A     -6.642665
      10A     -6.641798    11A     -1.140606    12A     -1.025928
      13A     -1.016603    14A     -0.858020    15A     -0.816813
      16A     -0.693936    17A     -0.681867    18A     -0.608513
      19A     -0.597383    20A     -0.584240    21A     -0.534844
      22A     -0.482569    23A     -0.462258    24A     -0.450105
      25A     -0.360251    26A     -0.301126

  @DF-RHF Final Energy:  -590.40469402783140

   => Energetics <=

    Nuclear Repulsion Energy =            271.9209762676291575
    One-Electron Energy =               -1349.1909710618797362
    Two-Electron Energy =                 486.8653007664191819
    Total Energy =                       -590.4046940278313969
  Basis Set: (AUG-CC-PVTZ AUX)
    Blend: AUG-CC-PVTZ-RI
    Molecular point group: c1

    Geometry (in Angstrom), charge = 0, multiplicity = 1:

       Center              X                  Y                   Z               Mass
    ------------   -----------------  -----------------  -----------------  -----------------
         S            1.354934447679     0.006603078319    -0.253472162482    31.972071174400
         C            0.308574947679    -1.294545821681     0.462319437518    12.000000000000
         C           -1.072028052321    -1.201809821681    -0.120809562482    12.000000000000
         C           -1.723137052321    -0.018755821681    -0.139856562482    12.000000000000
         C           -1.062772052321     1.227724178319     0.207207437518    12.000000000000
         C            0.285387947679     1.361366178319     0.143871437518    12.000000000000
         H            0.283814947679    -1.207799821681     1.555981437518     1.007825032230
         H            0.795581947679    -2.237733821681     0.203714437518     1.007825032230
         H           -1.555929052321    -2.112450821681    -0.465156562482     1.007825032230
         H           -2.749532052321     0.029541178319    -0.496623562482     1.007825032230
         H           -1.663684052321     2.110152178319     0.412561437518     1.007825032230
         H            0.769618947679     2.327962178319     0.249343437518     1.007825032230

  Basis Set: AUG-CC-PVTZ
    Blend: AUG-CC-PVTZ
  Basis Set: (AUG-CC-PVTZ AUX)
    Blend: AUG-CC-PVTZ-JKFIT
	 Reference Energy          =    -590.4046940278313969 [Eh]
	 Singles Energy            =      -0.0000000000000000 [Eh]
	 Same-Spin Energy          =      -0.2677065003349932 [Eh]
	 Opposite-Spin Energy      =      -0.8628228373010419 [Eh]
	 Correlation Energy        =      -1.1305293376360352 [Eh]
	 Total Energy              =    -591.5352233654674592 [Eh]

	 ================> DF-SCS-MP2 Energies <==================
	-----------------------------------------------------------
	 SCS Same-Spin Scale       =       0.3333333333333333 [-]
	 SCS Opposite-Spin Scale   =       1.2000000000000000 [-]
	 SCS Same-Spin Energy      =      -0.0892355001116644 [Eh]
	 SCS Opposite-Spin Energy  =      -1.0353874047612504 [Eh]
	 SCS Correlation Energy    =      -1.1246229048729148 [Eh]
	 SCS Total Energy          =    -591.5293169327043188 [Eh]
	-----------------------------------------------------------

  Dipole Moment: [D]
     X:    -0.8945      Y:    -0.3347      Z:     0.5055     Total:     1.0806

*** Psi4 exiting successfully. Buy a developer a beer!
