                               Psi4 1.3.2 release

  ==> Input File <==

--------------------------------------------------------------------------
#psi4
#
memory 32 gb

molecule  {
0 1
  S        1.4017960     0.0318670    -0.2267910
  C        0.3439980    -1.2907520     0.4304430
  C       -1.0366050    -1.1980160    -0.1526860
  C       -1.6492087     0.0055777    -0.1539109
  C       -1.0273490     1.2315180     0.1753310
  C        0.3208110     1.3651600     0.1119950
  H        0.3192380    -1.2040060     1.5241050
  H        0.8310050    -2.2339400     0.1718380
  H       -1.5205060    -2.1086570    -0.4970330
  H       -2.7141090     0.0333350    -0.5285000
  H       -1.6282610     2.1139460     0.3806850
  H        0.8050420     2.3317560     0.2174670
units angstrom
no_reorient  #important for SAPT in psi4, default
symmetry c1  #important for SAPT in psi4, default
}

set PROPERTIES_ORIGIN ["COM"]
properties('MP2/aug-cc-pvtz', properties = ['dipole'])
--------------------------------------------------------------------------

    Molecular point group: c1
  Charge       = 0
  Multiplicity = 1
  Basis Set: AUG-CC-PVTZ
    Blend: AUG-CC-PVTZ
  Basis Set: (AUG-CC-PVTZ AUX)
    Blend: AUG-CC-PVTZ-JKFIT

    Orbital Energies [Eh]
    ---------------------

    Doubly Occupied:

       1A    -91.962902     2A    -11.269879     3A    -11.266653
       4A    -11.242694     5A    -11.239938     6A    -11.238322
       7A     -8.963361     8A     -6.644590     9A     -6.643646
      10A     -6.642802    11A     -1.145897    12A     -1.028154
      13A     -1.019955    14A     -0.858121    15A     -0.820796
      16A     -0.690402    17A     -0.680920    18A     -0.608039
      19A     -0.604409    20A     -0.585188    21A     -0.525629
      22A     -0.488014    23A     -0.464472    24A     -0.451432
      25A     -0.364497    26A     -0.296129

  @DF-RHF Final Energy:  -590.40164468998842

   => Energetics <=

    Nuclear Repulsion Energy =            272.9215781504496476
    One-Electron Energy =               -1351.1527629690781396
    Two-Electron Energy =                 487.8295401286399624
    Total Energy =                       -590.4016446899884158
  Basis Set: (AUG-CC-PVTZ AUX)
    Blend: AUG-CC-PVTZ-RI
    Molecular point group: c1

    Geometry (in Angstrom), charge = 0, multiplicity = 1:

       Center              X                  Y                   Z               Mass
    ------------   -----------------  -----------------  -----------------  -----------------
         S            1.357927891561     0.018555434188    -0.216196890401    31.972071174400
         C            0.300129891561    -1.304063565812     0.441037109599    12.000000000000
         C           -1.080473108439    -1.211327565812    -0.142091890401    12.000000000000
         C           -1.693076808439    -0.007733865812    -0.143316790401    12.000000000000
         C           -1.071217108439     1.218206434188     0.185925109599    12.000000000000
         C            0.276942891561     1.351848434188     0.122589109599    12.000000000000
         H            0.275369891561    -1.217317565812     1.534699109599     1.007825032230
         H            0.787136891561    -2.247251565812     0.182432109599     1.007825032230
         H           -1.564374108439    -2.121968565812    -0.486438890401     1.007825032230
         H           -2.757977108439     0.020023434188    -0.517905890401     1.007825032230
         H           -1.672129108439     2.100634434188     0.391279109599     1.007825032230
         H            0.761173891561     2.318444434188     0.228061109599     1.007825032230

  Basis Set: AUG-CC-PVTZ
    Blend: AUG-CC-PVTZ
  Basis Set: (AUG-CC-PVTZ AUX)
    Blend: AUG-CC-PVTZ-JKFIT
	 Reference Energy          =    -590.4016446899884158 [Eh]
	 Singles Energy            =      -0.0000000000000000 [Eh]
	 Same-Spin Energy          =      -0.2686769734993953 [Eh]
	 Opposite-Spin Energy      =      -0.8633922783043375 [Eh]
	 Correlation Energy        =      -1.1320692518037330 [Eh]
	 Total Energy              =    -591.5337139417921435 [Eh]

	 ================> DF-SCS-MP2 Energies <==================
	-----------------------------------------------------------
	 SCS Same-Spin Scale       =       0.3333333333333333 [-]
	 SCS Opposite-Spin Scale   =       1.2000000000000000 [-]
	 SCS Same-Spin Energy      =      -0.0895589911664651 [Eh]
	 SCS Opposite-Spin Energy  =      -1.0360707339652049 [Eh]
	 SCS Correlation Energy    =      -1.1256297251316700 [Eh]
	 SCS Total Energy          =    -591.5272744151201323 [Eh]
	-----------------------------------------------------------

  Dipole Moment: [D]
     X:    -0.8102      Y:    -0.3342      Z:     0.5071     Total:     1.0125

*** Psi4 exiting successfully. Buy a developer a beer!
