                               Psi4 1.3.2 release

  ==> Input File <==

--------------------------------------------------------------------------
#psi4
#
memory 32 gb

molecule  {
0 1
  S        1.4017960     0.0318670    -0.2267910
  C        0.3382392    -1.1881369     0.4509776
  C       -1.0366050    -1.1980160    -0.1526860
  C       -1.6877140    -0.0149620    -0.1717330
  C       -1.0273490     1.2315180     0.1753310
  C        0.3208110     1.3651600     0.1119950
  H        0.3192380    -1.2040060     1.5241050
  H        0.8310050    -2.2339400     0.1718380
  H       -1.5205060    -2.1086570    -0.4970330
  H       -2.7141090     0.0333350    -0.5285000
  H       -1.6282610     2.1139460     0.3806850
  H        0.8050420     2.3317560     0.2174670
units angstrom
no_reorient  #important for SAPT in psi4, default
symmetry c1  #important for SAPT in psi4, default
}

set PROPERTIES_ORIGIN ["COM"]
properties('MP2/aug-cc-pvtz', properties = ['dipole'])
--------------------------------------------------------------------------

    Molecular point group: c1
  Charge       = 0
  Multiplicity = 1
  Basis Set: AUG-CC-PVTZ
    Blend: AUG-CC-PVTZ
  Basis Set: (AUG-CC-PVTZ AUX)
    Blend: AUG-CC-PVTZ-JKFIT

    Orbital Energies [Eh]
    ---------------------

    Doubly Occupied:

       1A    -91.963476     2A    -11.268407     3A    -11.267995
       4A    -11.242587     5A    -11.241726     6A    -11.238242
       7A     -8.964777     8A     -6.646097     9A     -6.645047
      10A     -6.644140    11A     -1.147696    12A     -1.025470
      13A     -1.023814    14A     -0.853924    15A     -0.819045
      16A     -0.692589    17A     -0.683665    18A     -0.605724
      19A     -0.593436    20A     -0.587673    21A     -0.527861
      22A     -0.489542    23A     -0.458071    24A     -0.450128
      25A     -0.365471    26A     -0.300220

  @DF-RHF Final Energy:  -590.39396049754089

   => Energetics <=

    Nuclear Repulsion Energy =            273.6968966078947005
    One-Electron Energy =               -1352.6880652427107634
    Two-Electron Energy =                 488.5972081372751177
    Total Energy =                       -590.3939604975407747
  Basis Set: (AUG-CC-PVTZ AUX)
    Blend: AUG-CC-PVTZ-RI
    Molecular point group: c1

    Geometry (in Angstrom), charge = 0, multiplicity = 1:

       Center              X                  Y                   Z               Mass
    ------------   -----------------  -----------------  -----------------  -----------------
         S            1.363346933626     0.008507335500    -0.216528968803    31.972071174400
         C            0.299790133626    -1.211496564500     0.461239631197    12.000000000000
         C           -1.075054066374    -1.221375664500    -0.142423968803    12.000000000000
         C           -1.726163066374    -0.038321664500    -0.161470968803    12.000000000000
         C           -1.065798066374     1.208158335500     0.185593031197    12.000000000000
         C            0.282361933626     1.341800335500     0.122257031197    12.000000000000
         H            0.280788933626    -1.227365664500     1.534367031197     1.007825032230
         H            0.792555933626    -2.257299664500     0.182100031197     1.007825032230
         H           -1.558955066374    -2.132016664500    -0.486770968803     1.007825032230
         H           -2.752558066374     0.009975335500    -0.518237968803     1.007825032230
         H           -1.666710066374     2.090586335500     0.390947031197     1.007825032230
         H            0.766592933626     2.308396335500     0.227729031197     1.007825032230

  Basis Set: AUG-CC-PVTZ
    Blend: AUG-CC-PVTZ
  Basis Set: (AUG-CC-PVTZ AUX)
    Blend: AUG-CC-PVTZ-JKFIT
	 Reference Energy          =    -590.3939604975408884 [Eh]
	 Singles Energy            =      -0.0000000000000000 [Eh]
	 Same-Spin Energy          =      -0.2687341652104516 [Eh]
	 Opposite-Spin Energy      =      -0.8640299889302119 [Eh]
	 Correlation Energy        =      -1.1327641541406634 [Eh]
	 Total Energy              =    -591.5267246516815476 [Eh]

	 ================> DF-SCS-MP2 Energies <==================
	-----------------------------------------------------------
	 SCS Same-Spin Scale       =       0.3333333333333333 [-]
	 SCS Opposite-Spin Scale   =       1.2000000000000000 [-]
	 SCS Same-Spin Energy      =      -0.0895780550701505 [Eh]
	 SCS Opposite-Spin Energy  =      -1.0368359867162542 [Eh]
	 SCS Correlation Energy    =      -1.1264140417864048 [Eh]
	 SCS Total Energy          =    -591.5203745393273493 [Eh]
	-----------------------------------------------------------

  Dipole Moment: [D]
     X:    -0.8399      Y:    -0.2667      Z:     0.4652     Total:     0.9965

*** Psi4 exiting successfully. Buy a developer a beer!
