                               Psi4 1.3.2 release

  ==> Input File <==

--------------------------------------------------------------------------
#psi4
#
memory 32 gb

molecule  {
0 1
  S        1.4017960     0.0318670    -0.2267910
  C        0.3439980    -1.2907520     0.4304430
  C       -1.0366050    -1.1980160    -0.1526860
  C       -1.7760445     0.0300132    -0.1503819
  C       -1.0273490     1.2315180     0.1753310
  C        0.3208110     1.3651600     0.1119950
  H        0.3192380    -1.2040060     1.5241050
  H        0.8310050    -2.2339400     0.1718380
  H       -1.5205060    -2.1086570    -0.4970330
  H       -2.7141090     0.0333350    -0.5285000
  H       -1.6282610     2.1139460     0.3806850
  H        0.8050420     2.3317560     0.2174670
units angstrom
no_reorient  #important for SAPT in psi4, default
symmetry c1  #important for SAPT in psi4, default
}

set PROPERTIES_ORIGIN ["COM"]
properties('MP2/aug-cc-pvtz', properties = ['dipole'])
--------------------------------------------------------------------------

    Molecular point group: c1
  Charge       = 0
  Multiplicity = 1
  Basis Set: AUG-CC-PVTZ
    Blend: AUG-CC-PVTZ
  Basis Set: (AUG-CC-PVTZ AUX)
    Blend: AUG-CC-PVTZ-JKFIT

    Orbital Energies [Eh]
    ---------------------

    Doubly Occupied:

       1A    -91.962952     2A    -11.270662     3A    -11.268815
       4A    -11.257420     5A    -11.244603     6A    -11.242321
       7A     -8.963397     8A     -6.644626     9A     -6.643691
      10A     -6.642826    11A     -1.135544    12A     -1.025420
      13A     -1.014652    14A     -0.859201    15A     -0.819771
      16A     -0.707118    17A     -0.677379    18A     -0.613538
      19A     -0.595623    20A     -0.573302    21A     -0.554915
      22A     -0.479573    23A     -0.462599    24A     -0.447897
      25A     -0.358683    26A     -0.291341

  @DF-RHF Final Energy:  -590.38883238637152

   => Energetics <=

    Nuclear Repulsion Energy =            270.6668706982629260
    One-Electron Energy =               -1346.5956693820041892
    Two-Electron Energy =                 485.5399662973696877
    Total Energy =                       -590.3888323863715186
  Basis Set: (AUG-CC-PVTZ AUX)
    Blend: AUG-CC-PVTZ-RI
    Molecular point group: c1

    Geometry (in Angstrom), charge = 0, multiplicity = 1:

       Center              X                  Y                   Z               Mass
    ------------   -----------------  -----------------  -----------------  -----------------
         S            1.373455791949     0.015563912788    -0.216628928993    31.972071174400
         C            0.315657791949    -1.307055087212     0.440605071007    12.000000000000
         C           -1.064945208051    -1.214319087212    -0.142523928993    12.000000000000
         C           -1.804384708051     0.013710112788    -0.140219828993    12.000000000000
         C           -1.055689208051     1.215214912788     0.185493071007    12.000000000000
         C            0.292470791949     1.348856912788     0.122157071007    12.000000000000
         H            0.290897791949    -1.220309087212     1.534267071007     1.007825032230
         H            0.802664791949    -2.250243087212     0.182000071007     1.007825032230
         H           -1.548846208051    -2.124960087212    -0.486870928993     1.007825032230
         H           -2.742449208051     0.017031912788    -0.518337928993     1.007825032230
         H           -1.656601208051     2.097642912788     0.390847071007     1.007825032230
         H            0.776701791949     2.315452912788     0.227629071007     1.007825032230

  Basis Set: AUG-CC-PVTZ
    Blend: AUG-CC-PVTZ
  Basis Set: (AUG-CC-PVTZ AUX)
    Blend: AUG-CC-PVTZ-JKFIT
	 Reference Energy          =    -590.3888323863715186 [Eh]
	 Singles Energy            =      -0.0000000000000000 [Eh]
	 Same-Spin Energy          =      -0.2690416639991354 [Eh]
	 Opposite-Spin Energy      =      -0.8654816207986107 [Eh]
	 Correlation Energy        =      -1.1345232847977460 [Eh]
	 Total Energy              =    -591.5233556711692700 [Eh]

	 ================> DF-SCS-MP2 Energies <==================
	-----------------------------------------------------------
	 SCS Same-Spin Scale       =       0.3333333333333333 [-]
	 SCS Opposite-Spin Scale   =       1.2000000000000000 [-]
	 SCS Same-Spin Energy      =      -0.0896805546663785 [Eh]
	 SCS Opposite-Spin Energy  =      -1.0385779449583328 [Eh]
	 SCS Correlation Energy    =      -1.1282584996247111 [Eh]
	 SCS Total Energy          =    -591.5170908859962537 [Eh]
	-----------------------------------------------------------

  Dipole Moment: [D]
     X:    -0.8161      Y:    -0.3672      Z:     0.4656     Total:     1.0088

*** Psi4 exiting successfully. Buy a developer a beer!
