                               Psi4 1.4a3.dev225

  ==> Input File <==

--------------------------------------------------------------------------
#psi4
#
memory 32 gb

molecule  {
0 1
  S        1.4017960     0.0318670    -0.2267910
  C        0.3439980    -1.2907520     0.4304430
  C       -1.0366050    -1.1980160    -0.1526860
  C       -1.6877140    -0.0149620    -0.1717330
  C       -1.0273490     1.2315180     0.1753310
  C        0.3208110     1.3651600     0.1119950
  H        0.3181099    -1.2000536     1.5739358
  H        0.8310050    -2.2339400     0.1718380
  H       -1.5205060    -2.1086570    -0.4970330
  H       -2.7141090     0.0333350    -0.5285000
  H       -1.6282610     2.1139460     0.3806850
  H        0.8050420     2.3317560     0.2174670
units angstrom
no_reorient  #important for SAPT in psi4, default
symmetry c1  #important for SAPT in psi4, default
}

set PROPERTIES_ORIGIN ["COM"]
properties('MP2/aug-cc-pvtz', properties = ['dipole'])
--------------------------------------------------------------------------

    Molecular point group: c1
  Charge       = 0
  Multiplicity = 1
  Basis Set: AUG-CC-PVTZ
    Blend: AUG-CC-PVTZ
  Basis Set: (AUG-CC-PVTZ AUX)
    Blend: AUG-CC-PVTZ-JKFIT

    Orbital Energies [Eh]
    ---------------------

    Doubly Occupied:

       1A    -91.962585     2A    -11.273318     3A    -11.268930
       4A    -11.243850     5A    -11.241324     6A    -11.239659
       7A     -8.963049     8A     -6.644285     9A     -6.643339
      10A     -6.642482    11A     -1.141290    12A     -1.025722
      13A     -1.018294    14A     -0.857366    15A     -0.817082
      16A     -0.693933    17A     -0.676975    18A     -0.608394
      19A     -0.597968    20A     -0.580816    21A     -0.535047
      22A     -0.484010    23A     -0.462522    24A     -0.449830
      25A     -0.364162    26A     -0.297601

  @DF-RHF Final Energy:  -590.40324934310866

   => Energetics <=

    Nuclear Repulsion Energy =            271.9675311609232722
    One-Electron Energy =               -1349.2738921477307485
    Two-Electron Energy =                 486.9031116436988214
    Total Energy =                       -590.4032493431086550
  Basis Set: (AUG-CC-PVTZ AUX)
    Blend: AUG-CC-PVTZ-RI
    Molecular point group: c1

    Geometry (in Angstrom), charge = 0, multiplicity = 1:

       Center              X                  Y                   Z               Mass
    ------------   -----------------  -----------------  -----------------  -----------------
         S            1.362653510333     0.021029373113    -0.214527372892    31.972071174400
         C            0.304855510333    -1.301589626887     0.442706627108    12.000000000000
         C           -1.075747489667    -1.208853626887    -0.140422372892    12.000000000000
         C           -1.726856489667    -0.025799626887    -0.159469372892    12.000000000000
         C           -1.066491489667     1.220680373113     0.187594627108    12.000000000000
         C            0.281668510333     1.354322373113     0.124258627108    12.000000000000
         H            0.278967410333    -1.210891226887     1.586199427108     1.007825032230
         H            0.791862510333    -2.244777626887     0.184101627108     1.007825032230
         H           -1.559648489667    -2.119494626887    -0.484769372892     1.007825032230
         H           -2.753251489667     0.022497373113    -0.516236372892     1.007825032230
         H           -1.667403489667     2.103108373113     0.392948627108     1.007825032230
         H            0.765899510333     2.320918373113     0.229730627108     1.007825032230

  Basis Set: AUG-CC-PVTZ
    Blend: AUG-CC-PVTZ
  Basis Set: (AUG-CC-PVTZ AUX)
    Blend: AUG-CC-PVTZ-JKFIT
	 Reference Energy          =    -590.4032493431086550 [Eh]
	 Singles Energy            =      -0.0000000000000000 [Eh]
	 Same-Spin Energy          =      -0.2679342557023084 [Eh]
	 Opposite-Spin Energy      =      -0.8629988784258631 [Eh]
	 Correlation Energy        =      -1.1309331341281714 [Eh]
	 Total Energy              =    -591.5341824772368682 [Eh]

	 ================> DF-SCS-MP2 Energies <==================
	-----------------------------------------------------------
	 SCS Same-Spin Scale       =       0.3333333333333333 [-]
	 SCS Opposite-Spin Scale   =       1.2000000000000000 [-]
	 SCS Same-Spin Energy      =      -0.0893114185674361 [Eh]
	 SCS Opposite-Spin Energy  =      -1.0355986541110356 [Eh]
	 SCS Correlation Energy    =      -1.1249100726784718 [Eh]
	 SCS Total Energy          =    -591.5281594157871723 [Eh]
	-----------------------------------------------------------

  Dipole Moment: [D]
     X:    -0.8616      Y:    -0.3364      Z:     0.4666     Total:     1.0360

*** Psi4 exiting successfully. Buy a developer a beer!
