                               Psi4 1.4a3.dev225

  ==> Input File <==

--------------------------------------------------------------------------
#psi4
#
memory 32 gb

molecule  {
0 1
  S        1.4017960     0.0318670    -0.2267910
  C        0.3439980    -1.2907520     0.4304430
  C       -1.0366050    -1.1980160    -0.1526860
  C       -1.6877140    -0.0149620    -0.1717330
  C       -1.0273490     1.2315180     0.1753310
  C        0.3208110     1.3651600     0.1119950
  H        0.3192380    -1.2040060     1.5241050
  H        0.8310050    -2.2339400     0.1718380
  H       -1.4982515    -2.0667769    -0.4811966
  H       -2.7141090     0.0333350    -0.5285000
  H       -1.6282610     2.1139460     0.3806850
  H        0.8050420     2.3317560     0.2174670
units angstrom
no_reorient  #important for SAPT in psi4, default
symmetry c1  #important for SAPT in psi4, default
}

set PROPERTIES_ORIGIN ["COM"]
properties('MP2/aug-cc-pvtz', properties = ['dipole'])
--------------------------------------------------------------------------

    Molecular point group: c1
  Charge       = 0
  Multiplicity = 1
  Basis Set: AUG-CC-PVTZ
    Blend: AUG-CC-PVTZ
  Basis Set: (AUG-CC-PVTZ AUX)
    Blend: AUG-CC-PVTZ-JKFIT

    Orbital Energies [Eh]
    ---------------------

    Doubly Occupied:

       1A    -91.961783     2A    -11.268545     3A    -11.267373
       4A    -11.240768     5A    -11.239553     6A    -11.237159
       7A     -8.962287     8A     -6.643527     9A     -6.642583
      10A     -6.641723    11A     -1.141862    12A     -1.027734
      13A     -1.018938    14A     -0.859571    15A     -0.821036
      16A     -0.694452    17A     -0.686021    18A     -0.608814
      19A     -0.599652    20A     -0.587483    21A     -0.535077
      22A     -0.485163    23A     -0.463121    24A     -0.450650
      25A     -0.363741    26A     -0.297518

  @DF-RHF Final Energy:  -590.40464697206244

   => Energetics <=

    Nuclear Repulsion Energy =            272.4616453373974423
    One-Electron Energy =               -1350.2403171824182664
    Two-Electron Energy =                 487.3740248729583868
    Total Energy =                       -590.4046469720624373
  Basis Set: (AUG-CC-PVTZ AUX)
    Blend: AUG-CC-PVTZ-RI
    Molecular point group: c1

    Geometry (in Angstrom), charge = 0, multiplicity = 1:

       Center              X                  Y                   Z               Mass
    ------------   -----------------  -----------------  -----------------  -----------------
         S            1.362413092001     0.020639403034    -0.214177844741    31.972071174400
         C            0.304615092001    -1.301979596966     0.443056155259    12.000000000000
         C           -1.075987907999    -1.209243596966    -0.140072844741    12.000000000000
         C           -1.727096907999    -0.026189596966    -0.159119844741    12.000000000000
         C           -1.066731907999     1.220290403034     0.187944155259    12.000000000000
         C            0.281428092001     1.353932403034     0.124608155259    12.000000000000
         H            0.279855092001    -1.215233596966     1.536718155259     1.007825032230
         H            0.791622092001    -2.245167596966     0.184451155259     1.007825032230
         H           -1.537634407999    -2.078004496966    -0.468583444741     1.007825032230
         H           -2.753491907999     0.022107403034    -0.515886844741     1.007825032230
         H           -1.667643907999     2.102718403034     0.393298155259     1.007825032230
         H            0.765659092001     2.320528403034     0.230080155259     1.007825032230

  Basis Set: AUG-CC-PVTZ
    Blend: AUG-CC-PVTZ
  Basis Set: (AUG-CC-PVTZ AUX)
    Blend: AUG-CC-PVTZ-JKFIT
	 Reference Energy          =    -590.4046469720624373 [Eh]
	 Singles Energy            =      -0.0000000000000000 [Eh]
	 Same-Spin Energy          =      -0.2677234321493775 [Eh]
	 Opposite-Spin Energy      =      -0.8623429071998931 [Eh]
	 Correlation Energy        =      -1.1300663393492707 [Eh]
	 Total Energy              =    -591.5347133114116787 [Eh]

	 ================> DF-SCS-MP2 Energies <==================
	-----------------------------------------------------------
	 SCS Same-Spin Scale       =       0.3333333333333333 [-]
	 SCS Opposite-Spin Scale   =       1.2000000000000000 [-]
	 SCS Same-Spin Energy      =      -0.0892411440497925 [Eh]
	 SCS Opposite-Spin Energy  =      -1.0348114886398718 [Eh]
	 SCS Correlation Energy    =      -1.1240526326896643 [Eh]
	 SCS Total Energy          =    -591.5286996047520915 [Eh]
	-----------------------------------------------------------

  Dipole Moment: [D]
     X:    -0.8729      Y:    -0.3704      Z:     0.4916     Total:     1.0681

*** Psi4 exiting successfully. Buy a developer a beer!
