                               Psi4 1.3.2 release

  ==> Input File <==

--------------------------------------------------------------------------
#psi4
#
memory 32 gb

molecule  {
0 1
  S        1.4017960     0.0318670    -0.2267910
  C        0.3439980    -1.2907520     0.4304430
  C       -0.9975819    -1.1753798    -0.1390125
  C       -1.6877140    -0.0149620    -0.1717330
  C       -1.0273490     1.2315180     0.1753310
  C        0.3208110     1.3651600     0.1119950
  H        0.3192380    -1.2040060     1.5241050
  H        0.8310050    -2.2339400     0.1718380
  H       -1.5205060    -2.1086570    -0.4970330
  H       -2.7141090     0.0333350    -0.5285000
  H       -1.6282610     2.1139460     0.3806850
  H        0.8050420     2.3317560     0.2174670
units angstrom
no_reorient  #important for SAPT in psi4, default
symmetry c1  #important for SAPT in psi4, default
}

set PROPERTIES_ORIGIN ["COM"]
properties('MP2/aug-cc-pvtz', properties = ['dipole'])
--------------------------------------------------------------------------

    Molecular point group: c1
  Charge       = 0
  Multiplicity = 1
  Basis Set: AUG-CC-PVTZ
    Blend: AUG-CC-PVTZ
  Basis Set: (AUG-CC-PVTZ AUX)
    Blend: AUG-CC-PVTZ-JKFIT

    Orbital Energies [Eh]
    ---------------------

    Doubly Occupied:

       1A    -91.962012     2A    -11.267749     3A    -11.266862
       4A    -11.245161     5A    -11.240392     6A    -11.239015
       7A     -8.962590     8A     -6.643811     9A     -6.642891
      10A     -6.642009    11A     -1.145765    12A     -1.029916
      13A     -1.018989    14A     -0.861649    15A     -0.814247
      16A     -0.696775    17A     -0.674943    18A     -0.612426
      19A     -0.602688    20A     -0.578976    21A     -0.542953
      22A     -0.478160    23A     -0.464089    24A     -0.451532
      25A     -0.362951    26A     -0.297064

  @DF-RHF Final Energy:  -590.40226045059239

   => Energetics <=

    Nuclear Repulsion Energy =            272.9564456353027140
    One-Electron Energy =               -1351.2261829798471808
    Two-Electron Energy =                 487.8674768939520732
    Total Energy =                       -590.4022604505923937
  Basis Set: (AUG-CC-PVTZ AUX)
    Blend: AUG-CC-PVTZ-RI
    Molecular point group: c1

    Geometry (in Angstrom), charge = 0, multiplicity = 1:

       Center              X                  Y                   Z               Mass
    ------------   -----------------  -----------------  -----------------  -----------------
         S            1.357864499783     0.018298769720    -0.215688997144    31.972071174400
         C            0.300066499783    -1.304320230280     0.441545002856    12.000000000000
         C           -1.041513400217    -1.188948030280    -0.127910497144    12.000000000000
         C           -1.731645500217    -0.028530230280    -0.160630997144    12.000000000000
         C           -1.071280500217     1.217949769720     0.186433002856    12.000000000000
         C            0.276879499783     1.351591769720     0.123097002856    12.000000000000
         H            0.275306499783    -1.217574230280     1.535207002856     1.007825032230
         H            0.787073499783    -2.247508230280     0.182940002856     1.007825032230
         H           -1.564437500217    -2.122225230280    -0.485930997144     1.007825032230
         H           -2.758040500217     0.019766769720    -0.517397997144     1.007825032230
         H           -1.672192500217     2.100377769720     0.391787002856     1.007825032230
         H            0.761110499783     2.318187769720     0.228569002856     1.007825032230

  Basis Set: AUG-CC-PVTZ
    Blend: AUG-CC-PVTZ
  Basis Set: (AUG-CC-PVTZ AUX)
    Blend: AUG-CC-PVTZ-JKFIT
	 Reference Energy          =    -590.4022604505923937 [Eh]
	 Singles Energy            =      -0.0000000000000000 [Eh]
	 Same-Spin Energy          =      -0.2683538320429726 [Eh]
	 Opposite-Spin Energy      =      -0.8630922808648032 [Eh]
	 Correlation Energy        =      -1.1314461129077757 [Eh]
	 Total Energy              =    -591.5337065635001181 [Eh]

	 ================> DF-SCS-MP2 Energies <==================
	-----------------------------------------------------------
	 SCS Same-Spin Scale       =       0.3333333333333333 [-]
	 SCS Opposite-Spin Scale   =       1.2000000000000000 [-]
	 SCS Same-Spin Energy      =      -0.0894512773476575 [Eh]
	 SCS Opposite-Spin Energy  =      -1.0357107370377638 [Eh]
	 SCS Correlation Energy    =      -1.1251620143854213 [Eh]
	 SCS Total Energy          =    -591.5274224649778034 [Eh]
	-----------------------------------------------------------

  Dipole Moment: [D]
     X:    -0.8487      Y:    -0.3552      Z:     0.5126     Total:     1.0532

*** Psi4 exiting successfully. Buy a developer a beer!
