                               Psi4 1.3.2 release

  ==> Input File <==

--------------------------------------------------------------------------
#psi4
#
memory 32 gb

molecule  {
0 1
  S        1.3778521     0.0129231    -0.2272606
  C        0.3439980    -1.2907520     0.4304430
  C       -1.0366050    -1.1980160    -0.1526860
  C       -1.6877140    -0.0149620    -0.1717330
  C       -1.0273490     1.2315180     0.1753310
  C        0.3208110     1.3651600     0.1119950
  H        0.3192380    -1.2040060     1.5241050
  H        0.8310050    -2.2339400     0.1718380
  H       -1.5205060    -2.1086570    -0.4970330
  H       -2.7141090     0.0333350    -0.5285000
  H       -1.6282610     2.1139460     0.3806850
  H        0.8050420     2.3317560     0.2174670
units angstrom
no_reorient  #important for SAPT in psi4, default
symmetry c1  #important for SAPT in psi4, default
}

set PROPERTIES_ORIGIN ["COM"]
properties('MP2/aug-cc-pvtz', properties = ['dipole'])
--------------------------------------------------------------------------

    Molecular point group: c1
  Charge       = 0
  Multiplicity = 1
  Basis Set: AUG-CC-PVTZ
    Blend: AUG-CC-PVTZ
  Basis Set: (AUG-CC-PVTZ AUX)
    Blend: AUG-CC-PVTZ-JKFIT

    Orbital Energies [Eh]
    ---------------------

    Doubly Occupied:

       1A    -91.960579     2A    -11.268354     3A    -11.265822
       4A    -11.243608     5A    -11.241130     6A    -11.239209
       7A     -8.961594     8A     -6.642867     9A     -6.641943
      10A     -6.641046    11A     -1.144261    12A     -1.027399
      13A     -1.021022    14A     -0.858213    15A     -0.818327
      16A     -0.694911    17A     -0.680324    18A     -0.609180
      19A     -0.600547    20A     -0.586385    21A     -0.536400
      22A     -0.486683    23A     -0.462025    24A     -0.450152
      25A     -0.362449    26A     -0.298150

  @DF-RHF Final Energy:  -590.40526836662150

   => Energetics <=

    Nuclear Repulsion Energy =            273.1415921380600480
    One-Electron Energy =               -1351.6085649096958150
    Two-Electron Energy =                 488.0617044050142113
    Total Energy =                       -590.4052683666214989
  Basis Set: (AUG-CC-PVTZ AUX)
    Blend: AUG-CC-PVTZ-RI
    Molecular point group: c1

    Geometry (in Angstrom), charge = 0, multiplicity = 1:

       Center              X                  Y                   Z               Mass
    ------------   -----------------  -----------------  -----------------  -----------------
         S            1.346508087985     0.008305276558    -0.214331440719    31.972071174400
         C            0.312653987985    -1.295369823442     0.443372159281    12.000000000000
         C           -1.067949012015    -1.202633823442    -0.139756840719    12.000000000000
         C           -1.719058012015    -0.019579823442    -0.158803840719    12.000000000000
         C           -1.058693012015     1.226900176558     0.188260159281    12.000000000000
         C            0.289466987985     1.360542176558     0.124924159281    12.000000000000
         H            0.287893987985    -1.208623823442     1.537034159281     1.007825032230
         H            0.799660987985    -2.238557823442     0.184767159281     1.007825032230
         H           -1.551850012015    -2.113274823442    -0.484103840719     1.007825032230
         H           -2.745453012015     0.028717176558    -0.515570840719     1.007825032230
         H           -1.659605012015     2.109328176558     0.393614159281     1.007825032230
         H            0.773697987985     2.327138176558     0.230396159281     1.007825032230

  Basis Set: AUG-CC-PVTZ
    Blend: AUG-CC-PVTZ
  Basis Set: (AUG-CC-PVTZ AUX)
    Blend: AUG-CC-PVTZ-JKFIT
	 Reference Energy          =    -590.4052683666214989 [Eh]
	 Singles Energy            =      -0.0000000000000000 [Eh]
	 Same-Spin Energy          =      -0.2680387561276390 [Eh]
	 Opposite-Spin Energy      =      -0.8625235545602027 [Eh]
	 Correlation Energy        =      -1.1305623106878417 [Eh]
	 Total Energy              =    -591.5358306773093773 [Eh]

	 ================> DF-SCS-MP2 Energies <==================
	-----------------------------------------------------------
	 SCS Same-Spin Scale       =       0.3333333333333333 [-]
	 SCS Opposite-Spin Scale   =       1.2000000000000000 [-]
	 SCS Same-Spin Energy      =      -0.0893462520425463 [Eh]
	 SCS Opposite-Spin Energy  =      -1.0350282654722431 [Eh]
	 SCS Correlation Energy    =      -1.1243745175147895 [Eh]
	 SCS Total Energy          =    -591.5296428841362513 [Eh]
	-----------------------------------------------------------

  Dipole Moment: [D]
     X:    -0.8607      Y:    -0.3503      Z:     0.5007     Total:     1.0556

*** Psi4 exiting successfully. Buy a developer a beer!
