                               Psi4 1.4a3.dev225

  ==> Input File <==

--------------------------------------------------------------------------
#psi4
#
memory 32 gb

molecule  {
0 1
  S        1.4017960     0.0318670    -0.2267910
  C        0.3439980    -1.2907520     0.4304430
  C       -1.0366050    -1.1980160    -0.1526860
  C       -1.6877140    -0.0149620    -0.1717330
  C       -1.0046196     1.2744211     0.1872767
  C        0.3208110     1.3651600     0.1119950
  H        0.3192380    -1.2040060     1.5241050
  H        0.8310050    -2.2339400     0.1718380
  H       -1.5205060    -2.1086570    -0.4970330
  H       -2.7141090     0.0333350    -0.5285000
  H       -1.6282610     2.1139460     0.3806850
  H        0.8050420     2.3317560     0.2174670
units angstrom
no_reorient  #important for SAPT in psi4, default
symmetry c1  #important for SAPT in psi4, default
}

set PROPERTIES_ORIGIN ["COM"]
properties('MP2/aug-cc-pvtz', properties = ['dipole'])
--------------------------------------------------------------------------

    Molecular point group: c1
  Charge       = 0
  Multiplicity = 1
  Basis Set: AUG-CC-PVTZ
    Blend: AUG-CC-PVTZ
  Basis Set: (AUG-CC-PVTZ AUX)
    Blend: AUG-CC-PVTZ-JKFIT

    Orbital Energies [Eh]
    ---------------------

    Doubly Occupied:

       1A    -91.962017     2A    -11.267584     3A    -11.264602
       4A    -11.243326     5A    -11.241744     6A    -11.239057
       7A     -8.962519     8A     -6.643777     9A     -6.642797
      10A     -6.641927    11A     -1.139568    12A     -1.030746
      13A     -1.014055    14A     -0.862594    15A     -0.811864
      16A     -0.692080    17A     -0.683198    18A     -0.615626
      19A     -0.594810    20A     -0.584496    21A     -0.531303
      22A     -0.479005    23A     -0.465819    24A     -0.450978
      25A     -0.362121    26A     -0.303344

  @DF-RHF Final Energy:  -590.40502871334934

   => Energetics <=

    Nuclear Repulsion Energy =            271.8764536903640305
    One-Electron Energy =               -1349.1010517757204070
    Two-Electron Energy =                 486.8195693720070381
    Total Energy =                       -590.4050287133493384
  Basis Set: (AUG-CC-PVTZ AUX)
    Blend: AUG-CC-PVTZ-RI
    Molecular point group: c1

    Geometry (in Angstrom), charge = 0, multiplicity = 1:

       Center              X                  Y                   Z               Mass
    ------------   -----------------  -----------------  -----------------  -----------------
         S            1.359859259548     0.015817590081    -0.215477470853    31.972071174400
         C            0.302061259548    -1.306801409919     0.441756529147    12.000000000000
         C           -1.078541740452    -1.214065409919    -0.141372470853    12.000000000000
         C           -1.729650740452    -0.031011409919    -0.160419470853    12.000000000000
         C           -1.046556340452     1.258371690081     0.198590229147    12.000000000000
         C            0.278874259548     1.349110590081     0.123308529147    12.000000000000
         H            0.277301259548    -1.220055409919     1.535418529147     1.007825032230
         H            0.789068259548    -2.249989409919     0.183151529147     1.007825032230
         H           -1.562442740452    -2.124706409919    -0.485719470853     1.007825032230
         H           -2.756045740452     0.017285590081    -0.517186470853     1.007825032230
         H           -1.670197740452     2.097896590081     0.391998529147     1.007825032230
         H            0.763105259548     2.315706590081     0.228780529147     1.007825032230

  Basis Set: AUG-CC-PVTZ
    Blend: AUG-CC-PVTZ
  Basis Set: (AUG-CC-PVTZ AUX)
    Blend: AUG-CC-PVTZ-JKFIT
	 Reference Energy          =    -590.4050287133493384 [Eh]
	 Singles Energy            =      -0.0000000000000000 [Eh]
	 Same-Spin Energy          =      -0.2666363709629828 [Eh]
	 Opposite-Spin Energy      =      -0.8614226455661134 [Eh]
	 Correlation Energy        =      -1.1280590165290962 [Eh]
	 Total Energy              =    -591.5330877298783889 [Eh]

	 ================> DF-SCS-MP2 Energies <==================
	-----------------------------------------------------------
	 SCS Same-Spin Scale       =       0.3333333333333333 [-]
	 SCS Opposite-Spin Scale   =       1.2000000000000000 [-]
	 SCS Same-Spin Energy      =      -0.0888787903209942 [Eh]
	 SCS Opposite-Spin Energy  =      -1.0337071746793360 [Eh]
	 SCS Correlation Energy    =      -1.1225859650003303 [Eh]
	 SCS Total Energy          =    -591.5276146783496642 [Eh]
	-----------------------------------------------------------

  Dipole Moment: [D]
     X:    -0.8883      Y:    -0.3594      Z:     0.4943     Total:     1.0782

*** Psi4 exiting successfully. Buy a developer a beer!
