                               Psi4 1.4a3.dev225

  ==> Input File <==

--------------------------------------------------------------------------
#psi4
#
memory 32 gb

molecule  {
0 1
  S        1.4017960     0.0318670    -0.2267910
  C        0.3148840    -1.3271547     0.4485322
  C       -1.0366050    -1.1980160    -0.1526860
  C       -1.6877140    -0.0149620    -0.1717330
  C       -1.0273490     1.2315180     0.1753310
  C        0.3208110     1.3651600     0.1119950
  H        0.3192380    -1.2040060     1.5241050
  H        0.8310050    -2.2339400     0.1718380
  H       -1.5205060    -2.1086570    -0.4970330
  H       -2.7141090     0.0333350    -0.5285000
  H       -1.6282610     2.1139460     0.3806850
  H        0.8050420     2.3317560     0.2174670
units angstrom
no_reorient  #important for SAPT in psi4, default
symmetry c1  #important for SAPT in psi4, default
}

set PROPERTIES_ORIGIN ["COM"]
properties('MP2/aug-cc-pvtz', properties = ['dipole'])
--------------------------------------------------------------------------

    Molecular point group: c1
  Charge       = 0
  Multiplicity = 1
  Basis Set: AUG-CC-PVTZ
    Blend: AUG-CC-PVTZ
  Basis Set: (AUG-CC-PVTZ AUX)
    Blend: AUG-CC-PVTZ-JKFIT

    Orbital Energies [Eh]
    ---------------------

    Doubly Occupied:

       1A    -91.961315     2A    -11.268804     3A    -11.268760
       4A    -11.243029     5A    -11.240695     6A    -11.239849
       7A     -8.961287     8A     -6.642458     9A     -6.641522
      10A     -6.640704    11A     -1.140091    12A     -1.029025
      13A     -1.014371    14A     -0.862643    15A     -0.815781
      16A     -0.695312    17A     -0.681854    18A     -0.612981
      19A     -0.601791    20A     -0.583654    21A     -0.535675
      22A     -0.479494    23A     -0.462406    24A     -0.451459
      25A     -0.361657    26A     -0.297406

  @DF-RHF Final Energy:  -590.40398359952746

   => Energetics <=

    Nuclear Repulsion Energy =            271.5361704763346893
    One-Electron Energy =               -1348.4122611187158327
    Two-Electron Energy =                 486.4721070428535654
    Total Energy =                       -590.4039835995274643
  Basis Set: (AUG-CC-PVTZ AUX)
    Blend: AUG-CC-PVTZ-RI
    Molecular point group: c1

    Geometry (in Angstrom), charge = 0, multiplicity = 1:

       Center              X                  Y                   Z               Mass
    ------------   -----------------  -----------------  -----------------  -----------------
         S            1.366206199063     0.025526619887    -0.216229590176    31.972071174400
         C            0.279294199063    -1.333495080113     0.459093609824    12.000000000000
         C           -1.072194800937    -1.204356380113    -0.142124590176    12.000000000000
         C           -1.723303800937    -0.021302380113    -0.161171590176    12.000000000000
         C           -1.062938800937     1.225177619887     0.185892409824    12.000000000000
         C            0.285221199063     1.358819619887     0.122556409824    12.000000000000
         H            0.283648199063    -1.210346380113     1.534666409824     1.007825032230
         H            0.795415199063    -2.240280380113     0.182399409824     1.007825032230
         H           -1.556095800937    -2.114997380113    -0.486471590176     1.007825032230
         H           -2.749698800937     0.026994619887    -0.517938590176     1.007825032230
         H           -1.663850800937     2.107605619887     0.391246409824     1.007825032230
         H            0.769452199063     2.325415619887     0.228028409824     1.007825032230

  Basis Set: AUG-CC-PVTZ
    Blend: AUG-CC-PVTZ
  Basis Set: (AUG-CC-PVTZ AUX)
    Blend: AUG-CC-PVTZ-JKFIT
	 Reference Energy          =    -590.4039835995274643 [Eh]
	 Singles Energy            =      -0.0000000000000000 [Eh]
	 Same-Spin Energy          =      -0.2678237360955273 [Eh]
	 Opposite-Spin Energy      =      -0.8627732860328404 [Eh]
	 Correlation Energy        =      -1.1305970221283679 [Eh]
	 Total Energy              =    -591.5345806216557776 [Eh]

	 ================> DF-SCS-MP2 Energies <==================
	-----------------------------------------------------------
	 SCS Same-Spin Scale       =       0.3333333333333333 [-]
	 SCS Opposite-Spin Scale   =       1.2000000000000000 [-]
	 SCS Same-Spin Energy      =      -0.0892745786985091 [Eh]
	 SCS Opposite-Spin Energy  =      -1.0353279432394085 [Eh]
	 SCS Correlation Energy    =      -1.1246025219379177 [Eh]
	 SCS Total Energy          =    -591.5285861214654233 [Eh]
	-----------------------------------------------------------

  Dipole Moment: [D]
     X:    -0.8740      Y:    -0.3945      Z:     0.5311     Total:     1.0961

*** Psi4 exiting successfully. Buy a developer a beer!
