                               Psi4 1.4a3.dev225

  ==> Input File <==

--------------------------------------------------------------------------
#psi4
#
memory 32 gb

molecule  {
0 1
  S        1.4017960     0.0318670    -0.2267910
  C        0.3439980    -1.2907520     0.4304430
  C       -1.0825771    -1.1949280    -0.1721033
  C       -1.6877140    -0.0149620    -0.1717330
  C       -1.0273490     1.2315180     0.1753310
  C        0.3208110     1.3651600     0.1119950
  H        0.3192380    -1.2040060     1.5241050
  H        0.8310050    -2.2339400     0.1718380
  H       -1.5205060    -2.1086570    -0.4970330
  H       -2.7141090     0.0333350    -0.5285000
  H       -1.6282610     2.1139460     0.3806850
  H        0.8050420     2.3317560     0.2174670
units angstrom
no_reorient  #important for SAPT in psi4, default
symmetry c1  #important for SAPT in psi4, default
}

set PROPERTIES_ORIGIN ["COM"]
properties('MP2/aug-cc-pvtz', properties = ['dipole'])
--------------------------------------------------------------------------

    Molecular point group: c1
  Charge       = 0
  Multiplicity = 1
  Basis Set: AUG-CC-PVTZ
    Blend: AUG-CC-PVTZ
  Basis Set: (AUG-CC-PVTZ AUX)
    Blend: AUG-CC-PVTZ-JKFIT

    Orbital Energies [Eh]
    ---------------------

    Doubly Occupied:

       1A    -91.961550     2A    -11.269140     3A    -11.268989
       4A    -11.241351     5A    -11.240926     6A    -11.236654
       7A     -8.962013     8A     -6.643270     9A     -6.642309
      10A     -6.641463    11A     -1.139853    12A     -1.026471
      13A     -1.017777    14A     -0.859193    15A     -0.817691
      16A     -0.692623    17A     -0.684567    18A     -0.605909
      19A     -0.598859    20A     -0.588014    21A     -0.525584
      22A     -0.487337    23A     -0.462342    24A     -0.449640
      25A     -0.366427    26A     -0.299886

  @DF-RHF Final Energy:  -590.40458564320693

   => Energetics <=

    Nuclear Repulsion Energy =            271.7776438804482950
    One-Electron Energy =               -1348.9047803438650135
    Two-Electron Energy =                 486.7225508202097330
    Total Energy =                       -590.4045856432069286
  Basis Set: (AUG-CC-PVTZ AUX)
    Blend: AUG-CC-PVTZ-RI
    Molecular point group: c1

    Geometry (in Angstrom), charge = 0, multiplicity = 1:

       Center              X                  Y                   Z               Mass
    ------------   -----------------  -----------------  -----------------  -----------------
         S            1.368270055621     0.020691962355    -0.211637848760    31.972071174400
         C            0.310472055621    -1.301927037645     0.445596151240    12.000000000000
         C           -1.116103044379    -1.206103037645    -0.156950148760    12.000000000000
         C           -1.721239944379    -0.026137037645    -0.156579848760    12.000000000000
         C           -1.060874944379     1.220342962355     0.190484151240    12.000000000000
         C            0.287285055621     1.353984962355     0.127148151240    12.000000000000
         H            0.285712055621    -1.215181037645     1.539258151240     1.007825032230
         H            0.797479055621    -2.245115037645     0.186991151240     1.007825032230
         H           -1.554031944379    -2.119832037645    -0.481879848760     1.007825032230
         H           -2.747634944379     0.022159962355    -0.513346848760     1.007825032230
         H           -1.661786944379     2.102770962355     0.395838151240     1.007825032230
         H            0.771516055621     2.320580962355     0.232620151240     1.007825032230

  Basis Set: AUG-CC-PVTZ
    Blend: AUG-CC-PVTZ
  Basis Set: (AUG-CC-PVTZ AUX)
    Blend: AUG-CC-PVTZ-JKFIT
	 Reference Energy          =    -590.4045856432069286 [Eh]
	 Singles Energy            =      -0.0000000000000000 [Eh]
	 Same-Spin Energy          =      -0.2670809143752696 [Eh]
	 Opposite-Spin Energy      =      -0.8617420639290719 [Eh]
	 Correlation Energy        =      -1.1288229783043415 [Eh]
	 Total Energy              =    -591.5334086215112848 [Eh]

	 ================> DF-SCS-MP2 Energies <==================
	-----------------------------------------------------------
	 SCS Same-Spin Scale       =       0.3333333333333333 [-]
	 SCS Opposite-Spin Scale   =       1.2000000000000000 [-]
	 SCS Same-Spin Energy      =      -0.0890269714584232 [Eh]
	 SCS Opposite-Spin Energy  =      -1.0340904767148862 [Eh]
	 SCS Correlation Energy    =      -1.1231174481733093 [Eh]
	 SCS Total Energy          =    -591.5277030913802037 [Eh]
	-----------------------------------------------------------

  Dipole Moment: [D]
     X:    -0.8851      Y:    -0.3717      Z:     0.4855     Total:     1.0758

*** Psi4 exiting successfully. Buy a developer a beer!
