                               Psi4 1.4a3.dev225

  ==> Input File <==

--------------------------------------------------------------------------
#psi4
#
memory 32 gb

molecule  {
0 1
  S        1.4017960     0.0318670    -0.2267910
  C        0.3439980    -1.2907520     0.4304430
  C       -1.0366050    -1.1980160    -0.1526860
  C       -1.6877140    -0.0149620    -0.1717330
  C       -1.0273490     1.2315180     0.1753310
  C        0.3208110     1.3651600     0.1119950
  H        0.3196893    -1.2055870     1.5041727
  H        0.8310050    -2.2339400     0.1718380
  H       -1.5205060    -2.1086570    -0.4970330
  H       -2.7141090     0.0333350    -0.5285000
  H       -1.6282610     2.1139460     0.3806850
  H        0.8050420     2.3317560     0.2174670
units angstrom
no_reorient  #important for SAPT in psi4, default
symmetry c1  #important for SAPT in psi4, default
}

set PROPERTIES_ORIGIN ["COM"]
properties('MP2/aug-cc-pvtz', properties = ['dipole'])
--------------------------------------------------------------------------

    Molecular point group: c1
  Charge       = 0
  Multiplicity = 1
  Basis Set: AUG-CC-PVTZ
    Blend: AUG-CC-PVTZ
  Basis Set: (AUG-CC-PVTZ AUX)
    Blend: AUG-CC-PVTZ-JKFIT

    Orbital Energies [Eh]
    ---------------------

    Doubly Occupied:

       1A    -91.961863     2A    -11.268608     3A    -11.265600
       4A    -11.243379     5A    -11.240944     6A    -11.239329
       7A     -8.962380     8A     -6.643620     9A     -6.642675
      10A     -6.641813    11A     -1.141921    12A     -1.026837
      13A     -1.019247    14A     -0.860728    15A     -0.817097
      16A     -0.694447    17A     -0.681591    18A     -0.609362
      19A     -0.600641    20A     -0.585048    21A     -0.534845
      22A     -0.483715    23A     -0.463688    24A     -0.450938
      25A     -0.363816    26A     -0.297759

  @DF-RHF Final Energy:  -590.40558609676566

   => Energetics <=

    Nuclear Repulsion Energy =            272.3032783405647024
    One-Electron Energy =               -1349.9339444707741222
    Two-Electron Energy =                 487.2250800334437599
    Total Energy =                       -590.4055860967656599
  Basis Set: (AUG-CC-PVTZ AUX)
    Blend: AUG-CC-PVTZ-RI
    Molecular point group: c1

    Geometry (in Angstrom), charge = 0, multiplicity = 1:

       Center              X                  Y                   Z               Mass
    ------------   -----------------  -----------------  -----------------  -----------------
         S            1.362637271048     0.021086267162    -0.213810073356    31.972071174400
         C            0.304839271048    -1.301532732838     0.443423926644    12.000000000000
         C           -1.075763728952    -1.208796732838    -0.139705073356    12.000000000000
         C           -1.726872728952    -0.025742732838    -0.158752073356    12.000000000000
         C           -1.066507728952     1.220737267162     0.188311926644    12.000000000000
         C            0.281652271048     1.354379267162     0.124975926644    12.000000000000
         H            0.280530571048    -1.216367732838     1.517153626644     1.007825032230
         H            0.791846271048    -2.244720732838     0.184818926644     1.007825032230
         H           -1.559664728952    -2.119437732838    -0.484052073356     1.007825032230
         H           -2.753267728952     0.022554267162    -0.515519073356     1.007825032230
         H           -1.667419728952     2.103165267162     0.393665926644     1.007825032230
         H            0.765883271048     2.320975267162     0.230447926644     1.007825032230

  Basis Set: AUG-CC-PVTZ
    Blend: AUG-CC-PVTZ
  Basis Set: (AUG-CC-PVTZ AUX)
    Blend: AUG-CC-PVTZ-JKFIT
	 Reference Energy          =    -590.4055860967656599 [Eh]
	 Singles Energy            =      -0.0000000000000000 [Eh]
	 Same-Spin Energy          =      -0.2677556106569861 [Eh]
	 Opposite-Spin Energy      =      -0.8624607702240870 [Eh]
	 Correlation Energy        =      -1.1302163808810730 [Eh]
	 Total Energy              =    -591.5358024776467118 [Eh]

	 ================> DF-SCS-MP2 Energies <==================
	-----------------------------------------------------------
	 SCS Same-Spin Scale       =       0.3333333333333333 [-]
	 SCS Opposite-Spin Scale   =       1.2000000000000000 [-]
	 SCS Same-Spin Energy      =      -0.0892518702189954 [Eh]
	 SCS Opposite-Spin Energy  =      -1.0349529242689044 [Eh]
	 SCS Correlation Energy    =      -1.1242047944878997 [Eh]
	 SCS Total Energy          =    -591.5297908912535831 [Eh]
	-----------------------------------------------------------

  Dipole Moment: [D]
     X:    -0.8588      Y:    -0.3646      Z:     0.5050     Total:     1.0609

*** Psi4 exiting successfully. Buy a developer a beer!
