                               Psi4 1.3.2 release

  ==> Input File <==

--------------------------------------------------------------------------
#psi4
#
memory 32 gb

molecule  {
0 1
  S        1.4017960     0.0318670    -0.2267910
  C        0.3410283    -1.1869423     0.4445642
  C       -1.0366050    -1.1980160    -0.1526860
  C       -1.6877140    -0.0149620    -0.1717330
  C       -1.0273490     1.2315180     0.1753310
  C        0.3208110     1.3651600     0.1119950
  H        0.3192380    -1.2040060     1.5241050
  H        0.8310050    -2.2339400     0.1718380
  H       -1.5205060    -2.1086570    -0.4970330
  H       -2.7141090     0.0333350    -0.5285000
  H       -1.6282610     2.1139460     0.3806850
  H        0.8050420     2.3317560     0.2174670
units angstrom
no_reorient  #important for SAPT in psi4, default
symmetry c1  #important for SAPT in psi4, default
}

set PROPERTIES_ORIGIN ["COM"]
properties('MP2/aug-cc-pvtz', properties = ['dipole'])
--------------------------------------------------------------------------

    Molecular point group: c1
  Charge       = 0
  Multiplicity = 1
  Basis Set: AUG-CC-PVTZ
    Blend: AUG-CC-PVTZ
  Basis Set: (AUG-CC-PVTZ AUX)
    Blend: AUG-CC-PVTZ-JKFIT

    Orbital Energies [Eh]
    ---------------------

    Doubly Occupied:

       1A    -91.963410     2A    -11.268491     3A    -11.268044
       4A    -11.242581     5A    -11.241788     6A    -11.238199
       7A     -8.964808     8A     -6.646137     9A     -6.645084
      10A     -6.644170    11A     -1.148025    12A     -1.025811
      13A     -1.023983    14A     -0.853488    15A     -0.819331
      16A     -0.692450    17A     -0.683132    18A     -0.605900
      19A     -0.593230    20A     -0.587467    21A     -0.528297
      22A     -0.490151    23A     -0.457967    24A     -0.449775
      25A     -0.365848    26A     -0.299964

  @DF-RHF Final Energy:  -590.39405573008605

   => Energetics <=

    Nuclear Repulsion Energy =            273.7717010171864445
    One-Electron Energy =               -1352.8364526036621101
    Two-Electron Energy =                 488.6706958563897274
    Total Energy =                       -590.3940557300859382
  Basis Set: (AUG-CC-PVTZ AUX)
    Blend: AUG-CC-PVTZ-RI
    Molecular point group: c1

    Geometry (in Angstrom), charge = 0, multiplicity = 1:

       Center              X                  Y                   Z               Mass
    ------------   -----------------  -----------------  -----------------  -----------------
         S            1.363005477452     0.008361086335    -0.215743806914    31.972071174400
         C            0.302237777452    -1.210448213665     0.455611393086    12.000000000000
         C           -1.075395522548    -1.221521913665    -0.141638806914    12.000000000000
         C           -1.726504522548    -0.038467913665    -0.160685806914    12.000000000000
         C           -1.066139522548     1.208012086335     0.186378193086    12.000000000000
         C            0.282020477452     1.341654086335     0.123042193086    12.000000000000
         H            0.280447477452    -1.227511913665     1.535152193086     1.007825032230
         H            0.792214477452    -2.257445913665     0.182885193086     1.007825032230
         H           -1.559296522548    -2.132162913665    -0.485985806914     1.007825032230
         H           -2.752899522548     0.009829086335    -0.517452806914     1.007825032230
         H           -1.667051522548     2.090440086335     0.391732193086     1.007825032230
         H            0.766251477452     2.308250086335     0.228514193086     1.007825032230

  Basis Set: AUG-CC-PVTZ
    Blend: AUG-CC-PVTZ
  Basis Set: (AUG-CC-PVTZ AUX)
    Blend: AUG-CC-PVTZ-JKFIT
	 Reference Energy          =    -590.3940557300860519 [Eh]
	 Singles Energy            =      -0.0000000000000000 [Eh]
	 Same-Spin Energy          =      -0.2687572465294364 [Eh]
	 Opposite-Spin Energy      =      -0.8640151615095119 [Eh]
	 Correlation Energy        =      -1.1327724080389483 [Eh]
	 Total Energy              =    -591.5268281381249835 [Eh]

	 ================> DF-SCS-MP2 Energies <==================
	-----------------------------------------------------------
	 SCS Same-Spin Scale       =       0.3333333333333333 [-]
	 SCS Opposite-Spin Scale   =       1.2000000000000000 [-]
	 SCS Same-Spin Energy      =      -0.0895857488431455 [Eh]
	 SCS Opposite-Spin Energy  =      -1.0368181938114143 [Eh]
	 SCS Correlation Energy    =      -1.1264039426545598 [Eh]
	 SCS Total Energy          =    -591.5204596727405715 [Eh]
	-----------------------------------------------------------

  Dipole Moment: [D]
     X:    -0.8379      Y:    -0.2653      Z:     0.4600     Total:     0.9920

*** Psi4 exiting successfully. Buy a developer a beer!
