                               Psi4 1.3.2 release

  ==> Input File <==

--------------------------------------------------------------------------
#psi4
#
memory 32 gb

molecule  {
0 1
  S        1.4017960     0.0318670    -0.2267910
  C        0.3439980    -1.2907520     0.4304430
  C       -1.0366050    -1.1980160    -0.1526860
  C       -1.6877140    -0.0149620    -0.1717330
  C       -0.9364315     1.4031304     0.2231139
  C        0.3208110     1.3651600     0.1119950
  H        0.3192380    -1.2040060     1.5241050
  H        0.8310050    -2.2339400     0.1718380
  H       -1.5205060    -2.1086570    -0.4970330
  H       -2.7141090     0.0333350    -0.5285000
  H       -1.6282610     2.1139460     0.3806850
  H        0.8050420     2.3317560     0.2174670
units angstrom
no_reorient  #important for SAPT in psi4, default
symmetry c1  #important for SAPT in psi4, default
}

set PROPERTIES_ORIGIN ["COM"]
properties('MP2/aug-cc-pvtz', properties = ['dipole'])
--------------------------------------------------------------------------

    Molecular point group: c1
  Charge       = 0
  Multiplicity = 1
  Basis Set: AUG-CC-PVTZ
    Blend: AUG-CC-PVTZ
  Basis Set: (AUG-CC-PVTZ AUX)
    Blend: AUG-CC-PVTZ-JKFIT

    Orbital Energies [Eh]
    ---------------------

    Doubly Occupied:

       1A    -91.963300     2A    -11.266958     3A    -11.255087
       4A    -11.246478     5A    -11.240092     6A    -11.235963
       7A     -8.963701     8A     -6.644996     9A     -6.643918
      10A     -6.643031    11A     -1.137016    12A     -1.043791
      13A     -1.003331    14A     -0.869702    15A     -0.801407
      16A     -0.697586    17A     -0.685113    18A     -0.631507
      19A     -0.584553    20A     -0.583905    21A     -0.524611
      22A     -0.473341    23A     -0.460345    24A     -0.443425
      25A     -0.357268    26A     -0.318117

  @DF-RHF Final Energy:  -590.37350171751734

   => Energetics <=

    Nuclear Repulsion Energy =            270.9901106986783930
    One-Electron Energy =               -1347.2901372785445346
    Two-Electron Energy =                 485.9265248623488560
    Total Energy =                       -590.3735017175173425
  Basis Set: (AUG-CC-PVTZ AUX)
    Blend: AUG-CC-PVTZ-RI
    Molecular point group: c1

    Geometry (in Angstrom), charge = 0, multiplicity = 1:

       Center              X                  Y                   Z               Mass
    ------------   -----------------  -----------------  -----------------  -----------------
         S            1.351511316581     0.000060326048    -0.219864847854    31.972071174400
         C            0.293713316581    -1.322558673952     0.437369152146    12.000000000000
         C           -1.086889683419    -1.229822673952    -0.145759847854    12.000000000000
         C           -1.737998683419    -0.046768673952    -0.164806847854    12.000000000000
         C           -0.986716183419     1.371323726048     0.230040052146    12.000000000000
         C            0.270526316581     1.333353326048     0.118921152146    12.000000000000
         H            0.268953316581    -1.235812673952     1.531031152146     1.007825032230
         H            0.780720316581    -2.265746673952     0.178764152146     1.007825032230
         H           -1.570790683419    -2.140463673952    -0.490106847854     1.007825032230
         H           -2.764393683419     0.001528326048    -0.521573847854     1.007825032230
         H           -1.678545683419     2.082139326048     0.387611152146     1.007825032230
         H            0.754757316581     2.299949326048     0.224393152146     1.007825032230

  Basis Set: AUG-CC-PVTZ
    Blend: AUG-CC-PVTZ
  Basis Set: (AUG-CC-PVTZ AUX)
    Blend: AUG-CC-PVTZ-JKFIT
	 Reference Energy          =    -590.3735017175173425 [Eh]
	 Singles Energy            =      -0.0000000000000000 [Eh]
	 Same-Spin Energy          =      -0.2648637367151298 [Eh]
	 Opposite-Spin Energy      =      -0.8603948445238317 [Eh]
	 Correlation Energy        =      -1.1252585812389615 [Eh]
	 Total Energy              =    -591.4987602987563378 [Eh]

	 ================> DF-SCS-MP2 Energies <==================
	-----------------------------------------------------------
	 SCS Same-Spin Scale       =       0.3333333333333333 [-]
	 SCS Opposite-Spin Scale   =       1.2000000000000000 [-]
	 SCS Same-Spin Energy      =      -0.0882879122383766 [Eh]
	 SCS Opposite-Spin Energy  =      -1.0324738134285980 [Eh]
	 SCS Correlation Energy    =      -1.1207617256669746 [Eh]
	 SCS Total Energy          =    -591.4942634431843089 [Eh]
	-----------------------------------------------------------

  Dipole Moment: [D]
     X:    -0.9321      Y:    -0.3417      Z:     0.4961     Total:     1.1098

*** Psi4 exiting successfully. Buy a developer a beer!
