                               Psi4 1.3.2 release

  ==> Input File <==

--------------------------------------------------------------------------
#psi4
#
memory 32 gb

molecule  {
0 1
  S        1.4017960     0.0318670    -0.2267910
  C        0.3439980    -1.2907520     0.4304430
  C       -1.0366050    -1.1980160    -0.1526860
  C       -1.6877140    -0.0149620    -0.1717330
  C       -1.0273490     1.2315180     0.1753310
  C        0.3258551     1.2723185     0.0942070
  H        0.3192380    -1.2040060     1.5241050
  H        0.8310050    -2.2339400     0.1718380
  H       -1.5205060    -2.1086570    -0.4970330
  H       -2.7141090     0.0333350    -0.5285000
  H       -1.6282610     2.1139460     0.3806850
  H        0.8050420     2.3317560     0.2174670
units angstrom
no_reorient  #important for SAPT in psi4, default
symmetry c1  #important for SAPT in psi4, default
}

set PROPERTIES_ORIGIN ["COM"]
properties('MP2/aug-cc-pvtz', properties = ['dipole'])
--------------------------------------------------------------------------

    Molecular point group: c1
  Charge       = 0
  Multiplicity = 1
  Basis Set: AUG-CC-PVTZ
    Blend: AUG-CC-PVTZ
  Basis Set: (AUG-CC-PVTZ AUX)
    Blend: AUG-CC-PVTZ-JKFIT

    Orbital Energies [Eh]
    ---------------------

    Doubly Occupied:

       1A    -91.965379     2A    -11.271268     3A    -11.268046
       4A    -11.239545     5A    -11.237826     6A    -11.236912
       7A     -8.967429     8A     -6.648837     9A     -6.647614
      10A     -6.646778    11A     -1.149172    12A     -1.029144
      13A     -1.022047    14A     -0.865997    15A     -0.808544
      16A     -0.688671    17A     -0.674829    18A     -0.611611
      19A     -0.599295    20A     -0.575437    21A     -0.534103
      22A     -0.485051    23A     -0.474212    24A     -0.450061
      25A     -0.367151    26A     -0.292948

  @DF-RHF Final Energy:  -590.39468148925880

   => Energetics <=

    Nuclear Repulsion Energy =            273.9619213869178793
    One-Electron Energy =               -1353.1973964150456595
    Two-Electron Energy =                 488.8407935388690362
    Total Energy =                       -590.3946814892588009
  Basis Set: (AUG-CC-PVTZ AUX)
    Blend: AUG-CC-PVTZ-RI
    Molecular point group: c1

    Geometry (in Angstrom), charge = 0, multiplicity = 1:

       Center              X                  Y                   Z               Mass
    ------------   -----------------  -----------------  -----------------  -----------------
         S            1.362024386245     0.032436152247    -0.211837316167    31.972071174400
         C            0.304226386245    -1.290182847753     0.445396683833    12.000000000000
         C           -1.076376613755    -1.197446847753    -0.137732316167    12.000000000000
         C           -1.727485613755    -0.014392847753    -0.156779316167    12.000000000000
         C           -1.067120613755     1.232087152247     0.190284683833    12.000000000000
         C            0.286083486245     1.272887652247     0.109160683833    12.000000000000
         H            0.279466386245    -1.203436847753     1.539058683833     1.007825032230
         H            0.791233386245    -2.233370847753     0.186791683833     1.007825032230
         H           -1.560277613755    -2.108087847753    -0.482079316167     1.007825032230
         H           -2.753880613755     0.033904152247    -0.513546316167     1.007825032230
         H           -1.668032613755     2.114515152247     0.395638683833     1.007825032230
         H            0.765270386245     2.332325152247     0.232420683833     1.007825032230

  Basis Set: AUG-CC-PVTZ
    Blend: AUG-CC-PVTZ
  Basis Set: (AUG-CC-PVTZ AUX)
    Blend: AUG-CC-PVTZ-JKFIT
	 Reference Energy          =    -590.3946814892588009 [Eh]
	 Singles Energy            =      -0.0000000000000000 [Eh]
	 Same-Spin Energy          =      -0.2692989730754785 [Eh]
	 Opposite-Spin Energy      =      -0.8639102375274470 [Eh]
	 Correlation Energy        =      -1.1332092106029255 [Eh]
	 Total Energy              =    -591.5278906998617003 [Eh]

	 ================> DF-SCS-MP2 Energies <==================
	-----------------------------------------------------------
	 SCS Same-Spin Scale       =       0.3333333333333333 [-]
	 SCS Opposite-Spin Scale   =       1.2000000000000000 [-]
	 SCS Same-Spin Energy      =      -0.0897663243584928 [Eh]
	 SCS Opposite-Spin Energy  =      -1.0366922850329363 [Eh]
	 SCS Correlation Energy    =      -1.1264586093914291 [Eh]
	 SCS Total Energy          =    -591.5211400986502213 [Eh]
	-----------------------------------------------------------

  Dipole Moment: [D]
     X:    -0.6507      Y:    -0.4226      Z:     0.4750     Total:     0.9097

*** Psi4 exiting successfully. Buy a developer a beer!
