                               Psi4 1.3.2 release

  ==> Input File <==

--------------------------------------------------------------------------
#psi4
#
memory 32 gb

molecule  {
0 1
  S        1.4017960     0.0318670    -0.2267910
  C        0.3439980    -1.2907520     0.4304430
  C       -1.1169826    -1.2389385    -0.1800859
  C       -1.6877140    -0.0149620    -0.1717330
  C       -1.0273490     1.2315180     0.1753310
  C        0.3208110     1.3651600     0.1119950
  H        0.3192380    -1.2040060     1.5241050
  H        0.8310050    -2.2339400     0.1718380
  H       -1.5205060    -2.1086570    -0.4970330
  H       -2.7141090     0.0333350    -0.5285000
  H       -1.6282610     2.1139460     0.3806850
  H        0.8050420     2.3317560     0.2174670
units angstrom
no_reorient  #important for SAPT in psi4, default
symmetry c1  #important for SAPT in psi4, default
}

set PROPERTIES_ORIGIN ["COM"]
properties('MP2/aug-cc-pvtz', properties = ['dipole'])
--------------------------------------------------------------------------

    Molecular point group: c1
  Charge       = 0
  Multiplicity = 1
  Basis Set: AUG-CC-PVTZ
    Blend: AUG-CC-PVTZ
  Basis Set: (AUG-CC-PVTZ AUX)
    Blend: AUG-CC-PVTZ-JKFIT

    Orbital Energies [Eh]
    ---------------------

    Doubly Occupied:

       1A    -91.962431     2A    -11.270718     3A    -11.269445
       4A    -11.242834     5A    -11.242040     6A    -11.240543
       7A     -8.962787     8A     -6.644052     9A     -6.643065
      10A     -6.642241    11A     -1.135504    12A     -1.024581
      13A     -1.015594    14A     -0.856795    15A     -0.823880
      16A     -0.694376    17A     -0.689659    18A     -0.603850
      19A     -0.598350    20A     -0.590718    21A     -0.516749
      22A     -0.491842    23A     -0.462263    24A     -0.446912
      25A     -0.365331    26A     -0.299222

  @DF-RHF Final Energy:  -590.39678536489123

   => Energetics <=

    Nuclear Repulsion Energy =            270.7891581723150125
    One-Electron Energy =               -1346.9003243341289817
    Two-Electron Energy =                 485.7143807969227964
    Total Energy =                       -590.3967853648912296
  Basis Set: (AUG-CC-PVTZ AUX)
    Blend: AUG-CC-PVTZ-RI
    Molecular point group: c1

    Geometry (in Angstrom), charge = 0, multiplicity = 1:

       Center              X                  Y                   Z               Mass
    ------------   -----------------  -----------------  -----------------  -----------------
         S            1.372482156438     0.026079957385    -0.210660577220    31.972071174400
         C            0.314684156438    -1.296539042615     0.446573422780    12.000000000000
         C           -1.146296443562    -1.244725542615    -0.163955477220    12.000000000000
         C           -1.717027843562    -0.020749042615    -0.155602577220    12.000000000000
         C           -1.056662843562     1.225730957385     0.191461422780    12.000000000000
         C            0.291497156438     1.359372957385     0.128125422780    12.000000000000
         H            0.289924156438    -1.209793042615     1.540235422780     1.007825032230
         H            0.801691156438    -2.239727042615     0.187968422780     1.007825032230
         H           -1.549819843562    -2.114444042615    -0.480902577220     1.007825032230
         H           -2.743422843562     0.027547957385    -0.512369577220     1.007825032230
         H           -1.657574843562     2.108158957385     0.396815422780     1.007825032230
         H            0.775728156438     2.325968957385     0.233597422780     1.007825032230

  Basis Set: AUG-CC-PVTZ
    Blend: AUG-CC-PVTZ
  Basis Set: (AUG-CC-PVTZ AUX)
    Blend: AUG-CC-PVTZ-JKFIT
	 Reference Energy          =    -590.3967853648912296 [Eh]
	 Singles Energy            =      -0.0000000000000000 [Eh]
	 Same-Spin Energy          =      -0.2671936613092210 [Eh]
	 Opposite-Spin Energy      =      -0.8625843381093642 [Eh]
	 Correlation Energy        =      -1.1297779994185850 [Eh]
	 Total Energy              =    -591.5265633643098226 [Eh]

	 ================> DF-SCS-MP2 Energies <==================
	-----------------------------------------------------------
	 SCS Same-Spin Scale       =       0.3333333333333333 [-]
	 SCS Opposite-Spin Scale   =       1.2000000000000000 [-]
	 SCS Same-Spin Energy      =      -0.0890645537697403 [Eh]
	 SCS Opposite-Spin Energy  =      -1.0351012057312370 [Eh]
	 SCS Correlation Energy    =      -1.1241657595009773 [Eh]
	 SCS Total Energy          =    -591.5209511243922407 [Eh]
	-----------------------------------------------------------

  Dipole Moment: [D]
     X:    -0.8675      Y:    -0.3412      Z:     0.4641     Total:     1.0413

*** Psi4 exiting successfully. Buy a developer a beer!
