                               Psi4 1.3.2 release

  ==> Input File <==

--------------------------------------------------------------------------
#psi4
#
memory 32 gb

molecule  {
0 1
  S        1.4017960     0.0318670    -0.2267910
  C        0.3439980    -1.2907520     0.4304430
  C       -1.0366050    -1.1980160    -0.1526860
  C       -1.7841370     0.1602369    -0.1745537
  C       -1.0273490     1.2315180     0.1753310
  C        0.3208110     1.3651600     0.1119950
  H        0.3192380    -1.2040060     1.5241050
  H        0.8310050    -2.2339400     0.1718380
  H       -1.5205060    -2.1086570    -0.4970330
  H       -2.7141090     0.0333350    -0.5285000
  H       -1.6282610     2.1139460     0.3806850
  H        0.8050420     2.3317560     0.2174670
units angstrom
no_reorient  #important for SAPT in psi4, default
symmetry c1  #important for SAPT in psi4, default
}

set PROPERTIES_ORIGIN ["COM"]
properties('MP2/aug-cc-pvtz', properties = ['dipole'])
--------------------------------------------------------------------------

    Molecular point group: c1
  Charge       = 0
  Multiplicity = 1
  Basis Set: AUG-CC-PVTZ
    Blend: AUG-CC-PVTZ
  Basis Set: (AUG-CC-PVTZ AUX)
    Blend: AUG-CC-PVTZ-JKFIT

    Orbital Energies [Eh]
    ---------------------

    Doubly Occupied:

       1A    -91.966285     2A    -11.271917     3A    -11.270884
       4A    -11.270352     5A    -11.249928     6A    -11.237039
       7A     -8.966464     8A     -6.647648     9A     -6.646741
      10A     -6.645910    11A     -1.139030    12A     -1.037435
      13A     -1.005732    14A     -0.855984    15A     -0.827202
      16A     -0.713232    17A     -0.677684    18A     -0.623311
      19A     -0.599477    20A     -0.574572    21A     -0.547075
      22A     -0.476790    23A     -0.466645    24A     -0.445411
      25A     -0.357301    26A     -0.274420

  @DF-RHF Final Energy:  -590.34721711250529

   => Energetics <=

    Nuclear Repulsion Energy =            270.4842943590998061
    One-Electron Energy =               -1346.0740880192263376
    Two-Electron Energy =                 485.2425765476212405
    Total Energy =                       -590.3472171125054047
  Basis Set: (AUG-CC-PVTZ AUX)
    Blend: AUG-CC-PVTZ-RI
    Molecular point group: c1

    Geometry (in Angstrom), charge = 0, multiplicity = 1:

       Center              X                  Y                   Z               Mass
    ------------   -----------------  -----------------  -----------------  -----------------
         S            1.374446518021    -0.000378751994    -0.213669691123    31.972071174400
         C            0.316648518021    -1.322997751994     0.443564308877    12.000000000000
         C           -1.063954481979    -1.230261751994    -0.139564691123    12.000000000000
         C           -1.811486481979     0.127991148006    -0.161432391123    12.000000000000
         C           -1.054698481979     1.199272248006     0.188452308877    12.000000000000
         C            0.293461518021     1.332914248006     0.125116308877    12.000000000000
         H            0.291888518021    -1.236251751994     1.537226308877     1.007825032230
         H            0.803655518021    -2.266185751994     0.184959308877     1.007825032230
         H           -1.547855481979    -2.140902751994    -0.483911691123     1.007825032230
         H           -2.741458481979     0.001089248006    -0.515378691123     1.007825032230
         H           -1.655610481979     2.081700248006     0.393806308877     1.007825032230
         H            0.777692518021     2.299510248006     0.230588308877     1.007825032230

  Basis Set: AUG-CC-PVTZ
    Blend: AUG-CC-PVTZ
  Basis Set: (AUG-CC-PVTZ AUX)
    Blend: AUG-CC-PVTZ-JKFIT
	 Reference Energy          =    -590.3472171125052910 [Eh]
	 Singles Energy            =      -0.0000000000000000 [Eh]
	 Same-Spin Energy          =      -0.2738396788074846 [Eh]
	 Opposite-Spin Energy      =      -0.8723206689772808 [Eh]
	 Correlation Energy        =      -1.1461603477847653 [Eh]
	 Total Energy              =    -591.4933774602900485 [Eh]

	 ================> DF-SCS-MP2 Energies <==================
	-----------------------------------------------------------
	 SCS Same-Spin Scale       =       0.3333333333333333 [-]
	 SCS Opposite-Spin Scale   =       1.2000000000000000 [-]
	 SCS Same-Spin Energy      =      -0.0912798929358282 [Eh]
	 SCS Opposite-Spin Energy  =      -1.0467848027727369 [Eh]
	 SCS Correlation Energy    =      -1.1380646957085652 [Eh]
	 SCS Total Energy          =    -591.4852818082138128 [Eh]
	-----------------------------------------------------------

  Dipole Moment: [D]
     X:    -0.7205      Y:    -0.2772      Z:     0.5057     Total:     0.9229

*** Psi4 exiting successfully. Buy a developer a beer!
