                               Psi4 1.3.2 release

  ==> Input File <==

--------------------------------------------------------------------------
#psi4
#
memory 32 gb

molecule  {
0 1
  S        1.4017960     0.0318670    -0.2267910
  C        0.3439980    -1.2907520     0.4304430
  C       -1.0366050    -1.1980160    -0.1526860
  C       -1.5493247    -0.0709780    -0.2005590
  C       -1.0273490     1.2315180     0.1753310
  C        0.3208110     1.3651600     0.1119950
  H        0.3192380    -1.2040060     1.5241050
  H        0.8310050    -2.2339400     0.1718380
  H       -1.5205060    -2.1086570    -0.4970330
  H       -2.7141090     0.0333350    -0.5285000
  H       -1.6282610     2.1139460     0.3806850
  H        0.8050420     2.3317560     0.2174670
units angstrom
no_reorient  #important for SAPT in psi4, default
symmetry c1  #important for SAPT in psi4, default
}

set PROPERTIES_ORIGIN ["COM"]
properties('MP2/aug-cc-pvtz', properties = ['dipole'])
--------------------------------------------------------------------------

    Molecular point group: c1
  Charge       = 0
  Multiplicity = 1
  Basis Set: AUG-CC-PVTZ
    Blend: AUG-CC-PVTZ
  Basis Set: (AUG-CC-PVTZ AUX)
    Blend: AUG-CC-PVTZ-JKFIT

    Orbital Energies [Eh]
    ---------------------

    Doubly Occupied:

       1A    -91.961619     2A    -11.268819     3A    -11.264913
       4A    -11.241412     5A    -11.234570     6A    -11.224505
       7A     -8.962222     8A     -6.643469     9A     -6.642513
      10A     -6.641655    11A     -1.155775    12A     -1.040176
      13A     -1.017718    14A     -0.865590    15A     -0.810596
      16A     -0.690927    17A     -0.673435    18A     -0.617763
      19A     -0.605199    20A     -0.591230    21A     -0.503774
      22A     -0.485315    23A     -0.463852    24A     -0.450881
      25A     -0.373301    26A     -0.305925

  @DF-RHF Final Energy:  -590.38031222033749

   => Energetics <=

    Nuclear Repulsion Energy =            274.7229800076758579
    One-Electron Energy =               -1354.7322785850369655
    Two-Electron Energy =                 489.6289863570235639
    Total Energy =                       -590.3803122203374869
  Basis Set: (AUG-CC-PVTZ AUX)
    Blend: AUG-CC-PVTZ-RI
    Molecular point group: c1

    Geometry (in Angstrom), charge = 0, multiplicity = 1:

       Center              X                  Y                   Z               Mass
    ------------   -----------------  -----------------  -----------------  -----------------
         S            1.345699571146     0.027927782404    -0.210485986617    31.972071174400
         C            0.287901571146    -1.294691217596     0.446748013383    12.000000000000
         C           -1.092701428854    -1.201955217596    -0.136380986617    12.000000000000
         C           -1.605421128854    -0.074917217596    -0.184253986617    12.000000000000
         C           -1.083445428854     1.227578782404     0.191636013383    12.000000000000
         C            0.264714571146     1.361220782404     0.128300013383    12.000000000000
         H            0.263141571146    -1.207945217596     1.540410013383     1.007825032230
         H            0.774908571146    -2.237879217596     0.188143013383     1.007825032230
         H           -1.576602428854    -2.112596217596    -0.480727986617     1.007825032230
         H           -2.770205428854     0.029395782404    -0.512194986617     1.007825032230
         H           -1.684357428854     2.110006782404     0.396990013383     1.007825032230
         H            0.748945571146     2.327816782404     0.233772013383     1.007825032230

  Basis Set: AUG-CC-PVTZ
    Blend: AUG-CC-PVTZ
  Basis Set: (AUG-CC-PVTZ AUX)
    Blend: AUG-CC-PVTZ-JKFIT
	 Reference Energy          =    -590.3803122203374869 [Eh]
	 Singles Energy            =      -0.0000000000000000 [Eh]
	 Same-Spin Energy          =      -0.2673367355182418 [Eh]
	 Opposite-Spin Energy      =      -0.8613901271267695 [Eh]
	 Correlation Energy        =      -1.1287268626450113 [Eh]
	 Total Energy              =    -591.5090390829825537 [Eh]

	 ================> DF-SCS-MP2 Energies <==================
	-----------------------------------------------------------
	 SCS Same-Spin Scale       =       0.3333333333333333 [-]
	 SCS Opposite-Spin Scale   =       1.2000000000000000 [-]
	 SCS Same-Spin Energy      =      -0.0891122451727473 [Eh]
	 SCS Opposite-Spin Energy  =      -1.0336681525521234 [Eh]
	 SCS Correlation Energy    =      -1.1227803977248707 [Eh]
	 SCS Total Energy          =    -591.5030926180623965 [Eh]
	-----------------------------------------------------------

  Dipole Moment: [D]
     X:    -0.8315      Y:    -0.3426      Z:     0.5614     Total:     1.0602

*** Psi4 exiting successfully. Buy a developer a beer!
