                               Psi4 1.3.2 release

  ==> Input File <==

--------------------------------------------------------------------------
#psi4
#
memory 32 gb

molecule  {
0 1
  S        1.4017960     0.0318670    -0.2267910
  C        0.3439980    -1.2907520     0.4304430
  C       -1.0366050    -1.1980160    -0.1526860
  C       -1.6877140    -0.0149620    -0.1717330
  C       -1.0308336     1.2782464     0.1820654
  C        0.3208110     1.3651600     0.1119950
  H        0.3192380    -1.2040060     1.5241050
  H        0.8310050    -2.2339400     0.1718380
  H       -1.5205060    -2.1086570    -0.4970330
  H       -2.7141090     0.0333350    -0.5285000
  H       -1.6282610     2.1139460     0.3806850
  H        0.8050420     2.3317560     0.2174670
units angstrom
no_reorient  #important for SAPT in psi4, default
symmetry c1  #important for SAPT in psi4, default
}

set PROPERTIES_ORIGIN ["COM"]
properties('MP2/aug-cc-pvtz', properties = ['dipole'])
--------------------------------------------------------------------------

    Molecular point group: c1
  Charge       = 0
  Multiplicity = 1
  Basis Set: AUG-CC-PVTZ
    Blend: AUG-CC-PVTZ
  Basis Set: (AUG-CC-PVTZ AUX)
    Blend: AUG-CC-PVTZ-JKFIT

    Orbital Energies [Eh]
    ---------------------

    Doubly Occupied:

       1A    -91.963275     2A    -11.268769     3A    -11.267774
       4A    -11.243110     5A    -11.241530     6A    -11.240282
       7A     -8.963685     8A     -6.644937     9A     -6.643953
      10A     -6.643101    11A     -1.137969    12A     -1.027327
      13A     -1.015585    14A     -0.862455    15A     -0.813091
      16A     -0.691147    17A     -0.686389    18A     -0.614630
      19A     -0.595297    20A     -0.584289    21A     -0.530647
      22A     -0.482977    23A     -0.465727    24A     -0.448627
      25A     -0.362811    26A     -0.300192

  @DF-RHF Final Energy:  -590.40383956872336

   => Energetics <=

    Nuclear Repulsion Energy =            271.5213288856287477
    One-Electron Energy =               -1348.3711851663601919
    Two-Electron Energy =                 486.4460167120081451
    Total Energy =                       -590.4038395687233560
  Basis Set: (AUG-CC-PVTZ AUX)
    Blend: AUG-CC-PVTZ-RI
    Molecular point group: c1

    Geometry (in Angstrom), charge = 0, multiplicity = 1:

       Center              X                  Y                   Z               Mass
    ------------   -----------------  -----------------  -----------------  -----------------
         S            1.363068514197     0.015349276897    -0.214839476318    31.972071174400
         C            0.305270514197    -1.307269723103     0.442394523682    12.000000000000
         C           -1.075332485803    -1.214533723103    -0.140734476318    12.000000000000
         C           -1.726441485803    -0.031479723103    -0.159781476318    12.000000000000
         C           -1.069561085803     1.261728676897     0.194016923682    12.000000000000
         C            0.282083514197     1.348642276897     0.123946523682    12.000000000000
         H            0.280510514197    -1.220523723103     1.536056523682     1.007825032230
         H            0.792277514197    -2.250457723103     0.183789523682     1.007825032230
         H           -1.559233485803    -2.125174723103    -0.485081476318     1.007825032230
         H           -2.752836485803     0.016817276897    -0.516548476318     1.007825032230
         H           -1.666988485803     2.097428276897     0.392636523682     1.007825032230
         H            0.766314514197     2.315238276897     0.229418523682     1.007825032230

  Basis Set: AUG-CC-PVTZ
    Blend: AUG-CC-PVTZ
  Basis Set: (AUG-CC-PVTZ AUX)
    Blend: AUG-CC-PVTZ-JKFIT
	 Reference Energy          =    -590.4038395687233560 [Eh]
	 Singles Energy            =      -0.0000000000000000 [Eh]
	 Same-Spin Energy          =      -0.2670904686710354 [Eh]
	 Opposite-Spin Energy      =      -0.8622034306398513 [Eh]
	 Correlation Energy        =      -1.1292938993108868 [Eh]
	 Total Energy              =    -591.5331334680342934 [Eh]

	 ================> DF-SCS-MP2 Energies <==================
	-----------------------------------------------------------
	 SCS Same-Spin Scale       =       0.3333333333333333 [-]
	 SCS Opposite-Spin Scale   =       1.2000000000000000 [-]
	 SCS Same-Spin Energy      =      -0.0890301562236784 [Eh]
	 SCS Opposite-Spin Energy  =      -1.0346441167678215 [Eh]
	 SCS Correlation Energy    =      -1.1236742729914999 [Eh]
	 SCS Total Energy          =    -591.5275138417148355 [Eh]
	-----------------------------------------------------------

  Dipole Moment: [D]
     X:    -0.8495      Y:    -0.3633      Z:     0.4987     Total:     1.0500

*** Psi4 exiting successfully. Buy a developer a beer!
