                               Psi4 1.3.2 release

  ==> Input File <==

--------------------------------------------------------------------------
#psi4
#
memory 32 gb

molecule  {
0 1
  S        1.4017960     0.0318670    -0.2267910
  C        0.3439980    -1.2907520     0.4304430
  C       -1.0366050    -1.1980160    -0.1526860
  C       -1.6877140    -0.0149620    -0.1717330
  C       -0.9451524     1.1771851     0.1992594
  C        0.3208110     1.3651600     0.1119950
  H        0.3192380    -1.2040060     1.5241050
  H        0.8310050    -2.2339400     0.1718380
  H       -1.5205060    -2.1086570    -0.4970330
  H       -2.7141090     0.0333350    -0.5285000
  H       -1.6282610     2.1139460     0.3806850
  H        0.8050420     2.3317560     0.2174670
units angstrom
no_reorient  #important for SAPT in psi4, default
symmetry c1  #important for SAPT in psi4, default
}

set PROPERTIES_ORIGIN ["COM"]
properties('MP2/aug-cc-pvtz', properties = ['dipole'])
--------------------------------------------------------------------------

    Molecular point group: c1
  Charge       = 0
  Multiplicity = 1
  Basis Set: AUG-CC-PVTZ
    Blend: AUG-CC-PVTZ
  Basis Set: (AUG-CC-PVTZ AUX)
    Blend: AUG-CC-PVTZ-JKFIT

    Orbital Energies [Eh]
    ---------------------

    Doubly Occupied:

       1A    -91.957768     2A    -11.267658     3A    -11.257644
       4A    -11.244657     5A    -11.240302     6A    -11.238369
       7A     -8.958656     8A     -6.639887     9A     -6.639000
      10A     -6.638065    11A     -1.150652    12A     -1.036685
      13A     -1.016986    14A     -0.860142    15A     -0.815700
      16A     -0.700177    17A     -0.669460    18A     -0.618524
      19A     -0.592562    20A     -0.582667    21A     -0.539861
      22A     -0.476828    23A     -0.465268    24A     -0.448087
      25A     -0.363246    26A     -0.305383

  @DF-RHF Final Energy:  -590.39571205605239

   => Energetics <=

    Nuclear Repulsion Energy =            273.8703317353144371
    One-Electron Energy =               -1353.0836227811828394
    Two-Electron Energy =                 488.8175789898160133
    Total Energy =                       -590.3957120560523890
  Basis Set: (AUG-CC-PVTZ AUX)
    Blend: AUG-CC-PVTZ-RI
    Molecular point group: c1

    Geometry (in Angstrom), charge = 0, multiplicity = 1:

       Center              X                  Y                   Z               Mass
    ------------   -----------------  -----------------  -----------------  -----------------
         S            1.352578974660     0.027721728520    -0.216944455506    31.972071174400
         C            0.294780974660    -1.294897271480     0.440289544494    12.000000000000
         C           -1.085822025340    -1.202161271480    -0.142839455506    12.000000000000
         C           -1.736931025340    -0.019107271480    -0.161886455506    12.000000000000
         C           -0.994369425340     1.173039828520     0.209105944494    12.000000000000
         C            0.271593974660     1.361014728520     0.121841544494    12.000000000000
         H            0.270020974660    -1.208151271480     1.533951544494     1.007825032230
         H            0.781787974660    -2.238085271480     0.181684544494     1.007825032230
         H           -1.569723025340    -2.112802271480    -0.487186455506     1.007825032230
         H           -2.763326025340     0.029189728520    -0.518653455506     1.007825032230
         H           -1.677478025340     2.109800728520     0.390531544494     1.007825032230
         H            0.755824974660     2.327610728520     0.227313544494     1.007825032230

  Basis Set: AUG-CC-PVTZ
    Blend: AUG-CC-PVTZ
  Basis Set: (AUG-CC-PVTZ AUX)
    Blend: AUG-CC-PVTZ-JKFIT
	 Reference Energy          =    -590.3957120560523890 [Eh]
	 Singles Energy            =      -0.0000000000000000 [Eh]
	 Same-Spin Energy          =      -0.2672813604098510 [Eh]
	 Opposite-Spin Energy      =      -0.8614265854804608 [Eh]
	 Correlation Energy        =      -1.1287079458903118 [Eh]
	 Total Energy              =    -591.5244200019426444 [Eh]

	 ================> DF-SCS-MP2 Energies <==================
	-----------------------------------------------------------
	 SCS Same-Spin Scale       =       0.3333333333333333 [-]
	 SCS Opposite-Spin Scale   =       1.2000000000000000 [-]
	 SCS Same-Spin Energy      =      -0.0890937868032836 [Eh]
	 SCS Opposite-Spin Energy  =      -1.0337119025765529 [Eh]
	 SCS Correlation Energy    =      -1.1228056893798366 [Eh]
	 SCS Total Energy          =    -591.5185177454321774 [Eh]
	-----------------------------------------------------------

  Dipole Moment: [D]
     X:    -0.9626      Y:    -0.3709      Z:     0.4618     Total:     1.1302

*** Psi4 exiting successfully. Buy a developer a beer!
