                               Psi4 1.3.2 release

  ==> Input File <==

--------------------------------------------------------------------------
#psi4
#
memory 32 gb

molecule  {
0 1
  S        1.4017960     0.0318670    -0.2267910
  C        0.3439980    -1.2907520     0.4304430
  C       -1.0366050    -1.1980160    -0.1526860
  C       -1.6877140    -0.0149620    -0.1717330
  C       -1.0273490     1.2315180     0.1753310
  C        0.3208110     1.3651600     0.1119950
  H        0.3192380    -1.2040060     1.5241050
  H        0.8310050    -2.2339400     0.1718380
  H       -1.4314881    -1.9411365    -0.4336873
  H       -2.7141090     0.0333350    -0.5285000
  H       -1.6282610     2.1139460     0.3806850
  H        0.8050420     2.3317560     0.2174670
units angstrom
no_reorient  #important for SAPT in psi4, default
symmetry c1  #important for SAPT in psi4, default
}

set PROPERTIES_ORIGIN ["COM"]
properties('MP2/aug-cc-pvtz', properties = ['dipole'])
--------------------------------------------------------------------------

    Molecular point group: c1
  Charge       = 0
  Multiplicity = 1
  Basis Set: AUG-CC-PVTZ
    Blend: AUG-CC-PVTZ
  Basis Set: (AUG-CC-PVTZ AUX)
    Blend: AUG-CC-PVTZ-JKFIT

    Orbital Energies [Eh]
    ---------------------

    Doubly Occupied:

       1A    -91.961246     2A    -11.268407     3A    -11.266308
       4A    -11.240128     5A    -11.238995     6A    -11.219403
       7A     -8.961752     8A     -6.642994     9A     -6.642051
      10A     -6.641194    11A     -1.143350    12A     -1.034599
      13A     -1.018807    14A     -0.860322    15A     -0.837792
      16A     -0.707500    17A     -0.692674    18A     -0.608765
      19A     -0.599662    20A     -0.595073    21A     -0.535468
      22A     -0.488343    23A     -0.462686    24A     -0.450692
      25A     -0.363506    26A     -0.297277

  @DF-RHF Final Energy:  -590.37059786702002

   => Energetics <=

    Nuclear Repulsion Energy =            273.3446128918973272
    One-Electron Energy =               -1351.8724352313208783
    Two-Electron Energy =                 488.1572244724034135
    Total Energy =                       -590.3705978670200238
  Basis Set: (AUG-CC-PVTZ AUX)
    Blend: AUG-CC-PVTZ-RI
    Molecular point group: c1

    Geometry (in Angstrom), charge = 0, multiplicity = 1:

       Center              X                  Y                   Z               Mass
    ------------   -----------------  -----------------  -----------------  -----------------
         S            1.361726635181     0.019347576831    -0.214666332191    31.972071174400
         C            0.303928635181    -1.303271423169     0.442567667809    12.000000000000
         C           -1.076674364819    -1.210535423169    -0.140561332191    12.000000000000
         C           -1.727783364819    -0.027481423169    -0.159608332191    12.000000000000
         C           -1.067418364819     1.218998576831     0.187455667809    12.000000000000
         C            0.280741635181     1.352640576831     0.124119667809    12.000000000000
         H            0.279168635181    -1.216525423169     1.536229667809     1.007825032230
         H            0.790935635181    -2.246459423169     0.183962667809     1.007825032230
         H           -1.471557464819    -1.953655923169    -0.421562632191     1.007825032230
         H           -2.754178364819     0.020815576831    -0.516375332191     1.007825032230
         H           -1.668330364819     2.101426576831     0.392809667809     1.007825032230
         H            0.764972635181     2.319236576831     0.229591667809     1.007825032230

  Basis Set: AUG-CC-PVTZ
    Blend: AUG-CC-PVTZ
  Basis Set: (AUG-CC-PVTZ AUX)
    Blend: AUG-CC-PVTZ-JKFIT
	 Reference Energy          =    -590.3705978670200238 [Eh]
	 Singles Energy            =      -0.0000000000000000 [Eh]
	 Same-Spin Energy          =      -0.2676321546547832 [Eh]
	 Opposite-Spin Energy      =      -0.8622403764169624 [Eh]
	 Correlation Energy        =      -1.1298725310717455 [Eh]
	 Total Energy              =    -591.5004703980918066 [Eh]

	 ================> DF-SCS-MP2 Energies <==================
	-----------------------------------------------------------
	 SCS Same-Spin Scale       =       0.3333333333333333 [-]
	 SCS Opposite-Spin Scale   =       1.2000000000000000 [-]
	 SCS Same-Spin Energy      =      -0.0892107182182611 [Eh]
	 SCS Opposite-Spin Energy  =      -1.0346884517003547 [Eh]
	 SCS Correlation Energy    =      -1.1238991699186158 [Eh]
	 SCS Total Energy          =    -591.4944970369385828 [Eh]
	-----------------------------------------------------------

  Dipole Moment: [D]
     X:    -0.9001      Y:    -0.3861      Z:     0.4854     Total:     1.0931

*** Psi4 exiting successfully. Buy a developer a beer!
