                               Psi4 1.3.2 release

  ==> Input File <==

--------------------------------------------------------------------------
#psi4
#
memory 32 gb

molecule  {
0 1
  S        1.4017960     0.0318670    -0.2267910
  C        0.3439980    -1.2907520     0.4304430
  C       -1.0366050    -1.1980160    -0.1526860
  C       -1.6877140    -0.0149620    -0.1717330
  C       -1.0273490     1.2315180     0.1753310
  C        0.3208110     1.3651600     0.1119950
  H        0.3192380    -1.2040060     1.5241050
  H        0.8310050    -2.2339400     0.1718380
  H       -1.5205060    -2.1086570    -0.4970330
  H       -2.7141090     0.0333350    -0.5285000
  H       -1.6282610     2.1139460     0.3806850
  H        0.7604633     2.2427703     0.2077572
units angstrom
no_reorient  #important for SAPT in psi4, default
symmetry c1  #important for SAPT in psi4, default
}

set PROPERTIES_ORIGIN ["COM"]
properties('MP2/aug-cc-pvtz', properties = ['dipole'])
--------------------------------------------------------------------------

    Molecular point group: c1
  Charge       = 0
  Multiplicity = 1
  Basis Set: AUG-CC-PVTZ
    Blend: AUG-CC-PVTZ
  Basis Set: (AUG-CC-PVTZ AUX)
    Blend: AUG-CC-PVTZ-JKFIT

    Orbital Energies [Eh]
    ---------------------

    Doubly Occupied:

       1A    -91.961306     2A    -11.267608     3A    -11.257357
       4A    -11.243415     5A    -11.240832     6A    -11.239060
       7A     -8.961863     8A     -6.643115     9A     -6.642169
      10A     -6.641316    11A     -1.142505    12A     -1.030474
      13A     -1.018881    14A     -0.859385    15A     -0.826614
      16A     -0.706344    17A     -0.681273    18A     -0.610607
      19A     -0.600660    20A     -0.587832    21A     -0.534776
      22A     -0.487189    23A     -0.462988    24A     -0.450461
      25A     -0.363868    26A     -0.297543

  @DF-RHF Final Energy:  -590.39950432722185

   => Energetics <=

    Nuclear Repulsion Energy =            272.7563728302291111
    One-Electron Energy =               -1350.7928709193556642
    Two-Electron Energy =                 487.6369937619047050
    Total Energy =                       -590.3995043272218481
  Basis Set: (AUG-CC-PVTZ AUX)
    Blend: AUG-CC-PVTZ-RI
    Molecular point group: c1

    Geometry (in Angstrom), charge = 0, multiplicity = 1:

       Center              X                  Y                   Z               Mass
    ------------   -----------------  -----------------  -----------------  -----------------
         S            1.363100266501     0.021984956451    -0.213915180419    31.972071174400
         C            0.305302266501    -1.300634043549     0.443318819581    12.000000000000
         C           -1.075300733499    -1.207898043549    -0.139810180419    12.000000000000
         C           -1.726409733499    -0.024844043549    -0.158857180419    12.000000000000
         C           -1.066044733499     1.221635956451     0.188206819581    12.000000000000
         C            0.282115266501     1.355277956451     0.124870819581    12.000000000000
         H            0.280542266501    -1.213888043549     1.536980819581     1.007825032230
         H            0.792309266501    -2.243822043549     0.184713819581     1.007825032230
         H           -1.559201733499    -2.118539043549    -0.484157180419     1.007825032230
         H           -2.752804733499     0.023452956451    -0.515624180419     1.007825032230
         H           -1.666956733499     2.104063956451     0.393560819581     1.007825032230
         H            0.721767566501     2.232888256451     0.220633019581     1.007825032230

  Basis Set: AUG-CC-PVTZ
    Blend: AUG-CC-PVTZ
  Basis Set: (AUG-CC-PVTZ AUX)
    Blend: AUG-CC-PVTZ-JKFIT
	 Reference Energy          =    -590.3995043272218481 [Eh]
	 Singles Energy            =      -0.0000000000000000 [Eh]
	 Same-Spin Energy          =      -0.2676310594648392 [Eh]
	 Opposite-Spin Energy      =      -0.8622170457709590 [Eh]
	 Correlation Energy        =      -1.1298481052357983 [Eh]
	 Total Energy              =    -591.5293524324576993 [Eh]

	 ================> DF-SCS-MP2 Energies <==================
	-----------------------------------------------------------
	 SCS Same-Spin Scale       =       0.3333333333333333 [-]
	 SCS Opposite-Spin Scale   =       1.2000000000000000 [-]
	 SCS Same-Spin Energy      =      -0.0892103531549464 [Eh]
	 SCS Opposite-Spin Energy  =      -1.0346604549251508 [Eh]
	 SCS Correlation Energy    =      -1.1238708080800972 [Eh]
	 SCS Total Energy          =    -591.5233751353019898 [Eh]
	-----------------------------------------------------------

  Dipole Moment: [D]
     X:    -0.8704      Y:    -0.3453      Z:     0.4958     Total:     1.0596

*** Psi4 exiting successfully. Buy a developer a beer!
