                               Psi4 1.3.2 release

  ==> Input File <==

--------------------------------------------------------------------------
#psi4
#
memory 32 gb

molecule  {
0 1
  S        1.4017960     0.0318670    -0.2267910
  C        0.3439980    -1.2907520     0.4304430
  C       -1.0764214    -1.2192108    -0.1663827
  C       -1.6877140    -0.0149620    -0.1717330
  C       -1.0273490     1.2315180     0.1753310
  C        0.3208110     1.3651600     0.1119950
  H        0.3192380    -1.2040060     1.5241050
  H        0.8310050    -2.2339400     0.1718380
  H       -1.5205060    -2.1086570    -0.4970330
  H       -2.7141090     0.0333350    -0.5285000
  H       -1.6282610     2.1139460     0.3806850
  H        0.8050420     2.3317560     0.2174670
units angstrom
no_reorient  #important for SAPT in psi4, default
symmetry c1  #important for SAPT in psi4, default
}

set PROPERTIES_ORIGIN ["COM"]
properties('MP2/aug-cc-pvtz', properties = ['dipole'])
--------------------------------------------------------------------------

    Molecular point group: c1
  Charge       = 0
  Multiplicity = 1
  Basis Set: AUG-CC-PVTZ
    Blend: AUG-CC-PVTZ
  Basis Set: (AUG-CC-PVTZ AUX)
    Blend: AUG-CC-PVTZ-JKFIT

    Orbital Energies [Eh]
    ---------------------

    Doubly Occupied:

       1A    -91.962199     2A    -11.269680     3A    -11.268732
       4A    -11.242398     5A    -11.241775     6A    -11.240052
       7A     -8.962627     8A     -6.643881     9A     -6.642914
      10A     -6.642073    11A     -1.138307    12A     -1.024597
      13A     -1.017885    14A     -0.858022    15A     -0.820284
      16A     -0.691840    17A     -0.686759    18A     -0.606101
      19A     -0.597720    20A     -0.588807    21A     -0.525986
      22A     -0.488315    23A     -0.462718    24A     -0.449168
      25A     -0.364709    26A     -0.298430

  @DF-RHF Final Energy:  -590.40365653335459

   => Energetics <=

    Nuclear Repulsion Energy =            271.4821590491222878
    One-Electron Energy =               -1348.2996756531015308
    Two-Electron Energy =                 486.4138600706245370
    Total Energy =                       -590.4036565333545923
  Basis Set: (AUG-CC-PVTZ AUX)
    Blend: AUG-CC-PVTZ-RI
    Molecular point group: c1

    Geometry (in Angstrom), charge = 0, multiplicity = 1:

       Center              X                  Y                   Z               Mass
    ------------   -----------------  -----------------  -----------------  -----------------
         S            1.367516442710     0.023664789424    -0.212338194459    31.972071174400
         C            0.309718442710    -1.298954210576     0.444895805541    12.000000000000
         C           -1.110700957290    -1.227413010576    -0.151929894459    12.000000000000
         C           -1.721993557290    -0.023164210576    -0.157280194459    12.000000000000
         C           -1.061628557290     1.223315789424     0.189783805541    12.000000000000
         C            0.286531442710     1.356957789424     0.126447805541    12.000000000000
         H            0.284958442710    -1.212208210576     1.538557805541     1.007825032230
         H            0.796725442710    -2.242142210576     0.186290805541     1.007825032230
         H           -1.554785557290    -2.116859210576    -0.482580194459     1.007825032230
         H           -2.748388557290     0.025132789424    -0.514047194459     1.007825032230
         H           -1.662540557290     2.105743789424     0.395137805541     1.007825032230
         H            0.770762442710     2.323553789424     0.231919805541     1.007825032230

  Basis Set: AUG-CC-PVTZ
    Blend: AUG-CC-PVTZ
  Basis Set: (AUG-CC-PVTZ AUX)
    Blend: AUG-CC-PVTZ-JKFIT
	 Reference Energy          =    -590.4036565333545923 [Eh]
	 Singles Energy            =      -0.0000000000000000 [Eh]
	 Same-Spin Energy          =      -0.2674168207288041 [Eh]
	 Opposite-Spin Energy      =      -0.8624320415520814 [Eh]
	 Correlation Energy        =      -1.1298488622808855 [Eh]
	 Total Energy              =    -591.5335053956355296 [Eh]

	 ================> DF-SCS-MP2 Energies <==================
	-----------------------------------------------------------
	 SCS Same-Spin Scale       =       0.3333333333333333 [-]
	 SCS Opposite-Spin Scale   =       1.2000000000000000 [-]
	 SCS Same-Spin Energy      =      -0.0891389402429347 [Eh]
	 SCS Opposite-Spin Energy  =      -1.0349184498624977 [Eh]
	 SCS Correlation Energy    =      -1.1240573901054325 [Eh]
	 SCS Total Energy          =    -591.5277139234600554 [Eh]
	-----------------------------------------------------------

  Dipole Moment: [D]
     X:    -0.8652      Y:    -0.3524      Z:     0.4794     Total:     1.0501

*** Psi4 exiting successfully. Buy a developer a beer!
