                               Psi4 1.3.2 release

  ==> Input File <==

--------------------------------------------------------------------------
#psi4
#
memory 32 gb

molecule  {
0 1
  S        1.4017960     0.0318670    -0.2267910
  C        0.3439980    -1.2907520     0.4304430
  C       -1.0366050    -1.1980160    -0.1526860
  C       -1.7101760    -0.0033999    -0.1695932
  C       -1.0273490     1.2315180     0.1753310
  C        0.3208110     1.3651600     0.1119950
  H        0.3192380    -1.2040060     1.5241050
  H        0.8310050    -2.2339400     0.1718380
  H       -1.5205060    -2.1086570    -0.4970330
  H       -2.7141090     0.0333350    -0.5285000
  H       -1.6282610     2.1139460     0.3806850
  H        0.8050420     2.3317560     0.2174670
units angstrom
no_reorient  #important for SAPT in psi4, default
symmetry c1  #important for SAPT in psi4, default
}

set PROPERTIES_ORIGIN ["COM"]
properties('MP2/aug-cc-pvtz', properties = ['dipole'])
--------------------------------------------------------------------------

    Molecular point group: c1
  Charge       = 0
  Multiplicity = 1
  Basis Set: AUG-CC-PVTZ
    Blend: AUG-CC-PVTZ
  Basis Set: (AUG-CC-PVTZ AUX)
    Blend: AUG-CC-PVTZ-JKFIT

    Orbital Energies [Eh]
    ---------------------

    Doubly Occupied:

       1A    -91.962239     2A    -11.268720     3A    -11.268532
       4A    -11.246974     5A    -11.241451     6A    -11.240514
       7A     -8.962726     8A     -6.643962     9A     -6.643020
      10A     -6.642158    11A     -1.139882    12A     -1.025353
      13A     -1.018382    14A     -0.859175    15A     -0.817975
      16A     -0.697302    17A     -0.679574    18A     -0.609795
      19A     -0.598260    20A     -0.581764    21A     -0.540669
      22A     -0.482767    23A     -0.463299    24A     -0.449972
      25A     -0.362382    26A     -0.296092

  @DF-RHF Final Energy:  -590.40367879611745

   => Energetics <=

    Nuclear Repulsion Energy =            271.7989039664904567
    One-Electron Energy =               -1348.9192874435509566
    Two-Electron Energy =                 486.7167046809429394
    Total Energy =                       -590.4036787961174468
  Basis Set: (AUG-CC-PVTZ AUX)
    Blend: AUG-CC-PVTZ-RI
    Molecular point group: c1

    Geometry (in Angstrom), charge = 0, multiplicity = 1:

       Center              X                  Y                   Z               Mass
    ------------   -----------------  -----------------  -----------------  -----------------
         S            1.365391826517     0.019654518820    -0.214276981414    31.972071174400
         C            0.307593826517    -1.302964481180     0.442957018586    12.000000000000
         C           -1.073009173483    -1.210228481180    -0.140171981414    12.000000000000
         C           -1.746580173483    -0.015612381180    -0.157079181414    12.000000000000
         C           -1.063753173483     1.219305518820     0.187845018586    12.000000000000
         C            0.284406826517     1.352947518820     0.124509018586    12.000000000000
         H            0.282833826517    -1.216218481180     1.536619018586     1.007825032230
         H            0.794600826517    -2.246152481180     0.184352018586     1.007825032230
         H           -1.556910173483    -2.120869481180    -0.484518981414     1.007825032230
         H           -2.750513173483     0.021122518820    -0.515985981414     1.007825032230
         H           -1.664665173483     2.101733518820     0.393199018586     1.007825032230
         H            0.768637826517     2.319543518820     0.229981018586     1.007825032230

  Basis Set: AUG-CC-PVTZ
    Blend: AUG-CC-PVTZ
  Basis Set: (AUG-CC-PVTZ AUX)
    Blend: AUG-CC-PVTZ-JKFIT
	 Reference Energy          =    -590.4036787961174468 [Eh]
	 Singles Energy            =      -0.0000000000000000 [Eh]
	 Same-Spin Energy          =      -0.2680549100563320 [Eh]
	 Opposite-Spin Energy      =      -0.8631825273216516 [Eh]
	 Correlation Energy        =      -1.1312374373779837 [Eh]
	 Total Energy              =    -591.5349162334954372 [Eh]

	 ================> DF-SCS-MP2 Energies <==================
	-----------------------------------------------------------
	 SCS Same-Spin Scale       =       0.3333333333333333 [-]
	 SCS Opposite-Spin Scale   =       1.2000000000000000 [-]
	 SCS Same-Spin Energy      =      -0.0893516366854440 [Eh]
	 SCS Opposite-Spin Energy  =      -1.0358190327859818 [Eh]
	 SCS Correlation Energy    =      -1.1251706694714256 [Eh]
	 SCS Total Energy          =    -591.5288494655889053 [Eh]
	-----------------------------------------------------------

  Dipole Moment: [D]
     X:    -0.8541      Y:    -0.3605      Z:     0.4888     Total:     1.0480

*** Psi4 exiting successfully. Buy a developer a beer!
