                               Psi4 1.3.2 release

  ==> Input File <==

--------------------------------------------------------------------------
#psi4
#
memory 32 gb

molecule  {
0 1
  S        1.4960348    -0.0141710    -0.1555318
  C        0.3439980    -1.2907520     0.4304430
  C       -1.0366050    -1.1980160    -0.1526860
  C       -1.6877140    -0.0149620    -0.1717330
  C       -1.0273490     1.2315180     0.1753310
  C        0.3208110     1.3651600     0.1119950
  H        0.3192380    -1.2040060     1.5241050
  H        0.8310050    -2.2339400     0.1718380
  H       -1.5205060    -2.1086570    -0.4970330
  H       -2.7141090     0.0333350    -0.5285000
  H       -1.6282610     2.1139460     0.3806850
  H        0.8050420     2.3317560     0.2174670
units angstrom
no_reorient  #important for SAPT in psi4, default
symmetry c1  #important for SAPT in psi4, default
}

set PROPERTIES_ORIGIN ["COM"]
properties('MP2/aug-cc-pvtz', properties = ['dipole'])
--------------------------------------------------------------------------

    Molecular point group: c1
  Charge       = 0
  Multiplicity = 1
  Basis Set: AUG-CC-PVTZ
    Blend: AUG-CC-PVTZ
  Basis Set: (AUG-CC-PVTZ AUX)
    Blend: AUG-CC-PVTZ-JKFIT

    Orbital Energies [Eh]
    ---------------------

    Doubly Occupied:

       1A    -91.965261     2A    -11.275007     3A    -11.266855
       4A    -11.244499     5A    -11.244187     6A    -11.241112
       7A     -8.964176     8A     -6.645295     9A     -6.644323
      10A     -6.643496    11A     -1.135237    12A     -1.025446
      13A     -1.013684    14A     -0.854459    15A     -0.819695
      16A     -0.691835    17A     -0.681366    18A     -0.609434
      19A     -0.600300    20A     -0.579024    21A     -0.533018
      22A     -0.475924    23A     -0.459415    24A     -0.448970
      25A     -0.367490    26A     -0.300204

  @DF-RHF Final Energy:  -590.40116702275134

   => Energetics <=

    Nuclear Repulsion Energy =            269.2491902380633633
    One-Electron Energy =               -1343.8412948675384087
    Two-Electron Energy =                 484.1909376067236508
    Total Energy =                       -590.4011670227513378
  Basis Set: (AUG-CC-PVTZ AUX)
    Blend: AUG-CC-PVTZ-RI
    Molecular point group: c1

    Geometry (in Angstrom), charge = 0, multiplicity = 1:

       Center              X                  Y                   Z               Mass
    ------------   -----------------  -----------------  -----------------  -----------------
         S            1.426141681462    -0.009951207217    -0.165999306661    31.972071174400
         C            0.274104881462    -1.286532207217     0.419975493339    12.000000000000
         C           -1.106498118538    -1.193796207217    -0.163153506661    12.000000000000
         C           -1.757607118538    -0.010742207217    -0.182200506661    12.000000000000
         C           -1.097242118538     1.235737792783     0.164863493339    12.000000000000
         C            0.250917881462     1.369379792783     0.101527493339    12.000000000000
         H            0.249344881462    -1.199786207217     1.513637493339     1.007825032230
         H            0.761111881462    -2.229720207217     0.161370493339     1.007825032230
         H           -1.590399118538    -2.104437207217    -0.507500506661     1.007825032230
         H           -2.784002118538     0.037554792783    -0.538967506661     1.007825032230
         H           -1.698154118538     2.118165792783     0.370217493339     1.007825032230
         H            0.735148881462     2.335975792783     0.206999493339     1.007825032230

  Basis Set: AUG-CC-PVTZ
    Blend: AUG-CC-PVTZ
  Basis Set: (AUG-CC-PVTZ AUX)
    Blend: AUG-CC-PVTZ-JKFIT
	 Reference Energy          =    -590.4011670227513378 [Eh]
	 Singles Energy            =      -0.0000000000000000 [Eh]
	 Same-Spin Energy          =      -0.2668418570911091 [Eh]
	 Opposite-Spin Energy      =      -0.8629814150632329 [Eh]
	 Correlation Energy        =      -1.1298232721543420 [Eh]
	 Total Energy              =    -591.5309902949056777 [Eh]

	 ================> DF-SCS-MP2 Energies <==================
	-----------------------------------------------------------
	 SCS Same-Spin Scale       =       0.3333333333333333 [-]
	 SCS Opposite-Spin Scale   =       1.2000000000000000 [-]
	 SCS Same-Spin Energy      =      -0.0889472856970364 [Eh]
	 SCS Opposite-Spin Energy  =      -1.0355776980758795 [Eh]
	 SCS Correlation Energy    =      -1.1245249837729159 [Eh]
	 SCS Total Energy          =    -591.5256920065243094 [Eh]
	-----------------------------------------------------------

  Dipole Moment: [D]
     X:    -1.0086      Y:    -0.3015      Z:     0.4754     Total:     1.1550

*** Psi4 exiting successfully. Buy a developer a beer!
