                               Psi4 1.4a3.dev225

  ==> Input File <==

--------------------------------------------------------------------------
#psi4
#
memory 32 gb

molecule  {
0 1
  S        1.4017960     0.0318670    -0.2267910
  C        0.3439980    -1.2907520     0.4304430
  C       -1.0549938    -1.1967808    -0.1604529
  C       -1.6877140    -0.0149620    -0.1717330
  C       -1.0273490     1.2315180     0.1753310
  C        0.3208110     1.3651600     0.1119950
  H        0.3192380    -1.2040060     1.5241050
  H        0.8310050    -2.2339400     0.1718380
  H       -1.5205060    -2.1086570    -0.4970330
  H       -2.7141090     0.0333350    -0.5285000
  H       -1.6282610     2.1139460     0.3806850
  H        0.8050420     2.3317560     0.2174670
units angstrom
no_reorient  #important for SAPT in psi4, default
symmetry c1  #important for SAPT in psi4, default
}

set PROPERTIES_ORIGIN ["COM"]
properties('MP2/aug-cc-pvtz', properties = ['dipole'])
--------------------------------------------------------------------------

    Molecular point group: c1
  Charge       = 0
  Multiplicity = 1
  Basis Set: AUG-CC-PVTZ
    Blend: AUG-CC-PVTZ
  Basis Set: (AUG-CC-PVTZ AUX)
    Blend: AUG-CC-PVTZ-JKFIT

    Orbital Energies [Eh]
    ---------------------

    Doubly Occupied:

       1A    -91.961841     2A    -11.268865     3A    -11.268363
       4A    -11.242421     5A    -11.241125     6A    -11.238291
       7A     -8.962329     8A     -6.643575     9A     -6.642624
      10A     -6.641769    11A     -1.140870    12A     -1.025538
      13A     -1.019288    14A     -0.859433    15A     -0.817366
      16A     -0.693553    17A     -0.681838    18A     -0.607666
      19A     -0.599044    20A     -0.585960    21A     -0.531262
      22A     -0.485345    23A     -0.462871    24A     -0.450376
      25A     -0.364944    26A     -0.298622

  @DF-RHF Final Energy:  -590.40578363469547

   => Energetics <=

    Nuclear Repulsion Energy =            272.0311869904031710
    One-Electron Energy =               -1349.4035840384790390
    Two-Electron Energy =                 486.9666134133805144
    Total Energy =                       -590.4057836346954673
  Basis Set: (AUG-CC-PVTZ AUX)
    Blend: AUG-CC-PVTZ-RI
    Molecular point group: c1

    Geometry (in Angstrom), charge = 0, multiplicity = 1:

       Center              X                  Y                   Z               Mass
    ------------   -----------------  -----------------  -----------------  -----------------
         S            1.364893164122     0.020918791797    -0.213064151513    31.972071174400
         C            0.307095164122    -1.301700208203     0.444169848487    12.000000000000
         C           -1.091896635878    -1.207729008203    -0.146726051513    12.000000000000
         C           -1.724616835878    -0.025910208203    -0.158006151513    12.000000000000
         C           -1.064251835878     1.220569791797     0.189057848487    12.000000000000
         C            0.283908164122     1.354211791797     0.125721848487    12.000000000000
         H            0.282335164122    -1.214954208203     1.537831848487     1.007825032230
         H            0.794102164122    -2.244888208203     0.185564848487     1.007825032230
         H           -1.557408835878    -2.119605208203    -0.483306151513     1.007825032230
         H           -2.751011835878     0.022386791797    -0.514773151513     1.007825032230
         H           -1.665163835878     2.102997791797     0.394411848487     1.007825032230
         H            0.768139164122     2.320807791797     0.231193848487     1.007825032230

  Basis Set: AUG-CC-PVTZ
    Blend: AUG-CC-PVTZ
  Basis Set: (AUG-CC-PVTZ AUX)
    Blend: AUG-CC-PVTZ-JKFIT
	 Reference Energy          =    -590.4057836346954673 [Eh]
	 Singles Energy            =      -0.0000000000000000 [Eh]
	 Same-Spin Energy          =      -0.2674818483901382 [Eh]
	 Opposite-Spin Energy      =      -0.8622078536182674 [Eh]
	 Correlation Energy        =      -1.1296897020084056 [Eh]
	 Total Energy              =    -591.5354733367038307 [Eh]

	 ================> DF-SCS-MP2 Energies <==================
	-----------------------------------------------------------
	 SCS Same-Spin Scale       =       0.3333333333333333 [-]
	 SCS Opposite-Spin Scale   =       1.2000000000000000 [-]
	 SCS Same-Spin Energy      =      -0.0891606161300461 [Eh]
	 SCS Opposite-Spin Energy  =      -1.0346494243419209 [Eh]
	 SCS Correlation Energy    =      -1.1238100404719669 [Eh]
	 SCS Total Energy          =    -591.5295936751674617 [Eh]
	-----------------------------------------------------------

  Dipole Moment: [D]
     X:    -0.8696      Y:    -0.3634      Z:     0.4917     Total:     1.0630

*** Psi4 exiting successfully. Buy a developer a beer!
