                               Psi4 1.3.2 release

  ==> Input File <==

--------------------------------------------------------------------------
#psi4
#
memory 32 gb

molecule  {
0 1
  S        1.4017960     0.0318670    -0.2267910
  C        0.3439980    -1.2907520     0.4304430
  C       -1.0366050    -1.1980160    -0.1526860
  C       -1.8188682     0.0547107    -0.1391045
  C       -1.0273490     1.2315180     0.1753310
  C        0.3208110     1.3651600     0.1119950
  H        0.3192380    -1.2040060     1.5241050
  H        0.8310050    -2.2339400     0.1718380
  H       -1.5205060    -2.1086570    -0.4970330
  H       -2.7141090     0.0333350    -0.5285000
  H       -1.6282610     2.1139460     0.3806850
  H        0.8050420     2.3317560     0.2174670
units angstrom
no_reorient  #important for SAPT in psi4, default
symmetry c1  #important for SAPT in psi4, default
}

set PROPERTIES_ORIGIN ["COM"]
properties('MP2/aug-cc-pvtz', properties = ['dipole'])
--------------------------------------------------------------------------

    Molecular point group: c1
  Charge       = 0
  Multiplicity = 1
  Basis Set: AUG-CC-PVTZ
    Blend: AUG-CC-PVTZ
  Basis Set: (AUG-CC-PVTZ AUX)
    Blend: AUG-CC-PVTZ-JKFIT

    Orbital Energies [Eh]
    ---------------------

    Doubly Occupied:

       1A    -91.963536     2A    -11.272233     3A    -11.268826
       4A    -11.264622     5A    -11.247126     6A    -11.243546
       7A     -8.963953     8A     -6.645176     9A     -6.644246
      10A     -6.643377    11A     -1.133256    12A     -1.026546
      13A     -1.011921    14A     -0.860671    15A     -0.820187
      16A     -0.714262    17A     -0.675823    18A     -0.616915
      19A     -0.594853    20A     -0.567632    21A     -0.561881
      22A     -0.477272    23A     -0.461488    24A     -0.446517
      25A     -0.356651    26A     -0.287969

  @DF-RHF Final Energy:  -590.37120211647482

   => Energetics <=

    Nuclear Repulsion Energy =            269.9439959953327843
    One-Electron Energy =               -1345.0894245273016168
    Two-Electron Energy =                 484.7742264154938994
    Total Energy =                       -590.3712021164748194
  Basis Set: (AUG-CC-PVTZ AUX)
    Blend: AUG-CC-PVTZ-RI
    Molecular point group: c1

    Geometry (in Angstrom), charge = 0, multiplicity = 1:

       Center              X                  Y                   Z               Mass
    ------------   -----------------  -----------------  -----------------  -----------------
         S            1.378698492732     0.012540315982    -0.218009567140    31.972071174400
         C            0.320900492732    -1.310078684018     0.439224432860    12.000000000000
         C           -1.059702507268    -1.217342684018    -0.143904567140    12.000000000000
         C           -1.841965707268     0.035384015982    -0.130323067140    12.000000000000
         C           -1.050446507268     1.212191315982     0.184112432860    12.000000000000
         C            0.297713492732     1.345833315982     0.120776432860    12.000000000000
         H            0.296140492732    -1.223332684018     1.532886432860     1.007825032230
         H            0.807907492732    -2.253266684018     0.180619432860     1.007825032230
         H           -1.543603507268    -2.127983684018    -0.488251567140     1.007825032230
         H           -2.737206507268     0.014008315982    -0.519718567140     1.007825032230
         H           -1.651358507268     2.094619315982     0.389466432860     1.007825032230
         H            0.781944492732     2.312429315982     0.226248432860     1.007825032230

  Basis Set: AUG-CC-PVTZ
    Blend: AUG-CC-PVTZ
  Basis Set: (AUG-CC-PVTZ AUX)
    Blend: AUG-CC-PVTZ-JKFIT
	 Reference Energy          =    -590.3712021164748194 [Eh]
	 Singles Energy            =      -0.0000000000000000 [Eh]
	 Same-Spin Energy          =      -0.2699249569547061 [Eh]
	 Opposite-Spin Energy      =      -0.8675347509388341 [Eh]
	 Correlation Energy        =      -1.1374597078935402 [Eh]
	 Total Energy              =    -591.5086618243683461 [Eh]

	 ================> DF-SCS-MP2 Energies <==================
	-----------------------------------------------------------
	 SCS Same-Spin Scale       =       0.3333333333333333 [-]
	 SCS Opposite-Spin Scale   =       1.2000000000000000 [-]
	 SCS Same-Spin Energy      =      -0.0899749856515687 [Eh]
	 SCS Opposite-Spin Energy  =      -1.0410417011266009 [Eh]
	 SCS Correlation Energy    =      -1.1310166867781697 [Eh]
	 SCS Total Energy          =    -591.5022188032529584 [Eh]
	-----------------------------------------------------------

  Dipole Moment: [D]
     X:    -0.7810      Y:    -0.3650      Z:     0.4540     Total:     0.9743

*** Psi4 exiting successfully. Buy a developer a beer!
