                               Psi4 1.3.2 release

  ==> Input File <==

--------------------------------------------------------------------------
#psi4
#
memory 32 gb

molecule  {
0 1
  S        1.4017960     0.0318670    -0.2267910
  C        0.3439980    -1.2907520     0.4304430
  C       -1.0366050    -1.1980160    -0.1526860
  C       -1.6877140    -0.0149620    -0.1717330
  C       -1.0273490     1.2315180     0.1753310
  C        0.3208110     1.3651600     0.1119950
  H        0.3192380    -1.2040060     1.5241050
  H        0.8310050    -2.2339400     0.1718380
  H       -1.5205060    -2.1086570    -0.4970330
  H       -2.7141090     0.0333350    -0.5285000
  H       -1.6282610     2.1139460     0.3806850
  H        0.8941995     2.5097274     0.2368867
units angstrom
no_reorient  #important for SAPT in psi4, default
symmetry c1  #important for SAPT in psi4, default
}

set PROPERTIES_ORIGIN ["COM"]
properties('MP2/aug-cc-pvtz', properties = ['dipole'])
--------------------------------------------------------------------------

    Molecular point group: c1
  Charge       = 0
  Multiplicity = 1
  Basis Set: AUG-CC-PVTZ
    Blend: AUG-CC-PVTZ
  Basis Set: (AUG-CC-PVTZ AUX)
    Blend: AUG-CC-PVTZ-JKFIT

    Orbital Energies [Eh]
    ---------------------

    Doubly Occupied:

       1A    -91.964190     2A    -11.288731     3A    -11.268835
       4A    -11.244292     5A    -11.242286     6A    -11.240675
       7A     -8.964524     8A     -6.645733     9A     -6.644796
      10A     -6.643915    11A     -1.141674    12A     -1.023300
      13A     -1.018958    14A     -0.860743    15A     -0.806957
      16A     -0.685164    17A     -0.669826    18A     -0.607640
      19A     -0.599047    20A     -0.570972    21A     -0.535454
      22A     -0.474239    23A     -0.464135    24A     -0.451340
      25A     -0.364303    26A     -0.298613

  @DF-RHF Final Energy:  -590.38336944362788

   => Energetics <=

    Nuclear Repulsion Energy =            271.2739625195445115
    One-Electron Energy =               -1347.8739794460855137
    Two-Electron Energy =                 486.2166474829130607
    Total Energy =                       -590.3833694436279984
  Basis Set: (AUG-CC-PVTZ AUX)
    Blend: AUG-CC-PVTZ-RI
    Molecular point group: c1

    Geometry (in Angstrom), charge = 0, multiplicity = 1:

       Center              X                  Y                   Z               Mass
    ------------   -----------------  -----------------  -----------------  -----------------
         S            1.361725199823     0.019240121376    -0.214214687992    31.972071174400
         C            0.303927199823    -1.303378878624     0.443019312008    12.000000000000
         C           -1.076675800177    -1.210642878624    -0.140109687992    12.000000000000
         C           -1.727784800177    -0.027588878624    -0.159156687992    12.000000000000
         C           -1.067419800177     1.218891121376     0.187907312008    12.000000000000
         C            0.280740199823     1.352533121376     0.124571312008    12.000000000000
         H            0.279167199823    -1.216632878624     1.536681312008     1.007825032230
         H            0.790934199823    -2.246566878624     0.184414312008     1.007825032230
         H           -1.560576800177    -2.121283878624    -0.484456687992     1.007825032230
         H           -2.754179800177     0.020708121376    -0.515923687992     1.007825032230
         H           -1.668331800177     2.101319121376     0.393261312008     1.007825032230
         H            0.854128699823     2.497100521376     0.249463012008     1.007825032230

  Basis Set: AUG-CC-PVTZ
    Blend: AUG-CC-PVTZ
  Basis Set: (AUG-CC-PVTZ AUX)
    Blend: AUG-CC-PVTZ-JKFIT
	 Reference Energy          =    -590.3833694436278847 [Eh]
	 Singles Energy            =      -0.0000000000000000 [Eh]
	 Same-Spin Energy          =      -0.2683450851178914 [Eh]
	 Opposite-Spin Energy      =      -0.8646405495221382 [Eh]
	 Correlation Energy        =      -1.1329856346400295 [Eh]
	 Total Energy              =    -591.5163550782679067 [Eh]

	 ================> DF-SCS-MP2 Energies <==================
	-----------------------------------------------------------
	 SCS Same-Spin Scale       =       0.3333333333333333 [-]
	 SCS Opposite-Spin Scale   =       1.2000000000000000 [-]
	 SCS Same-Spin Energy      =      -0.0894483617059638 [Eh]
	 SCS Opposite-Spin Energy  =      -1.0375686594265658 [Eh]
	 SCS Correlation Energy    =      -1.1270170211325297 [Eh]
	 SCS Total Energy          =    -591.5103864647603586 [Eh]
	-----------------------------------------------------------

  Dipole Moment: [D]
     X:    -0.8590      Y:    -0.4297      Z:     0.4911     Total:     1.0788

*** Psi4 exiting successfully. Buy a developer a beer!
