                               Psi4 1.3.2 release

  ==> Input File <==

--------------------------------------------------------------------------
#psi4
#
memory 32 gb

molecule  {
0 1
  S        1.4017960     0.0318670    -0.2267910
  C        0.3439980    -1.2907520     0.4304430
  C       -1.0564171    -1.2087952    -0.1595325
  C       -1.6877140    -0.0149620    -0.1717330
  C       -1.0273490     1.2315180     0.1753310
  C        0.3208110     1.3651600     0.1119950
  H        0.3192380    -1.2040060     1.5241050
  H        0.8310050    -2.2339400     0.1718380
  H       -1.5205060    -2.1086570    -0.4970330
  H       -2.7141090     0.0333350    -0.5285000
  H       -1.6282610     2.1139460     0.3806850
  H        0.8050420     2.3317560     0.2174670
units angstrom
no_reorient  #important for SAPT in psi4, default
symmetry c1  #important for SAPT in psi4, default
}

set PROPERTIES_ORIGIN ["COM"]
properties('MP2/aug-cc-pvtz', properties = ['dipole'])
--------------------------------------------------------------------------

    Molecular point group: c1
  Charge       = 0
  Multiplicity = 1
  Basis Set: AUG-CC-PVTZ
    Blend: AUG-CC-PVTZ
  Basis Set: (AUG-CC-PVTZ AUX)
    Blend: AUG-CC-PVTZ-JKFIT

    Orbital Energies [Eh]
    ---------------------

    Doubly Occupied:

       1A    -91.962112     2A    -11.269179     3A    -11.268306
       4A    -11.242858     5A    -11.241412     6A    -11.239708
       7A     -8.962577     8A     -6.643824     9A     -6.642867
      10A     -6.642017    11A     -1.139927    12A     -1.025247
      13A     -1.018620    14A     -0.858797    15A     -0.818634
      16A     -0.692997    17A     -0.683335    18A     -0.607456
      19A     -0.598598    20A     -0.586596    21A     -0.530518
      22A     -0.486185    23A     -0.463009    24A     -0.450000
      25A     -0.364328    26A     -0.298059

  @DF-RHF Final Energy:  -590.40519898107061

   => Energetics <=

    Nuclear Repulsion Energy =            271.8397869346168818
    One-Electron Energy =               -1349.0156438593767234
    Two-Electron Energy =                 486.7706579436894003
    Total Energy =                       -590.4051989810704981
  Basis Set: (AUG-CC-PVTZ AUX)
    Blend: AUG-CC-PVTZ-RI
    Molecular point group: c1

    Geometry (in Angstrom), charge = 0, multiplicity = 1:

       Center              X                  Y                   Z               Mass
    ------------   -----------------  -----------------  -----------------  -----------------
         S            1.365067411934     0.022389657329    -0.213176831683    31.972071174400
         C            0.307269411934    -1.300229342671     0.444057168317    12.000000000000
         C           -1.093145688066    -1.218272542671    -0.145918331683    12.000000000000
         C           -1.724442588066    -0.024439342671    -0.158118831683    12.000000000000
         C           -1.064077588066     1.222040657329     0.188945168317    12.000000000000
         C            0.284082411934     1.355682657329     0.125609168317    12.000000000000
         H            0.282509411934    -1.213483342671     1.537719168317     1.007825032230
         H            0.794276411934    -2.243417342671     0.185452168317     1.007825032230
         H           -1.557234588066    -2.118134342671    -0.483418831683     1.007825032230
         H           -2.750837588066     0.023857657329    -0.514885831683     1.007825032230
         H           -1.664989588066     2.104468657329     0.394299168317     1.007825032230
         H            0.768313411934     2.322278657329     0.231081168317     1.007825032230

  Basis Set: AUG-CC-PVTZ
    Blend: AUG-CC-PVTZ
  Basis Set: (AUG-CC-PVTZ AUX)
    Blend: AUG-CC-PVTZ-JKFIT
	 Reference Energy          =    -590.4051989810706118 [Eh]
	 Singles Energy            =      -0.0000000000000000 [Eh]
	 Same-Spin Energy          =      -0.2675897158552217 [Eh]
	 Opposite-Spin Energy      =      -0.8624761147066495 [Eh]
	 Correlation Energy        =      -1.1300658305618714 [Eh]
	 Total Energy              =    -591.5352648116324872 [Eh]

	 ================> DF-SCS-MP2 Energies <==================
	-----------------------------------------------------------
	 SCS Same-Spin Scale       =       0.3333333333333333 [-]
	 SCS Opposite-Spin Scale   =       1.2000000000000000 [-]
	 SCS Same-Spin Energy      =      -0.0891965719517406 [Eh]
	 SCS Opposite-Spin Energy  =      -1.0349713376479794 [Eh]
	 SCS Correlation Energy    =      -1.1241679095997199 [Eh]
	 SCS Total Energy          =    -591.5293668906703033 [Eh]
	-----------------------------------------------------------

  Dipole Moment: [D]
     X:    -0.8629      Y:    -0.3556      Z:     0.4874     Total:     1.0529

*** Psi4 exiting successfully. Buy a developer a beer!
