                               Psi4 1.3.2 release

  ==> Input File <==

--------------------------------------------------------------------------
#psi4
#
memory 32 gb

molecule  {
0 1
  S        1.4017960     0.0318670    -0.2267910
  C        0.3439980    -1.2907520     0.4304430
  C       -1.0366050    -1.1980160    -0.1526860
  C       -1.7101153    -0.0042795    -0.1665498
  C       -1.0273490     1.2315180     0.1753310
  C        0.3208110     1.3651600     0.1119950
  H        0.3192380    -1.2040060     1.5241050
  H        0.8310050    -2.2339400     0.1718380
  H       -1.5205060    -2.1086570    -0.4970330
  H       -2.7141090     0.0333350    -0.5285000
  H       -1.6282610     2.1139460     0.3806850
  H        0.8050420     2.3317560     0.2174670
units angstrom
no_reorient  #important for SAPT in psi4, default
symmetry c1  #important for SAPT in psi4, default
}

set PROPERTIES_ORIGIN ["COM"]
properties('MP2/aug-cc-pvtz', properties = ['dipole'])
--------------------------------------------------------------------------

    Molecular point group: c1
  Charge       = 0
  Multiplicity = 1
  Basis Set: AUG-CC-PVTZ
    Blend: AUG-CC-PVTZ
  Basis Set: (AUG-CC-PVTZ AUX)
    Blend: AUG-CC-PVTZ-JKFIT

    Orbital Energies [Eh]
    ---------------------

    Doubly Occupied:

       1A    -91.962236     2A    -11.268720     3A    -11.268501
       4A    -11.246865     5A    -11.241446     6A    -11.240493
       7A     -8.962724     8A     -6.643961     9A     -6.643019
      10A     -6.642157    11A     -1.139944    12A     -1.025384
      13A     -1.018426    14A     -0.859167    15A     -0.817966
      16A     -0.697101    17A     -0.679638    18A     -0.609777
      19A     -0.598305    20A     -0.581813    21A     -0.540427
      22A     -0.482858    23A     -0.463262    24A     -0.449966
      25A     -0.362471    26A     -0.296177

  @DF-RHF Final Energy:  -590.40376019327221

   => Energetics <=

    Nuclear Repulsion Energy =            271.8088911637677825
    One-Electron Energy =               -1348.9396945830890218
    Two-Electron Energy =                 486.7270432260489201
    Total Energy =                       -590.4037601932723192
  Basis Set: (AUG-CC-PVTZ AUX)
    Blend: AUG-CC-PVTZ-RI
    Molecular point group: c1

    Geometry (in Angstrom), charge = 0, multiplicity = 1:

       Center              X                  Y                   Z               Mass
    ------------   -----------------  -----------------  -----------------  -----------------
         S            1.365384395307     0.019762204041    -0.214649570321    31.972071174400
         C            0.307586395307    -1.302856795959     0.442584429679    12.000000000000
         C           -1.073016604693    -1.210120795959    -0.140544570321    12.000000000000
         C           -1.746526904693    -0.016384295959    -0.154408370321    12.000000000000
         C           -1.063760604693     1.219413204041     0.187472429679    12.000000000000
         C            0.284399395307     1.353055204041     0.124136429679    12.000000000000
         H            0.282826395307    -1.216110795959     1.536246429679     1.007825032230
         H            0.794593395307    -2.246044795959     0.183979429679     1.007825032230
         H           -1.556917604693    -2.120761795959    -0.484891570321     1.007825032230
         H           -2.750520604693     0.021230204041    -0.516358570321     1.007825032230
         H           -1.664672604693     2.101841204041     0.392826429679     1.007825032230
         H            0.768630395307     2.319651204041     0.229608429679     1.007825032230

  Basis Set: AUG-CC-PVTZ
    Blend: AUG-CC-PVTZ
  Basis Set: (AUG-CC-PVTZ AUX)
    Blend: AUG-CC-PVTZ-JKFIT
	 Reference Energy          =    -590.4037601932722055 [Eh]
	 Singles Energy            =      -0.0000000000000000 [Eh]
	 Same-Spin Energy          =      -0.2680444243083387 [Eh]
	 Opposite-Spin Energy      =      -0.8631623025322335 [Eh]
	 Correlation Energy        =      -1.1312067268405721 [Eh]
	 Total Energy              =    -591.5349669201127654 [Eh]

	 ================> DF-SCS-MP2 Energies <==================
	-----------------------------------------------------------
	 SCS Same-Spin Scale       =       0.3333333333333333 [-]
	 SCS Opposite-Spin Scale   =       1.2000000000000000 [-]
	 SCS Same-Spin Energy      =      -0.0893481414361129 [Eh]
	 SCS Opposite-Spin Energy  =      -1.0357947630386801 [Eh]
	 SCS Correlation Energy    =      -1.1251429044747929 [Eh]
	 SCS Total Energy          =    -591.5289030977470475 [Eh]
	-----------------------------------------------------------

  Dipole Moment: [D]
     X:    -0.8525      Y:    -0.3606      Z:     0.4871     Total:     1.0460

*** Psi4 exiting successfully. Buy a developer a beer!
