                               Psi4 1.3.2 release

  ==> Input File <==

--------------------------------------------------------------------------
#psi4
#
memory 32 gb

molecule  {
0 1
  S        1.4283311     0.0865142    -0.0466038
  C        0.3439980    -1.2907520     0.4304430
  C       -1.0366050    -1.1980160    -0.1526860
  C       -1.6877140    -0.0149620    -0.1717330
  C       -1.0273490     1.2315180     0.1753310
  C        0.3208110     1.3651600     0.1119950
  H        0.3192380    -1.2040060     1.5241050
  H        0.8310050    -2.2339400     0.1718380
  H       -1.5205060    -2.1086570    -0.4970330
  H       -2.7141090     0.0333350    -0.5285000
  H       -1.6282610     2.1139460     0.3806850
  H        0.8050420     2.3317560     0.2174670
units angstrom
no_reorient  #important for SAPT in psi4, default
symmetry c1  #important for SAPT in psi4, default
}

set PROPERTIES_ORIGIN ["COM"]
properties('MP2/aug-cc-pvtz', properties = ['dipole'])
--------------------------------------------------------------------------

    Molecular point group: c1
  Charge       = 0
  Multiplicity = 1
  Basis Set: AUG-CC-PVTZ
    Blend: AUG-CC-PVTZ
  Basis Set: (AUG-CC-PVTZ AUX)
    Blend: AUG-CC-PVTZ-JKFIT

    Orbital Energies [Eh]
    ---------------------

    Doubly Occupied:

       1A    -91.961630     2A    -11.267910     3A    -11.267839
       4A    -11.242185     5A    -11.240210     6A    -11.237172
       7A     -8.963471     8A     -6.644822     9A     -6.643739
      10A     -6.642898    11A     -1.144919    12A     -1.031558
      13A     -1.021316    14A     -0.863590    15A     -0.817967
      16A     -0.694911    17A     -0.675152    18A     -0.610014
      19A     -0.607234    20A     -0.583014    21A     -0.534642
      22A     -0.488179    23A     -0.462439    24A     -0.452706
      25A     -0.374102    26A     -0.287960

  @DF-RHF Final Energy:  -590.40223715353875

   => Energetics <=

    Nuclear Repulsion Energy =            272.8576014456554617
    One-Electron Energy =               -1350.9965203183569429
    Two-Electron Energy =                 487.7366817191626751
    Total Energy =                       -590.4022371535387492
  Basis Set: (AUG-CC-PVTZ AUX)
    Blend: AUG-CC-PVTZ-RI
    Molecular point group: c1

    Geometry (in Angstrom), charge = 0, multiplicity = 1:

       Center              X                  Y                   Z               Mass
    ------------   -----------------  -----------------  -----------------  -----------------
         S            1.380521730972     0.057892261294    -0.092601693725    31.972071174400
         C            0.296188630972    -1.319373938706     0.384445106275    12.000000000000
         C           -1.084414369028    -1.226637938706    -0.198683893725    12.000000000000
         C           -1.735523369028    -0.043583938706    -0.217730893725    12.000000000000
         C           -1.075158369028     1.202896061294     0.129333106275    12.000000000000
         C            0.273001630972     1.336538061294     0.065997106275    12.000000000000
         H            0.271428630972    -1.232627938706     1.478107106275     1.007825032230
         H            0.783195630972    -2.262561938706     0.125840106275     1.007825032230
         H           -1.568315369028    -2.137278938706    -0.543030893725     1.007825032230
         H           -2.761918369028     0.004713061294    -0.574497893725     1.007825032230
         H           -1.676070369028     2.085324061294     0.334687106275     1.007825032230
         H            0.757232630972     2.303134061294     0.171469106275     1.007825032230

  Basis Set: AUG-CC-PVTZ
    Blend: AUG-CC-PVTZ
  Basis Set: (AUG-CC-PVTZ AUX)
    Blend: AUG-CC-PVTZ-JKFIT
	 Reference Energy          =    -590.4022371535387492 [Eh]
	 Singles Energy            =      -0.0000000000000000 [Eh]
	 Same-Spin Energy          =      -0.2681793048695523 [Eh]
	 Opposite-Spin Energy      =      -0.8624113355828211 [Eh]
	 Correlation Energy        =      -1.1305906404523733 [Eh]
	 Total Energy              =    -591.5328277939911459 [Eh]

	 ================> DF-SCS-MP2 Energies <==================
	-----------------------------------------------------------
	 SCS Same-Spin Scale       =       0.3333333333333333 [-]
	 SCS Opposite-Spin Scale   =       1.2000000000000000 [-]
	 SCS Same-Spin Energy      =      -0.0893931016231841 [Eh]
	 SCS Opposite-Spin Energy  =      -1.0348936026993854 [Eh]
	 SCS Correlation Energy    =      -1.1242867043225695 [Eh]
	 SCS Total Energy          =    -591.5265238578613207 [Eh]
	-----------------------------------------------------------

  Dipole Moment: [D]
     X:    -0.7608      Y:    -0.4182      Z:     0.4736     Total:     0.9890

*** Psi4 exiting successfully. Buy a developer a beer!
