                               Psi4 1.3.2 release

  ==> Input File <==

--------------------------------------------------------------------------
#psi4
#
memory 32 gb

molecule  {
0 1
  S        1.4017960     0.0318670    -0.2267910
  C        0.3439980    -1.2907520     0.4304430
  C       -1.0366050    -1.1980160    -0.1526860
  C       -1.7622989    -0.0603387    -0.2072860
  C       -1.0273490     1.2315180     0.1753310
  C        0.3208110     1.3651600     0.1119950
  H        0.3192380    -1.2040060     1.5241050
  H        0.8310050    -2.2339400     0.1718380
  H       -1.5205060    -2.1086570    -0.4970330
  H       -2.7141090     0.0333350    -0.5285000
  H       -1.6282610     2.1139460     0.3806850
  H        0.8050420     2.3317560     0.2174670
units angstrom
no_reorient  #important for SAPT in psi4, default
symmetry c1  #important for SAPT in psi4, default
}

set PROPERTIES_ORIGIN ["COM"]
properties('MP2/aug-cc-pvtz', properties = ['dipole'])
--------------------------------------------------------------------------

    Molecular point group: c1
  Charge       = 0
  Multiplicity = 1
  Basis Set: AUG-CC-PVTZ
    Blend: AUG-CC-PVTZ
  Basis Set: (AUG-CC-PVTZ AUX)
    Blend: AUG-CC-PVTZ-JKFIT

    Orbital Energies [Eh]
    ---------------------

    Doubly Occupied:

       1A    -91.960744     2A    -11.270535     3A    -11.266738
       4A    -11.246122     5A    -11.245272     6A    -11.239930
       7A     -8.961331     8A     -6.642585     9A     -6.641639
      10A     -6.640748    11A     -1.135095    12A     -1.026646
      13A     -1.015120    14A     -0.863471    15A     -0.811981
      16A     -0.706711    17A     -0.676141    18A     -0.610639
      19A     -0.595531    20A     -0.585053    21A     -0.544994
      22A     -0.472610    23A     -0.462392    24A     -0.446878
      25A     -0.363416    26A     -0.300671

  @DF-RHF Final Energy:  -590.39697980255119

   => Energetics <=

    Nuclear Repulsion Energy =            270.8602131198572920
    One-Electron Energy =               -1347.0483976792497742
    Two-Electron Energy =                 485.7912047568414096
    Total Energy =                       -590.3969798025511864
  Basis Set: (AUG-CC-PVTZ AUX)
    Blend: AUG-CC-PVTZ-RI
    Molecular point group: c1

    Geometry (in Angstrom), charge = 0, multiplicity = 1:

       Center              X                  Y                   Z               Mass
    ------------   -----------------  -----------------  -----------------  -----------------
         S            1.371772983881     0.026625263788    -0.209662432180    31.972071174400
         C            0.313974983881    -1.295993736212     0.447571567820    12.000000000000
         C           -1.066628016119    -1.203257736212    -0.135557432180    12.000000000000
         C           -1.792321916119    -0.065580436212    -0.190157432180    12.000000000000
         C           -1.057372016119     1.226276263788     0.192459567820    12.000000000000
         C            0.290787983881     1.359918263788     0.129123567820    12.000000000000
         H            0.289214983881    -1.209247736212     1.541233567820     1.007825032230
         H            0.800981983881    -2.239181736212     0.188966567820     1.007825032230
         H           -1.550529016119    -2.113898736212    -0.479904432180     1.007825032230
         H           -2.744132016119     0.028093263788    -0.511371432180     1.007825032230
         H           -1.658284016119     2.108704263788     0.397813567820     1.007825032230
         H            0.775018983881     2.326514263788     0.234595567820     1.007825032230

  Basis Set: AUG-CC-PVTZ
    Blend: AUG-CC-PVTZ
  Basis Set: (AUG-CC-PVTZ AUX)
    Blend: AUG-CC-PVTZ-JKFIT
	 Reference Energy          =    -590.3969798025511864 [Eh]
	 Singles Energy            =      -0.0000000000000000 [Eh]
	 Same-Spin Energy          =      -0.2665271944719989 [Eh]
	 Opposite-Spin Energy      =      -0.8620501849660593 [Eh]
	 Correlation Energy        =      -1.1285773794380582 [Eh]
	 Total Energy              =    -591.5255571819892566 [Eh]

	 ================> DF-SCS-MP2 Energies <==================
	-----------------------------------------------------------
	 SCS Same-Spin Scale       =       0.3333333333333333 [-]
	 SCS Opposite-Spin Scale   =       1.2000000000000000 [-]
	 SCS Same-Spin Energy      =      -0.0888423981573330 [Eh]
	 SCS Opposite-Spin Energy  =      -1.0344602219592711 [Eh]
	 SCS Correlation Energy    =      -1.1233026201166041 [Eh]
	 SCS Total Energy          =    -591.5202824226678331 [Eh]
	-----------------------------------------------------------

  Dipole Moment: [D]
     X:    -0.9314      Y:    -0.4031      Z:     0.4784     Total:     1.1220

*** Psi4 exiting successfully. Buy a developer a beer!
