                               Psi4 1.3.2 release

  ==> Input File <==

--------------------------------------------------------------------------
#psi4
#
memory 32 gb

molecule  {
0 1
  S        1.4017960     0.0318670    -0.2267910
  C        0.3433538    -1.2388720     0.4378634
  C       -1.0366050    -1.1980160    -0.1526860
  C       -1.6877140    -0.0149620    -0.1717330
  C       -1.0273490     1.2315180     0.1753310
  C        0.3208110     1.3651600     0.1119950
  H        0.3192380    -1.2040060     1.5241050
  H        0.8310050    -2.2339400     0.1718380
  H       -1.5205060    -2.1086570    -0.4970330
  H       -2.7141090     0.0333350    -0.5285000
  H       -1.6282610     2.1139460     0.3806850
  H        0.8050420     2.3317560     0.2174670
units angstrom
no_reorient  #important for SAPT in psi4, default
symmetry c1  #important for SAPT in psi4, default
}

set PROPERTIES_ORIGIN ["COM"]
properties('MP2/aug-cc-pvtz', properties = ['dipole'])
--------------------------------------------------------------------------

    Molecular point group: c1
  Charge       = 0
  Multiplicity = 1
  Basis Set: AUG-CC-PVTZ
    Blend: AUG-CC-PVTZ
  Basis Set: (AUG-CC-PVTZ AUX)
    Blend: AUG-CC-PVTZ-JKFIT

    Orbital Energies [Eh]
    ---------------------

    Doubly Occupied:

       1A    -91.962742     2A    -11.268337     3A    -11.267770
       4A    -11.242896     5A    -11.241395     6A    -11.238748
       7A     -8.963671     8A     -6.644956     9A     -6.643960
      10A     -6.643076    11A     -1.144626    12A     -1.025274
      13A     -1.022054    14A     -0.856421    15A     -0.818150
      16A     -0.692942    17A     -0.681683    18A     -0.605570
      19A     -0.597663    20A     -0.585749    21A     -0.531475
      22A     -0.485840    23A     -0.462524    24A     -0.450842
      25A     -0.364890    26A     -0.298861

  @DF-RHF Final Energy:  -590.40214805759911

   => Energetics <=

    Nuclear Repulsion Energy =            272.9832578295070675
    One-Electron Energy =               -1351.2865824617140333
    Two-Electron Energy =                 487.9011765746079163
    Total Energy =                       -590.4021480575991063
  Basis Set: (AUG-CC-PVTZ AUX)
    Blend: AUG-CC-PVTZ-RI
    Molecular point group: c1

    Geometry (in Angstrom), charge = 0, multiplicity = 1:

       Center              X                  Y                   Z               Mass
    ------------   -----------------  -----------------  -----------------  -----------------
         S            1.362720777609     0.014718591147    -0.214923460017    31.972071174400
         C            0.304278577609    -1.256020408853     0.449730939983    12.000000000000
         C           -1.075680222391    -1.215164408853    -0.140818460017    12.000000000000
         C           -1.726789222391    -0.032110408853    -0.159865460017    12.000000000000
         C           -1.066424222391     1.214369591147     0.187198539983    12.000000000000
         C            0.281735777609     1.348011591147     0.123862539983    12.000000000000
         H            0.280162777609    -1.221154408853     1.535972539983     1.007825032230
         H            0.791929777609    -2.251088408853     0.183705539983     1.007825032230
         H           -1.559581222391    -2.125805408853    -0.485165460017     1.007825032230
         H           -2.753184222391     0.016186591147    -0.516632460017     1.007825032230
         H           -1.667336222391     2.096797591147     0.392552539983     1.007825032230
         H            0.765966777609     2.314607591147     0.229334539983     1.007825032230

  Basis Set: AUG-CC-PVTZ
    Blend: AUG-CC-PVTZ
  Basis Set: (AUG-CC-PVTZ AUX)
    Blend: AUG-CC-PVTZ-JKFIT
	 Reference Energy          =    -590.4021480575991063 [Eh]
	 Singles Energy            =      -0.0000000000000000 [Eh]
	 Same-Spin Energy          =      -0.2682024080033586 [Eh]
	 Opposite-Spin Energy      =      -0.8631395362792260 [Eh]
	 Correlation Energy        =      -1.1313419442825845 [Eh]
	 Total Energy              =    -591.5334900018816597 [Eh]

	 ================> DF-SCS-MP2 Energies <==================
	-----------------------------------------------------------
	 SCS Same-Spin Scale       =       0.3333333333333333 [-]
	 SCS Opposite-Spin Scale   =       1.2000000000000000 [-]
	 SCS Same-Spin Energy      =      -0.0894008026677862 [Eh]
	 SCS Opposite-Spin Energy  =      -1.0357674435350712 [Eh]
	 SCS Correlation Energy    =      -1.1251682462028574 [Eh]
	 SCS Total Energy          =    -591.5273163038019675 [Eh]
	-----------------------------------------------------------

  Dipole Moment: [D]
     X:    -0.8478      Y:    -0.3129      Z:     0.4783     Total:     1.0224

*** Psi4 exiting successfully. Buy a developer a beer!
