                               Psi4 1.3.2 release

  ==> Input File <==

--------------------------------------------------------------------------
#psi4
#
memory 32 gb

molecule  {
0 1
  S        1.4017960     0.0318670    -0.2267910
  C        0.3439980    -1.2907520     0.4304430
  C       -0.9617610    -1.1525083    -0.1178523
  C       -1.6877140    -0.0149620    -0.1717330
  C       -1.0273490     1.2315180     0.1753310
  C        0.3208110     1.3651600     0.1119950
  H        0.3192380    -1.2040060     1.5241050
  H        0.8310050    -2.2339400     0.1718380
  H       -1.5205060    -2.1086570    -0.4970330
  H       -2.7141090     0.0333350    -0.5285000
  H       -1.6282610     2.1139460     0.3806850
  H        0.8050420     2.3317560     0.2174670
units angstrom
no_reorient  #important for SAPT in psi4, default
symmetry c1  #important for SAPT in psi4, default
}

set PROPERTIES_ORIGIN ["COM"]
properties('MP2/aug-cc-pvtz', properties = ['dipole'])
--------------------------------------------------------------------------

    Molecular point group: c1
  Charge       = 0
  Multiplicity = 1
  Basis Set: AUG-CC-PVTZ
    Blend: AUG-CC-PVTZ
  Basis Set: (AUG-CC-PVTZ AUX)
    Blend: AUG-CC-PVTZ-JKFIT

    Orbital Energies [Eh]
    ---------------------

    Doubly Occupied:

       1A    -91.962123     2A    -11.266878     3A    -11.265792
       4A    -11.247246     5A    -11.239917     6A    -11.238857
       7A     -8.962777     8A     -6.643979     9A     -6.643084
      10A     -6.642176    11A     -1.150570    12A     -1.034415
      13A     -1.018680    14A     -0.864036    15A     -0.811789
      16A     -0.699458    17A     -0.670998    18A     -0.617145
      19A     -0.605575    20A     -0.574460    21A     -0.549621
      22A     -0.471570    23A     -0.465064    24A     -0.451560
      25A     -0.362034    26A     -0.296379

  @DF-RHF Final Energy:  -590.39403956804517

   => Energetics <=

    Nuclear Repulsion Energy =            273.7206313033979654
    One-Electron Energy =               -1352.7169741249526851
    Two-Electron Energy =                 488.6023032535094899
    Total Energy =                       -590.3940395680451729
  Basis Set: (AUG-CC-PVTZ AUX)
    Blend: AUG-CC-PVTZ-RI
    Molecular point group: c1

    Geometry (in Angstrom), charge = 0, multiplicity = 1:

       Center              X                  Y                   Z               Mass
    ------------   -----------------  -----------------  -----------------  -----------------
         S            1.353479118313     0.015498721360    -0.218279539229    31.972071174400
         C            0.295681118313    -1.307120278640     0.438954460771    12.000000000000
         C           -1.010077881687    -1.168876578640    -0.109340839229    12.000000000000
         C           -1.736030881687    -0.031330278640    -0.163221539229    12.000000000000
         C           -1.075665881687     1.215149721360     0.183842460771    12.000000000000
         C            0.272494118313     1.348791721360     0.120506460771    12.000000000000
         H            0.270921118313    -1.220374278640     1.532616460771     1.007825032230
         H            0.782688118313    -2.250308278640     0.180349460771     1.007825032230
         H           -1.568822881687    -2.125025278640    -0.488521539229     1.007825032230
         H           -2.762425881687     0.016966721360    -0.519988539229     1.007825032230
         H           -1.676577881687     2.097577721360     0.389196460771     1.007825032230
         H            0.756725118313     2.315387721360     0.225978460771     1.007825032230

  Basis Set: AUG-CC-PVTZ
    Blend: AUG-CC-PVTZ
  Basis Set: (AUG-CC-PVTZ AUX)
    Blend: AUG-CC-PVTZ-JKFIT
	 Reference Energy          =    -590.3940395680451729 [Eh]
	 Singles Energy            =      -0.0000000000000000 [Eh]
	 Same-Spin Energy          =      -0.2690360924945263 [Eh]
	 Opposite-Spin Energy      =      -0.8638675852302584 [Eh]
	 Correlation Energy        =      -1.1329036777247847 [Eh]
	 Total Energy              =    -591.5269432457699850 [Eh]

	 ================> DF-SCS-MP2 Energies <==================
	-----------------------------------------------------------
	 SCS Same-Spin Scale       =       0.3333333333333333 [-]
	 SCS Opposite-Spin Scale   =       1.2000000000000000 [-]
	 SCS Same-Spin Energy      =      -0.0896786974981754 [Eh]
	 SCS Opposite-Spin Energy  =      -1.0366411022763100 [Eh]
	 SCS Correlation Energy    =      -1.1263197997744854 [Eh]
	 SCS Total Energy          =    -591.5203593678196512 [Eh]
	-----------------------------------------------------------

  Dipole Moment: [D]
     X:    -0.8298      Y:    -0.3438      Z:     0.5244     Total:     1.0401

*** Psi4 exiting successfully. Buy a developer a beer!
