                               Psi4 1.3.2 release

  ==> Input File <==

--------------------------------------------------------------------------
#psi4
#
memory 32 gb

molecule  {
0 1
  S        1.4017960     0.0318670    -0.2267910
  C        0.3328450    -1.1368162     0.4601478
  C       -1.0366050    -1.1980160    -0.1526860
  C       -1.6877140    -0.0149620    -0.1717330
  C       -1.0273490     1.2315180     0.1753310
  C        0.3208110     1.3651600     0.1119950
  H        0.3192380    -1.2040060     1.5241050
  H        0.8310050    -2.2339400     0.1718380
  H       -1.5205060    -2.1086570    -0.4970330
  H       -2.7141090     0.0333350    -0.5285000
  H       -1.6282610     2.1139460     0.3806850
  H        0.8050420     2.3317560     0.2174670
units angstrom
no_reorient  #important for SAPT in psi4, default
symmetry c1  #important for SAPT in psi4, default
}

set PROPERTIES_ORIGIN ["COM"]
properties('MP2/aug-cc-pvtz', properties = ['dipole'])
--------------------------------------------------------------------------

    Molecular point group: c1
  Charge       = 0
  Multiplicity = 1
  Basis Set: AUG-CC-PVTZ
    Blend: AUG-CC-PVTZ
  Basis Set: (AUG-CC-PVTZ AUX)
    Blend: AUG-CC-PVTZ-JKFIT

    Orbital Energies [Eh]
    ---------------------

    Doubly Occupied:

       1A    -91.964244     2A    -11.269873     3A    -11.267785
       4A    -11.242571     5A    -11.242134     6A    -11.237852
       7A     -8.965975     8A     -6.647332     9A     -6.646223
      10A     -6.645285    11A     -1.151371    12A     -1.028610
      13A     -1.023311    14A     -0.851573    15A     -0.820137
      16A     -0.692893    17A     -0.685275    18A     -0.607063
      19A     -0.589757    20A     -0.588850    21A     -0.525361
      22A     -0.494850    23A     -0.454432    24A     -0.444396
      25A     -0.366262    26A     -0.301424

  @DF-RHF Final Energy:  -590.38167557143697

   => Energetics <=

    Nuclear Repulsion Energy =            274.4477648390579247
    One-Electron Energy =               -1354.1492004462593286
    Two-Electron Energy =                 489.3197600357643751
    Total Energy =                       -590.3816755714369719
  Basis Set: (AUG-CC-PVTZ AUX)
    Blend: AUG-CC-PVTZ-RI
    Molecular point group: c1

    Geometry (in Angstrom), charge = 0, multiplicity = 1:

       Center              X                  Y                   Z               Mass
    ------------   -----------------  -----------------  -----------------  -----------------
         S            1.364007319734     0.002224387646    -0.217651632532    31.972071174400
         C            0.295056319734    -1.166458812354     0.469287167468    12.000000000000
         C           -1.074393680266    -1.227658612354    -0.143546632532    12.000000000000
         C           -1.725502680266    -0.044604612354    -0.162593632532    12.000000000000
         C           -1.065137680266     1.201875387646     0.184470367468    12.000000000000
         C            0.283022319734     1.335517387646     0.121134367468    12.000000000000
         H            0.281449319734    -1.233648612354     1.533244367468     1.007825032230
         H            0.793216319734    -2.263582612354     0.180977367468     1.007825032230
         H           -1.558294680266    -2.138299612354    -0.487893632532     1.007825032230
         H           -2.751897680266     0.003692387646    -0.519360632532     1.007825032230
         H           -1.666049680266     2.084303387646     0.389824367468     1.007825032230
         H            0.767253319734     2.302113387646     0.226606367468     1.007825032230

  Basis Set: AUG-CC-PVTZ
    Blend: AUG-CC-PVTZ
  Basis Set: (AUG-CC-PVTZ AUX)
    Blend: AUG-CC-PVTZ-JKFIT
	 Reference Energy          =    -590.3816755714369719 [Eh]
	 Singles Energy            =      -0.0000000000000000 [Eh]
	 Same-Spin Energy          =      -0.2694219770249348 [Eh]
	 Opposite-Spin Energy      =      -0.8652318121934193 [Eh]
	 Correlation Energy        =      -1.1346537892183539 [Eh]
	 Total Energy              =    -591.5163293606552770 [Eh]

	 ================> DF-SCS-MP2 Energies <==================
	-----------------------------------------------------------
	 SCS Same-Spin Scale       =       0.3333333333333333 [-]
	 SCS Opposite-Spin Scale   =       1.2000000000000000 [-]
	 SCS Same-Spin Energy      =      -0.0898073256749782 [Eh]
	 SCS Opposite-Spin Energy  =      -1.0382781746321030 [Eh]
	 SCS Correlation Energy    =      -1.1280855003070813 [Eh]
	 SCS Total Energy          =    -591.5097610717440375 [Eh]
	-----------------------------------------------------------

  Dipole Moment: [D]
     X:    -0.8333      Y:    -0.2156      Z:     0.4485     Total:     0.9706

*** Psi4 exiting successfully. Buy a developer a beer!
