                               Psi4 1.3.2 release

  ==> Input File <==

--------------------------------------------------------------------------
#psi4
#
memory 32 gb

molecule  {
0 1
  S        1.4017960     0.0318670    -0.2267910
  C        0.3439980    -1.2907520     0.4304430
  C       -1.0366050    -1.1980160    -0.1526860
  C       -1.6877140    -0.0149620    -0.1717330
  C       -1.0326715     1.3250806     0.1887145
  C        0.3208110     1.3651600     0.1119950
  H        0.3192380    -1.2040060     1.5241050
  H        0.8310050    -2.2339400     0.1718380
  H       -1.5205060    -2.1086570    -0.4970330
  H       -2.7141090     0.0333350    -0.5285000
  H       -1.6282610     2.1139460     0.3806850
  H        0.8050420     2.3317560     0.2174670
units angstrom
no_reorient  #important for SAPT in psi4, default
symmetry c1  #important for SAPT in psi4, default
}

set PROPERTIES_ORIGIN ["COM"]
properties('MP2/aug-cc-pvtz', properties = ['dipole'])
--------------------------------------------------------------------------

    Molecular point group: c1
  Charge       = 0
  Multiplicity = 1
  Basis Set: AUG-CC-PVTZ
    Blend: AUG-CC-PVTZ
  Basis Set: (AUG-CC-PVTZ AUX)
    Blend: AUG-CC-PVTZ-JKFIT

    Orbital Energies [Eh]
    ---------------------

    Doubly Occupied:

       1A    -91.964603     2A    -11.269196     3A    -11.267778
       4A    -11.244446     5A    -11.241553     6A    -11.240114
       7A     -8.964919     8A     -6.646184     9A     -6.645161
      10A     -6.644318    11A     -1.134805    12A     -1.028384
      13A     -1.012623    14A     -0.865432    15A     -0.809886
      16A     -0.694336    17A     -0.687736    18A     -0.620310
      19A     -0.590899    20A     -0.584111    21A     -0.526892
      22A     -0.481341    23A     -0.467348    24A     -0.445991
      25A     -0.361763    26A     -0.302702

  @DF-RHF Final Energy:  -590.39670652063944

   => Energetics <=

    Nuclear Repulsion Energy =            270.8696498144956877
    One-Electron Energy =               -1347.0470478699110117
    Two-Electron Energy =                 485.7806915347758832
    Total Energy =                       -590.3967065206394409
  Basis Set: (AUG-CC-PVTZ AUX)
    Blend: AUG-CC-PVTZ-RI
    Molecular point group: c1

    Geometry (in Angstrom), charge = 0, multiplicity = 1:

       Center              X                  Y                   Z               Mass
    ------------   -----------------  -----------------  -----------------  -----------------
         S            1.363293519504     0.009615589781    -0.215653493831    31.972071174400
         C            0.305495519504    -1.313003410219     0.441580506169    12.000000000000
         C           -1.075107480496    -1.220267410219    -0.141548493831    12.000000000000
         C           -1.726216480496    -0.037213410219    -0.160595493831    12.000000000000
         C           -1.071173980496     1.302829189781     0.199852006169    12.000000000000
         C            0.282308519504     1.342908589781     0.123132506169    12.000000000000
         H            0.280735519504    -1.226257410219     1.535242506169     1.007825032230
         H            0.792502519504    -2.256191410219     0.182975506169     1.007825032230
         H           -1.559008480496    -2.130908410219    -0.485895493831     1.007825032230
         H           -2.752611480496     0.011083589781    -0.517362493831     1.007825032230
         H           -1.666763480496     2.091694589781     0.391822506169     1.007825032230
         H            0.766539519504     2.309504589781     0.228604506169     1.007825032230

  Basis Set: AUG-CC-PVTZ
    Blend: AUG-CC-PVTZ
  Basis Set: (AUG-CC-PVTZ AUX)
    Blend: AUG-CC-PVTZ-JKFIT
	 Reference Energy          =    -590.3967065206394409 [Eh]
	 Singles Energy            =      -0.0000000000000000 [Eh]
	 Same-Spin Energy          =      -0.2665368456672116 [Eh]
	 Opposite-Spin Energy      =      -0.8621588134502122 [Eh]
	 Correlation Energy        =      -1.1286956591174238 [Eh]
	 Total Energy              =    -591.5254021797568384 [Eh]

	 ================> DF-SCS-MP2 Energies <==================
	-----------------------------------------------------------
	 SCS Same-Spin Scale       =       0.3333333333333333 [-]
	 SCS Opposite-Spin Scale   =       1.2000000000000000 [-]
	 SCS Same-Spin Energy      =      -0.0888456152224039 [Eh]
	 SCS Opposite-Spin Energy  =      -1.0345905761402545 [Eh]
	 SCS Correlation Energy    =      -1.1234361913626585 [Eh]
	 SCS Total Energy          =    -591.5201427120020981 [Eh]
	-----------------------------------------------------------

  Dipole Moment: [D]
     X:    -0.8346      Y:    -0.3746      Z:     0.5009     Total:     1.0429

*** Psi4 exiting successfully. Buy a developer a beer!
