                               Psi4 1.3.2 release

  ==> Input File <==

--------------------------------------------------------------------------
#psi4
#
memory 32 gb

molecule  {
0 1
  S        1.4017960     0.0318670    -0.2267910
  C        0.3439980    -1.2907520     0.4304430
  C       -1.0366050    -1.1980160    -0.1526860
  C       -1.6877140    -0.0149620    -0.1717330
  C       -1.0273490     1.2315180     0.1753310
  C        0.3208110     1.3651600     0.1119950
  H        0.3192380    -1.2040060     1.5241050
  H        0.8310050    -2.2339400     0.1718380
  H       -1.4759970    -2.0248967    -0.4653601
  H       -2.7141090     0.0333350    -0.5285000
  H       -1.6282610     2.1139460     0.3806850
  H        0.8050420     2.3317560     0.2174670
units angstrom
no_reorient  #important for SAPT in psi4, default
symmetry c1  #important for SAPT in psi4, default
}

set PROPERTIES_ORIGIN ["COM"]
properties('MP2/aug-cc-pvtz', properties = ['dipole'])
--------------------------------------------------------------------------

    Molecular point group: c1
  Charge       = 0
  Multiplicity = 1
  Basis Set: AUG-CC-PVTZ
    Blend: AUG-CC-PVTZ
  Basis Set: (AUG-CC-PVTZ AUX)
    Blend: AUG-CC-PVTZ-JKFIT

    Orbital Energies [Eh]
    ---------------------

    Doubly Occupied:

       1A    -91.961561     2A    -11.268450     3A    -11.266957
       4A    -11.240493     5A    -11.239178     6A    -11.231329
       7A     -8.962067     8A     -6.643308     9A     -6.642364
      10A     -6.641506    11A     -1.142172    12A     -1.029499
      13A     -1.018889    14A     -0.859595    15A     -0.825814
      16A     -0.696149    17A     -0.690802    18A     -0.608738
      19A     -0.599556    20A     -0.590467    21A     -0.535220
      22A     -0.486361    23A     -0.462940    24A     -0.450643
      25A     -0.363618    26A     -0.297384

  @DF-RHF Final Energy:  -590.39953282058241

   => Energetics <=

    Nuclear Repulsion Energy =            272.7355959322294439
    One-Electron Energy =               -1350.7601370650857007
    Two-Electron Energy =                 487.6250083122738488
    Total Energy =                       -590.3995328205824080
  Basis Set: (AUG-CC-PVTZ AUX)
    Blend: AUG-CC-PVTZ-RI
    Molecular point group: c1

    Geometry (in Angstrom), charge = 0, multiplicity = 1:

       Center              X                  Y                   Z               Mass
    ------------   -----------------  -----------------  -----------------  -----------------
         S            1.362184272718     0.020208793615    -0.214340674577    31.972071174400
         C            0.304386272718    -1.302410206385     0.442893325423    12.000000000000
         C           -1.076216727282    -1.209674206385    -0.140235674577    12.000000000000
         C           -1.727325727282    -0.026620206385    -0.159282674577    12.000000000000
         C           -1.066960727282     1.219859793615     0.187781325423    12.000000000000
         C            0.281199272718     1.353501793615     0.124445325423    12.000000000000
         H            0.279626272718    -1.215664206385     1.536555325423     1.007825032230
         H            0.791393272718    -2.245598206385     0.184288325423     1.007825032230
         H           -1.515608727282    -2.036554906385    -0.452909774577     1.007825032230
         H           -2.753720727282     0.021676793615    -0.516049674577     1.007825032230
         H           -1.667872727282     2.102287793615     0.393135325423     1.007825032230
         H            0.765430272718     2.320097793615     0.229917325423     1.007825032230

  Basis Set: AUG-CC-PVTZ
    Blend: AUG-CC-PVTZ
  Basis Set: (AUG-CC-PVTZ AUX)
    Blend: AUG-CC-PVTZ-JKFIT
	 Reference Energy          =    -590.3995328205824080 [Eh]
	 Singles Energy            =      -0.0000000000000000 [Eh]
	 Same-Spin Energy          =      -0.2676661108528427 [Eh]
	 Opposite-Spin Energy      =      -0.8621981524265068 [Eh]
	 Correlation Energy        =      -1.1298642632793494 [Eh]
	 Total Energy              =    -591.5293970838617952 [Eh]

	 ================> DF-SCS-MP2 Energies <==================
	-----------------------------------------------------------
	 SCS Same-Spin Scale       =       0.3333333333333333 [-]
	 SCS Opposite-Spin Scale   =       1.2000000000000000 [-]
	 SCS Same-Spin Energy      =      -0.0892220369509476 [Eh]
	 SCS Opposite-Spin Energy  =      -1.0346377829118081 [Eh]
	 SCS Correlation Energy    =      -1.1238598198627556 [Eh]
	 SCS Total Energy          =    -591.5233926404451950 [Eh]
	-----------------------------------------------------------

  Dipole Moment: [D]
     X:    -0.8841      Y:    -0.3795      Z:     0.4886     Total:     1.0791

*** Psi4 exiting successfully. Buy a developer a beer!
