                               Psi4 1.3.2 release

  ==> Input File <==

--------------------------------------------------------------------------
#psi4
#
memory 32 gb

molecule  {
0 1
  S        1.4017960     0.0318670    -0.2267910
  C        0.3439980    -1.2907520     0.4304430
  C       -1.0366050    -1.1980160    -0.1526860
  C       -1.5489614    -0.0762458    -0.1823310
  C       -1.0273490     1.2315180     0.1753310
  C        0.3208110     1.3651600     0.1119950
  H        0.3192380    -1.2040060     1.5241050
  H        0.8310050    -2.2339400     0.1718380
  H       -1.5205060    -2.1086570    -0.4970330
  H       -2.7141090     0.0333350    -0.5285000
  H       -1.6282610     2.1139460     0.3806850
  H        0.8050420     2.3317560     0.2174670
units angstrom
no_reorient  #important for SAPT in psi4, default
symmetry c1  #important for SAPT in psi4, default
}

set PROPERTIES_ORIGIN ["COM"]
properties('MP2/aug-cc-pvtz', properties = ['dipole'])
--------------------------------------------------------------------------

    Molecular point group: c1
  Charge       = 0
  Multiplicity = 1
  Basis Set: AUG-CC-PVTZ
    Blend: AUG-CC-PVTZ
  Basis Set: (AUG-CC-PVTZ AUX)
    Blend: AUG-CC-PVTZ-JKFIT

    Orbital Energies [Eh]
    ---------------------

    Doubly Occupied:

       1A    -91.961654     2A    -11.268909     3A    -11.264785
       4A    -11.241617     5A    -11.234271     6A    -11.223554
       7A     -8.962258     8A     -6.643506     9A     -6.642548
      10A     -6.641692    11A     -1.156546    12A     -1.041102
      13A     -1.017611    14A     -0.865858    15A     -0.810514
      16A     -0.691347    17A     -0.672943    18A     -0.618496
      19A     -0.605222    20A     -0.591305    21A     -0.503340
      22A     -0.485544    23A     -0.463763    24A     -0.450152
      25A     -0.373907    26A     -0.306386

  @DF-RHF Final Energy:  -590.37819094589588

   => Energetics <=

    Nuclear Repulsion Energy =            274.8131440377949275
    One-Electron Energy =               -1354.9050069035433808
    Two-Electron Energy =                 489.7136719198525725
    Total Energy =                       -590.3781909458958808
  Basis Set: (AUG-CC-PVTZ AUX)
    Blend: AUG-CC-PVTZ-RI
    Molecular point group: c1

    Geometry (in Angstrom), charge = 0, multiplicity = 1:

       Center              X                  Y                   Z               Mass
    ------------   -----------------  -----------------  -----------------  -----------------
         S            1.345655094065     0.028572693964    -0.212717553480    31.972071174400
         C            0.287857094065    -1.294046306036     0.444516446520    12.000000000000
         C           -1.092745905935    -1.201310306036    -0.138612553480    12.000000000000
         C           -1.605102305935    -0.079540106036    -0.168257553480    12.000000000000
         C           -1.083489905935     1.228223693964     0.189404446520    12.000000000000
         C            0.264670094065     1.361865693964     0.126068446520    12.000000000000
         H            0.263097094065    -1.207300306036     1.538178446520     1.007825032230
         H            0.774864094065    -2.237234306036     0.185911446520     1.007825032230
         H           -1.576646905935    -2.111951306036    -0.482959553480     1.007825032230
         H           -2.770249905935     0.030040693964    -0.514426553480     1.007825032230
         H           -1.684401905935     2.110651693964     0.394758446520     1.007825032230
         H            0.748901094065     2.328461693964     0.231540446520     1.007825032230

  Basis Set: AUG-CC-PVTZ
    Blend: AUG-CC-PVTZ
  Basis Set: (AUG-CC-PVTZ AUX)
    Blend: AUG-CC-PVTZ-JKFIT
	 Reference Energy          =    -590.3781909458958808 [Eh]
	 Singles Energy            =      -0.0000000000000000 [Eh]
	 Same-Spin Energy          =      -0.2673022401842588 [Eh]
	 Opposite-Spin Energy      =      -0.8613131692732028 [Eh]
	 Correlation Energy        =      -1.1286154094574616 [Eh]
	 Total Energy              =    -591.5068063553533193 [Eh]

	 ================> DF-SCS-MP2 Energies <==================
	-----------------------------------------------------------
	 SCS Same-Spin Scale       =       0.3333333333333333 [-]
	 SCS Opposite-Spin Scale   =       1.2000000000000000 [-]
	 SCS Same-Spin Energy      =      -0.0891007467280863 [Eh]
	 SCS Opposite-Spin Energy  =      -1.0335758031278433 [Eh]
	 SCS Correlation Energy    =      -1.1226765498559295 [Eh]
	 SCS Total Energy          =    -591.5008674957517769 [Eh]
	-----------------------------------------------------------

  Dipole Moment: [D]
     X:    -0.8188      Y:    -0.3412      Z:     0.5536     Total:     1.0456

*** Psi4 exiting successfully. Buy a developer a beer!
