                               Psi4 1.3.2 release

  ==> Input File <==

--------------------------------------------------------------------------
#psi4
#
memory 32 gb

molecule  {
0 1
  O        2.2963030    -1.1646890    -0.3757460
  N        2.3923280     1.0164480     0.2994170
  C        0.2207310    -0.0269520    -0.0211670
  C       -0.4523230     1.1907380    -0.1883680
  C       -0.5090170    -1.2093150     0.1506230
  C       -1.8475330     1.2224820    -0.1660350
  C       -1.9015700    -1.1704770     0.1807190
  C       -2.5738810     0.0455010     0.0269260
  C        1.8132130    -0.1389359    -0.0455918
  H        0.1072720     2.1036640    -0.3785230
  H        0.0332720    -2.1453590     0.2524960
  H       -2.3684780     2.1664290    -0.3073730
  H       -2.4655310    -2.0892580     0.3223660
  H       -3.6606990     0.0738880     0.0465090
  H        1.9473050     1.6788240     0.9202200
  H        3.3908630     0.8938600     0.4225490
units angstrom
no_reorient  #important for SAPT in psi4, default
symmetry c1  #important for SAPT in psi4, default
}

set PROPERTIES_ORIGIN ["COM"]
properties('MP2/aug-cc-pvtz', properties = ['dipole'])
--------------------------------------------------------------------------

    Molecular point group: c1
  Charge       = 0
  Multiplicity = 1
  Basis Set: AUG-CC-PVTZ
    Blend: AUG-CC-PVTZ
  Basis Set: (AUG-CC-PVTZ AUX)
    Blend: AUG-CC-PVTZ-JKFIT

    Orbital Energies [Eh]
    ---------------------

    Doubly Occupied:

       1A    -20.532717     2A    -15.594258     3A    -11.360173
       4A    -11.251879     5A    -11.249110     6A    -11.246378
       7A    -11.244611     8A    -11.242858     9A    -11.241487
      10A     -1.414095    11A     -1.237066    12A     -1.156634
      13A     -1.026034    14A     -1.021875    15A     -0.863044
      16A     -0.833413    17A     -0.796165    18A     -0.749651
      19A     -0.694174    20A     -0.673305    21A     -0.635577
      22A     -0.625977    23A     -0.603293    24A     -0.596806
      25A     -0.581693    26A     -0.522515    27A     -0.506136
      28A     -0.500457    29A     -0.440917    30A     -0.422351
      31A     -0.345584    32A     -0.341950

  @DF-RHF Final Energy:  -398.62281872528473

   => Energetics <=

    Nuclear Repulsion Energy =            403.6830768198823307
    One-Electron Energy =               -1341.5074221159020453
    Two-Electron Energy =                 539.2015265707350409
    Total Energy =                       -398.6228187252846737
  Basis Set: (AUG-CC-PVTZ AUX)
    Blend: AUG-CC-PVTZ-RI
    Molecular point group: c1

    Geometry (in Angstrom), charge = 0, multiplicity = 1:

       Center              X                  Y                   Z               Mass
    ------------   -----------------  -----------------  -----------------  -----------------
         O            2.261731627538    -1.142085829708    -0.365141152674    15.994914619570
         N            2.357756627538     1.039051170292     0.310021847326    14.003074004430
         C            0.186159627538    -0.004348829708    -0.010562152674    12.000000000000
         C           -0.486894372462     1.213341170292    -0.177763152674    12.000000000000
         C           -0.543588372462    -1.186711829708     0.161227847326    12.000000000000
         C           -1.882104372462     1.245085170292    -0.155430152674    12.000000000000
         C           -1.936141372462    -1.147873829708     0.191323847326    12.000000000000
         C           -2.608452372462     0.068104170292     0.037530847326    12.000000000000
         C            1.778641627538    -0.116332729708    -0.034986952674    12.000000000000
         H            0.072700627538     2.126267170292    -0.367918152674     1.007825032230
         H           -0.001299372462    -2.122755829708     0.263100847326     1.007825032230
         H           -2.403049372462     2.189032170292    -0.296768152674     1.007825032230
         H           -2.500102372462    -2.066654829708     0.332970847326     1.007825032230
         H           -3.695270372462     0.096491170292     0.057113847326     1.007825032230
         H            1.912733627538     1.701427170292     0.930824847326     1.007825032230
         H            3.356291627538     0.916463170292     0.433153847326     1.007825032230

  Basis Set: AUG-CC-PVTZ
    Blend: AUG-CC-PVTZ
  Basis Set: (AUG-CC-PVTZ AUX)
    Blend: AUG-CC-PVTZ-JKFIT
	 Reference Energy          =    -398.6228187252847306 [Eh]
	 Singles Energy            =      -0.0000000000000000 [Eh]
	 Same-Spin Energy          =      -0.4236942006342477 [Eh]
	 Opposite-Spin Energy      =      -1.2998409001944715 [Eh]
	 Correlation Energy        =      -1.7235351008287192 [Eh]
	 Total Energy              =    -400.3463538261134431 [Eh]

	 ================> DF-SCS-MP2 Energies <==================
	-----------------------------------------------------------
	 SCS Same-Spin Scale       =       0.3333333333333333 [-]
	 SCS Opposite-Spin Scale   =       1.2000000000000000 [-]
	 SCS Same-Spin Energy      =      -0.1412314002114159 [Eh]
	 SCS Opposite-Spin Energy  =      -1.5598090802333657 [Eh]
	 SCS Correlation Energy    =      -1.7010404804447816 [Eh]
	 SCS Total Energy          =    -400.3238592057294909 [Eh]
	-----------------------------------------------------------

  Dipole Moment: [D]
     X:    -0.7655      Y:     2.6964      Z:     1.6611     Total:     3.2582

*** Psi4 exiting successfully. Buy a developer a beer!
