                               Psi4 1.3.2 release

  ==> Input File <==

--------------------------------------------------------------------------
#psi4
#
memory 32 gb

molecule  {
0 1
  O        2.2963030    -1.1646890    -0.3757460
  N        2.3923280     1.0164480     0.2994170
  C        0.3452214     0.0478940    -0.0415437
  C       -0.4523230     1.1907380    -0.1883680
  C       -0.5090170    -1.2093150     0.1506230
  C       -1.8475330     1.2224820    -0.1660350
  C       -1.9015700    -1.1704770     0.1807190
  C       -2.5738810     0.0455010     0.0269260
  C        1.7134710    -0.1319220    -0.0440620
  H        0.1072720     2.1036640    -0.3785230
  H        0.0332720    -2.1453590     0.2524960
  H       -2.3684780     2.1664290    -0.3073730
  H       -2.4655310    -2.0892580     0.3223660
  H       -3.6606990     0.0738880     0.0465090
  H        1.9473050     1.6788240     0.9202200
  H        3.3908630     0.8938600     0.4225490
units angstrom
no_reorient  #important for SAPT in psi4, default
symmetry c1  #important for SAPT in psi4, default
}

set PROPERTIES_ORIGIN ["COM"]
properties('MP2/aug-cc-pvtz', properties = ['dipole'])
--------------------------------------------------------------------------

    Molecular point group: c1
  Charge       = 0
  Multiplicity = 1
  Basis Set: AUG-CC-PVTZ
    Blend: AUG-CC-PVTZ
  Basis Set: (AUG-CC-PVTZ AUX)
    Blend: AUG-CC-PVTZ-JKFIT

    Orbital Energies [Eh]
    ---------------------

    Doubly Occupied:

       1A    -20.522776     2A    -15.583391     3A    -11.352674
       4A    -11.266601     5A    -11.265859     6A    -11.262209
       7A    -11.258083     8A    -11.251904     9A    -11.248499
      10A     -1.379052    11A     -1.215567    12A     -1.156701
      13A     -1.049405    14A     -1.023980    15A     -0.903692
      16A     -0.836130    17A     -0.787003    18A     -0.740187
      19A     -0.696357    20A     -0.683466    21A     -0.640274
      22A     -0.616945    23A     -0.604167    24A     -0.591995
      25A     -0.573954    26A     -0.534300    27A     -0.502462
      28A     -0.485772    29A     -0.441523    30A     -0.418974
      31A     -0.359343    32A     -0.338361

  @DF-RHF Final Energy:  -398.60043361440586

   => Energetics <=

    Nuclear Repulsion Energy =            403.8466700279222437
    One-Electron Energy =               -1341.7109917383779703
    Two-Electron Energy =                 539.2638880960498682
    Total Energy =                       -398.6004336144058016
  Basis Set: (AUG-CC-PVTZ AUX)
    Blend: AUG-CC-PVTZ-RI
    Molecular point group: c1

    Geometry (in Angstrom), charge = 0, multiplicity = 1:

       Center              X                  Y                   Z               Mass
    ------------   -----------------  -----------------  -----------------  -----------------
         O            2.259278310566    -1.150200628319    -0.363272853325    15.994914619570
         N            2.355303310566     1.030936371681     0.311890146675    14.003074004430
         C            0.308196710566     0.062382371681    -0.029070553325    12.000000000000
         C           -0.489347689434     1.205226371681    -0.175894853325    12.000000000000
         C           -0.546041689434    -1.194826628319     0.163096146675    12.000000000000
         C           -1.884557689434     1.236970371681    -0.153561853325    12.000000000000
         C           -1.938594689434    -1.155988628319     0.193192146675    12.000000000000
         C           -2.610905689434     0.059989371681     0.039399146675    12.000000000000
         C            1.676446310566    -0.117433628319    -0.031588853325    12.000000000000
         H            0.070247310566     2.118152371681    -0.366049853325     1.007825032230
         H           -0.003752689434    -2.130870628319     0.264969146675     1.007825032230
         H           -2.405502689434     2.180917371681    -0.294899853325     1.007825032230
         H           -2.502555689434    -2.074769628319     0.334839146675     1.007825032230
         H           -3.697723689434     0.088376371681     0.058982146675     1.007825032230
         H            1.910280310566     1.693312371681     0.932693146675     1.007825032230
         H            3.353838310566     0.908348371681     0.435022146675     1.007825032230

  Basis Set: AUG-CC-PVTZ
    Blend: AUG-CC-PVTZ
  Basis Set: (AUG-CC-PVTZ AUX)
    Blend: AUG-CC-PVTZ-JKFIT
	 Reference Energy          =    -398.6004336144058584 [Eh]
	 Singles Energy            =      -0.0000000000000000 [Eh]
	 Same-Spin Energy          =      -0.4262797238995925 [Eh]
	 Opposite-Spin Energy      =      -1.3061632998915342 [Eh]
	 Correlation Energy        =      -1.7324430237911268 [Eh]
	 Total Energy              =    -400.3328766381969785 [Eh]

	 ================> DF-SCS-MP2 Energies <==================
	-----------------------------------------------------------
	 SCS Same-Spin Scale       =       0.3333333333333333 [-]
	 SCS Opposite-Spin Scale   =       1.2000000000000000 [-]
	 SCS Same-Spin Energy      =      -0.1420932412998641 [Eh]
	 SCS Opposite-Spin Energy  =      -1.5673959598698410 [Eh]
	 SCS Correlation Energy    =      -1.7094892011697052 [Eh]
	 SCS Total Energy          =    -400.3099228155755895 [Eh]
	-----------------------------------------------------------

  Dipole Moment: [D]
     X:    -1.8148      Y:     2.6775      Z:     1.6412     Total:     3.6272

*** Psi4 exiting successfully. Buy a developer a beer!
