                               Psi4 1.3.2 release

  ==> Input File <==

--------------------------------------------------------------------------
#psi4
#
memory 32 gb

molecule  {
0 1
  O        2.2192331    -1.2014175    -0.3856747
  N        2.3923280     1.0164480     0.2994170
  C        0.2207310    -0.0269520    -0.0211670
  C       -0.4523230     1.1907380    -0.1883680
  C       -0.5090170    -1.2093150     0.1506230
  C       -1.8475330     1.2224820    -0.1660350
  C       -1.9015700    -1.1704770     0.1807190
  C       -2.5738810     0.0455010     0.0269260
  C        1.7134710    -0.1319220    -0.0440620
  H        0.1072720     2.1036640    -0.3785230
  H        0.0332720    -2.1453590     0.2524960
  H       -2.3684780     2.1664290    -0.3073730
  H       -2.4655310    -2.0892580     0.3223660
  H       -3.6606990     0.0738880     0.0465090
  H        1.9473050     1.6788240     0.9202200
  H        3.3908630     0.8938600     0.4225490
units angstrom
no_reorient  #important for SAPT in psi4, default
symmetry c1  #important for SAPT in psi4, default
}

set PROPERTIES_ORIGIN ["COM"]
properties('MP2/aug-cc-pvtz', properties = ['dipole'])
--------------------------------------------------------------------------

    Molecular point group: c1
  Charge       = 0
  Multiplicity = 1
  Basis Set: AUG-CC-PVTZ
    Blend: AUG-CC-PVTZ
  Basis Set: (AUG-CC-PVTZ AUX)
    Blend: AUG-CC-PVTZ-JKFIT

    Orbital Energies [Eh]
    ---------------------

    Doubly Occupied:

       1A    -20.526600     2A    -15.593272     3A    -11.361837
       4A    -11.255166     5A    -11.252080     6A    -11.251935
       7A    -11.248092     8A    -11.247251     9A    -11.245368
      10A     -1.378499    11A     -1.219143    12A     -1.162266
      13A     -1.037984    14A     -1.026281    15A     -0.878522
      16A     -0.838892    17A     -0.789225    18A     -0.743477
      19A     -0.696275    20A     -0.672599    21A     -0.637758
      22A     -0.620545    23A     -0.600846    24A     -0.596345
      25A     -0.572813    26A     -0.521599    27A     -0.506920
      28A     -0.504284    29A     -0.436983    30A     -0.423458
      31A     -0.349997    32A     -0.345567

  @DF-RHF Final Energy:  -398.62772178046015

   => Energetics <=

    Nuclear Repulsion Energy =            404.5323030658761354
    One-Electron Energy =               -1343.2362944008154955
    Two-Electron Energy =                 540.0762695544792678
    Total Energy =                       -398.6277217804600923
  Basis Set: (AUG-CC-PVTZ AUX)
    Blend: AUG-CC-PVTZ-RI
    Molecular point group: c1

    Geometry (in Angstrom), charge = 0, multiplicity = 1:

       Center              X                  Y                   Z               Mass
    ------------   -----------------  -----------------  -----------------  -----------------
         O            2.204732566013    -1.174656618594    -0.373909605652    15.994914619570
         N            2.377827466013     1.043208881406     0.311182094348    14.003074004430
         C            0.206230466013    -0.000191118594    -0.009401905652    12.000000000000
         C           -0.466823533987     1.217498881406    -0.176602905652    12.000000000000
         C           -0.523517533987    -1.182554118594     0.162388094348    12.000000000000
         C           -1.862033533987     1.249242881406    -0.154269905652    12.000000000000
         C           -1.916070533987    -1.143716118594     0.192484094348    12.000000000000
         C           -2.588381533987     0.072261881406     0.038691094348    12.000000000000
         C            1.698970466013    -0.105161118594    -0.032296905652    12.000000000000
         H            0.092771466013     2.130424881406    -0.366757905652     1.007825032230
         H            0.018771466013    -2.118598118594     0.264261094348     1.007825032230
         H           -2.382978533987     2.193189881406    -0.295607905652     1.007825032230
         H           -2.480031533987    -2.062497118594     0.334131094348     1.007825032230
         H           -3.675199533987     0.100648881406     0.058274094348     1.007825032230
         H            1.932804466013     1.705584881406     0.931985094348     1.007825032230
         H            3.376362466013     0.920620881406     0.434314094348     1.007825032230

  Basis Set: AUG-CC-PVTZ
    Blend: AUG-CC-PVTZ
  Basis Set: (AUG-CC-PVTZ AUX)
    Blend: AUG-CC-PVTZ-JKFIT
	 Reference Energy          =    -398.6277217804601491 [Eh]
	 Singles Energy            =      -0.0000000000000000 [Eh]
	 Same-Spin Energy          =      -0.4249381221042755 [Eh]
	 Opposite-Spin Energy      =      -1.3027402899945084 [Eh]
	 Correlation Energy        =      -1.7276784120987840 [Eh]
	 Total Energy              =    -400.3554001925589318 [Eh]

	 ================> DF-SCS-MP2 Energies <==================
	-----------------------------------------------------------
	 SCS Same-Spin Scale       =       0.3333333333333333 [-]
	 SCS Opposite-Spin Scale   =       1.2000000000000000 [-]
	 SCS Same-Spin Energy      =      -0.1416460407014252 [Eh]
	 SCS Opposite-Spin Energy  =      -1.5632883479934101 [Eh]
	 SCS Correlation Energy    =      -1.7049343886948352 [Eh]
	 SCS Total Energy          =    -400.3326561691549728 [Eh]
	-----------------------------------------------------------

  Dipole Moment: [D]
     X:    -1.2474      Y:     2.7578      Z:     1.6740     Total:     3.4589

*** Psi4 exiting successfully. Buy a developer a beer!
