                               Psi4 1.3.2 release

  ==> Input File <==

--------------------------------------------------------------------------
#psi4
#
memory 32 gb

molecule  {
0 1
  O        2.2580998    -1.1836940    -0.3809156
  N        2.3923280     1.0164480     0.2994170
  C        0.2207310    -0.0269520    -0.0211670
  C       -0.4523230     1.1907380    -0.1883680
  C       -0.5090170    -1.2093150     0.1506230
  C       -1.8475330     1.2224820    -0.1660350
  C       -1.9015700    -1.1704770     0.1807190
  C       -2.5738810     0.0455010     0.0269260
  C        1.7134710    -0.1319220    -0.0440620
  H        0.1072720     2.1036640    -0.3785230
  H        0.0332720    -2.1453590     0.2524960
  H       -2.3684780     2.1664290    -0.3073730
  H       -2.4655310    -2.0892580     0.3223660
  H       -3.6606990     0.0738880     0.0465090
  H        1.9473050     1.6788240     0.9202200
  H        3.3908630     0.8938600     0.4225490
units angstrom
no_reorient  #important for SAPT in psi4, default
symmetry c1  #important for SAPT in psi4, default
}

set PROPERTIES_ORIGIN ["COM"]
properties('MP2/aug-cc-pvtz', properties = ['dipole'])
--------------------------------------------------------------------------

    Molecular point group: c1
  Charge       = 0
  Multiplicity = 1
  Basis Set: AUG-CC-PVTZ
    Blend: AUG-CC-PVTZ
  Basis Set: (AUG-CC-PVTZ AUX)
    Blend: AUG-CC-PVTZ-JKFIT

    Orbital Energies [Eh]
    ---------------------

    Doubly Occupied:

       1A    -20.525894     2A    -15.590731     3A    -11.361312
       4A    -11.256516     5A    -11.253777     6A    -11.253108
       7A    -11.249129     8A    -11.248702     9A    -11.246469
      10A     -1.378168    11A     -1.216418    12A     -1.163414
      13A     -1.039352    14A     -1.027439    15A     -0.879280
      16A     -0.839974    17A     -0.788917    18A     -0.742847
      19A     -0.695944    20A     -0.672323    21A     -0.638777
      22A     -0.620618    23A     -0.601289    24A     -0.596732
      25A     -0.572619    26A     -0.522834    27A     -0.507859
      28A     -0.505461    29A     -0.436953    30A     -0.421648
      31A     -0.351138    32A     -0.346996

  @DF-RHF Final Energy:  -398.62893140639102

   => Energetics <=

    Nuclear Repulsion Energy =            404.2545840219395359
    One-Electron Energy =               -1342.6617517871441123
    Two-Electron Energy =                 539.7782363588135013
    Total Energy =                       -398.6289314063910751
  Basis Set: (AUG-CC-PVTZ AUX)
    Blend: AUG-CC-PVTZ-RI
    Molecular point group: c1

    Geometry (in Angstrom), charge = 0, multiplicity = 1:

       Center              X                  Y                   Z               Mass
    ------------   -----------------  -----------------  -----------------  -----------------
         O            2.238463740576    -1.159274955825    -0.369779333907    15.994914619570
         N            2.372691940576     1.040867044175     0.310553266093    14.003074004430
         C            0.201094940576    -0.002532955825    -0.010030733907    12.000000000000
         C           -0.471959059424     1.215157044175    -0.177231733907    12.000000000000
         C           -0.528653059424    -1.184895955825     0.161759266093    12.000000000000
         C           -1.867169059424     1.246901044175    -0.154898733907    12.000000000000
         C           -1.921206059424    -1.146057955825     0.191855266093    12.000000000000
         C           -2.593517059424     0.069920044175     0.038062266093    12.000000000000
         C            1.693834940576    -0.107502955825    -0.032925733907    12.000000000000
         H            0.087635940576     2.128083044175    -0.367386733907     1.007825032230
         H            0.013635940576    -2.120939955825     0.263632266093     1.007825032230
         H           -2.388114059424     2.190848044175    -0.296236733907     1.007825032230
         H           -2.485167059424    -2.064838955825     0.333502266093     1.007825032230
         H           -3.680335059424     0.098307044175     0.057645266093     1.007825032230
         H            1.927668940576     1.703243044175     0.931356266093     1.007825032230
         H            3.371226940576     0.918279044175     0.433685266093     1.007825032230

  Basis Set: AUG-CC-PVTZ
    Blend: AUG-CC-PVTZ
  Basis Set: (AUG-CC-PVTZ AUX)
    Blend: AUG-CC-PVTZ-JKFIT
	 Reference Energy          =    -398.6289314063910183 [Eh]
	 Singles Energy            =      -0.0000000000000000 [Eh]
	 Same-Spin Energy          =      -0.4248308033974553 [Eh]
	 Opposite-Spin Energy      =      -1.3025896896873759 [Eh]
	 Correlation Energy        =      -1.7274204930848311 [Eh]
	 Total Energy              =    -400.3563518994758397 [Eh]

	 ================> DF-SCS-MP2 Energies <==================
	-----------------------------------------------------------
	 SCS Same-Spin Scale       =       0.3333333333333333 [-]
	 SCS Opposite-Spin Scale   =       1.2000000000000000 [-]
	 SCS Same-Spin Energy      =      -0.1416102677991518 [Eh]
	 SCS Opposite-Spin Energy  =      -1.5631076276248510 [Eh]
	 SCS Correlation Energy    =      -1.7047178954240028 [Eh]
	 SCS Total Energy          =    -400.3336493018150009 [Eh]
	-----------------------------------------------------------

  Dipole Moment: [D]
     X:    -1.4007      Y:     2.7274      Z:     1.6630     Total:     3.4880

*** Psi4 exiting successfully. Buy a developer a beer!
