                               Psi4 1.3.2 release

  ==> Input File <==

--------------------------------------------------------------------------
#psi4
#
memory 32 gb

molecule  {
0 1
  O        2.2772873    -1.1743502    -0.3783817
  N        2.3923280     1.0164480     0.2994170
  C        0.2207310    -0.0269520    -0.0211670
  C       -0.4523230     1.1907380    -0.1883680
  C       -0.5090170    -1.2093150     0.1506230
  C       -1.8475330     1.2224820    -0.1660350
  C       -1.9015700    -1.1704770     0.1807190
  C       -2.5738810     0.0455010     0.0269260
  C        1.7134710    -0.1319220    -0.0440620
  H        0.1072720     2.1036640    -0.3785230
  H        0.0332720    -2.1453590     0.2524960
  H       -2.3684780     2.1664290    -0.3073730
  H       -2.4655310    -2.0892580     0.3223660
  H       -3.6606990     0.0738880     0.0465090
  H        1.9473050     1.6788240     0.9202200
  H        3.3908630     0.8938600     0.4225490
units angstrom
no_reorient  #important for SAPT in psi4, default
symmetry c1  #important for SAPT in psi4, default
}

set PROPERTIES_ORIGIN ["COM"]
properties('MP2/aug-cc-pvtz', properties = ['dipole'])
--------------------------------------------------------------------------

    Molecular point group: c1
  Charge       = 0
  Multiplicity = 1
  Basis Set: AUG-CC-PVTZ
    Blend: AUG-CC-PVTZ
  Basis Set: (AUG-CC-PVTZ AUX)
    Blend: AUG-CC-PVTZ-JKFIT

    Orbital Energies [Eh]
    ---------------------

    Doubly Occupied:

       1A    -20.525520     2A    -15.589446     3A    -11.361063
       4A    -11.257178     5A    -11.254624     6A    -11.253681
       7A    -11.249637     8A    -11.249416     9A    -11.247003
      10A     -1.378061    11A     -1.215030    12A     -1.163965
      13A     -1.040022    14A     -1.028006    15A     -0.879662
      16A     -0.840508    17A     -0.788769    18A     -0.742528
      19A     -0.695777    20A     -0.672184    21A     -0.639271
      22A     -0.620640    23A     -0.601566    24A     -0.596874
      25A     -0.572523    26A     -0.523428    27A     -0.508322
      28A     -0.506037    29A     -0.436902    30A     -0.420670
      31A     -0.351704    32A     -0.347683

  @DF-RHF Final Energy:  -398.62926569015548

   => Energetics <=

    Nuclear Repulsion Energy =            404.1254937180490856
    One-Electron Energy =               -1342.3941248081264348
    Two-Electron Energy =                 539.6393653999219850
    Total Energy =                       -398.6292656901554210
  Basis Set: (AUG-CC-PVTZ AUX)
    Blend: AUG-CC-PVTZ-RI
    Molecular point group: c1

    Geometry (in Angstrom), charge = 0, multiplicity = 1:

       Center              X                  Y                   Z               Mass
    ------------   -----------------  -----------------  -----------------  -----------------
         O            2.255115962450    -1.151165768554    -0.367580242571    15.994914619570
         N            2.370156662450     1.039632431446     0.310218457429    14.003074004430
         C            0.198559662450    -0.003767568554    -0.010365542571    12.000000000000
         C           -0.474494337550     1.213922431446    -0.177566542571    12.000000000000
         C           -0.531188337550    -1.186130568554     0.161424457429    12.000000000000
         C           -1.869704337550     1.245666431446    -0.155233542571    12.000000000000
         C           -1.923741337550    -1.147292568554     0.191520457429    12.000000000000
         C           -2.596052337550     0.068685431446     0.037727457429    12.000000000000
         C            1.691299662450    -0.108737568554    -0.033260542571    12.000000000000
         H            0.085100662450     2.126848431446    -0.367721542571     1.007825032230
         H            0.011100662450    -2.122174568554     0.263297457429     1.007825032230
         H           -2.390649337550     2.189613431446    -0.296571542571     1.007825032230
         H           -2.487702337550    -2.066073568554     0.333167457429     1.007825032230
         H           -3.682870337550     0.097072431446     0.057310457429     1.007825032230
         H            1.925133662450     1.702008431446     0.931021457429     1.007825032230
         H            3.368691662450     0.917044431446     0.433350457429     1.007825032230

  Basis Set: AUG-CC-PVTZ
    Blend: AUG-CC-PVTZ
  Basis Set: (AUG-CC-PVTZ AUX)
    Blend: AUG-CC-PVTZ-JKFIT
	 Reference Energy          =    -398.6292656901554778 [Eh]
	 Singles Energy            =      -0.0000000000000000 [Eh]
	 Same-Spin Energy          =      -0.4247878644349602 [Eh]
	 Opposite-Spin Energy      =      -1.3025347850114510 [Eh]
	 Correlation Energy        =      -1.7273226494464113 [Eh]
	 Total Energy              =    -400.3565883396018990 [Eh]

	 ================> DF-SCS-MP2 Energies <==================
	-----------------------------------------------------------
	 SCS Same-Spin Scale       =       0.3333333333333333 [-]
	 SCS Opposite-Spin Scale   =       1.2000000000000000 [-]
	 SCS Same-Spin Energy      =      -0.1415959548116534 [Eh]
	 SCS Opposite-Spin Energy  =      -1.5630417420137412 [Eh]
	 SCS Correlation Energy    =      -1.7046376968253947 [Eh]
	 SCS Total Energy          =    -400.3339033869808645 [Eh]
	-----------------------------------------------------------

  Dipole Moment: [D]
     X:    -1.4763      Y:     2.7106      Z:     1.6570     Total:     3.5032

*** Psi4 exiting successfully. Buy a developer a beer!
