                               Psi4 1.3.2 release

  ==> Input File <==

--------------------------------------------------------------------------
#psi4
#
memory 32 gb

molecule  {
0 1
  O        2.4064702    -1.1002248    -0.3578403
  N        2.3923280     1.0164480     0.2994170
  C        0.2207310    -0.0269520    -0.0211670
  C       -0.4523230     1.1907380    -0.1883680
  C       -0.5090170    -1.2093150     0.1506230
  C       -1.8475330     1.2224820    -0.1660350
  C       -1.9015700    -1.1704770     0.1807190
  C       -2.5738810     0.0455010     0.0269260
  C        1.7134710    -0.1319220    -0.0440620
  H        0.1072720     2.1036640    -0.3785230
  H        0.0332720    -2.1453590     0.2524960
  H       -2.3684780     2.1664290    -0.3073730
  H       -2.4655310    -2.0892580     0.3223660
  H       -3.6606990     0.0738880     0.0465090
  H        1.9473050     1.6788240     0.9202200
  H        3.3908630     0.8938600     0.4225490
units angstrom
no_reorient  #important for SAPT in psi4, default
symmetry c1  #important for SAPT in psi4, default
}

set PROPERTIES_ORIGIN ["COM"]
properties('MP2/aug-cc-pvtz', properties = ['dipole'])
--------------------------------------------------------------------------

    Molecular point group: c1
  Charge       = 0
  Multiplicity = 1
  Basis Set: AUG-CC-PVTZ
    Blend: AUG-CC-PVTZ
  Basis Set: (AUG-CC-PVTZ AUX)
    Blend: AUG-CC-PVTZ-JKFIT

    Orbital Energies [Eh]
    ---------------------

    Doubly Occupied:

       1A    -20.522519     2A    -15.580164     3A    -11.359576
       4A    -11.261674     5A    -11.260371     6A    -11.257466
       7A    -11.254203     8A    -11.252968     9A    -11.250478
      10A     -1.378395    11A     -1.204891    12A     -1.167282
      13A     -1.044438    14A     -1.031745    15A     -0.882369
      16A     -0.844091    17A     -0.787878    18A     -0.740222
      19A     -0.694646    20A     -0.671043    21A     -0.642485
      22A     -0.620369    23A     -0.604126    24A     -0.597272
      25A     -0.571984    26A     -0.527162    27A     -0.511448
      28A     -0.509803    29A     -0.435399    30A     -0.412836
      31A     -0.355580    32A     -0.351996

  @DF-RHF Final Energy:  -398.62656313550542

   => Energetics <=

    Nuclear Repulsion Energy =            403.4018942205944995
    One-Electron Energy =               -1340.8831594587113614
    Two-Electron Energy =                 538.8547021026114408
    Total Energy =                       -398.6265631355054211
  Basis Set: (AUG-CC-PVTZ AUX)
    Blend: AUG-CC-PVTZ-RI
    Molecular point group: c1

    Geometry (in Angstrom), charge = 0, multiplicity = 1:

       Center              X                  Y                   Z               Mass
    ------------   -----------------  -----------------  -----------------  -----------------
         O            2.367229698640    -1.086834688043    -0.349753013885    15.994914619570
         N            2.353087498640     1.029838111957     0.307504286115    14.003074004430
         C            0.181490498640    -0.013561888043    -0.013079713885    12.000000000000
         C           -0.491563501360     1.204128111957    -0.180280713885    12.000000000000
         C           -0.548257501360    -1.195924888043     0.158710286115    12.000000000000
         C           -1.886773501360     1.235872111957    -0.157947713885    12.000000000000
         C           -1.940810501360    -1.157086888043     0.188806286115    12.000000000000
         C           -2.613121501360     0.058891111957     0.035013286115    12.000000000000
         C            1.674230498640    -0.118531888043    -0.035974713885    12.000000000000
         H            0.068031498640     2.117054111957    -0.370435713885     1.007825032230
         H           -0.005968501360    -2.131968888043     0.260583286115     1.007825032230
         H           -2.407718501360     2.179819111957    -0.299285713885     1.007825032230
         H           -2.504771501360    -2.075867888043     0.330453286115     1.007825032230
         H           -3.699939501360     0.087278111957     0.054596286115     1.007825032230
         H            1.908064498640     1.692214111957     0.928307286115     1.007825032230
         H            3.351622498640     0.907250111957     0.430636286115     1.007825032230

  Basis Set: AUG-CC-PVTZ
    Blend: AUG-CC-PVTZ
  Basis Set: (AUG-CC-PVTZ AUX)
    Blend: AUG-CC-PVTZ-JKFIT
	 Reference Energy          =    -398.6265631355054211 [Eh]
	 Singles Energy            =      -0.0000000000000000 [Eh]
	 Same-Spin Energy          =      -0.4246814358452680 [Eh]
	 Opposite-Spin Energy      =      -1.3025289314103554 [Eh]
	 Correlation Energy        =      -1.7272103672556234 [Eh]
	 Total Energy              =    -400.3537735027610438 [Eh]

	 ================> DF-SCS-MP2 Energies <==================
	-----------------------------------------------------------
	 SCS Same-Spin Scale       =       0.3333333333333333 [-]
	 SCS Opposite-Spin Scale   =       1.2000000000000000 [-]
	 SCS Same-Spin Energy      =      -0.1415604786150893 [Eh]
	 SCS Opposite-Spin Energy  =      -1.5630347176924264 [Eh]
	 SCS Correlation Energy    =      -1.7045951963075157 [Eh]
	 SCS Total Energy          =    -400.3311583318129578 [Eh]
	-----------------------------------------------------------

  Dipole Moment: [D]
     X:    -1.9847      Y:     2.5651      Z:     1.6045     Total:     3.6185

*** Psi4 exiting successfully. Buy a developer a beer!
