                               Psi4 1.3.2 release

  ==> Input File <==

--------------------------------------------------------------------------
#psi4
#
memory 32 gb

molecule  {
0 1
  O        2.2963030    -1.1646890    -0.3757460
  N        2.3923280     1.0164480     0.2994170
  C        0.2631163    -0.0034481    -0.0277663
  C       -0.4523230     1.1907380    -0.1883680
  C       -0.5090170    -1.2093150     0.1506230
  C       -1.8475330     1.2224820    -0.1660350
  C       -1.9015700    -1.1704770     0.1807190
  C       -2.5738810     0.0455010     0.0269260
  C        1.7134710    -0.1319220    -0.0440620
  H        0.1072720     2.1036640    -0.3785230
  H        0.0332720    -2.1453590     0.2524960
  H       -2.3684780     2.1664290    -0.3073730
  H       -2.4655310    -2.0892580     0.3223660
  H       -3.6606990     0.0738880     0.0465090
  H        1.9473050     1.6788240     0.9202200
  H        3.3908630     0.8938600     0.4225490
units angstrom
no_reorient  #important for SAPT in psi4, default
symmetry c1  #important for SAPT in psi4, default
}

set PROPERTIES_ORIGIN ["COM"]
properties('MP2/aug-cc-pvtz', properties = ['dipole'])
--------------------------------------------------------------------------

    Molecular point group: c1
  Charge       = 0
  Multiplicity = 1
  Basis Set: AUG-CC-PVTZ
    Blend: AUG-CC-PVTZ
  Basis Set: (AUG-CC-PVTZ AUX)
    Blend: AUG-CC-PVTZ-JKFIT

    Orbital Energies [Eh]
    ---------------------

    Doubly Occupied:

       1A    -20.524599     2A    -15.586801     3A    -11.358646
       4A    -11.260093     5A    -11.256749     6A    -11.256690
       7A    -11.255639     8A    -11.250597     9A    -11.247808
      10A     -1.378573    11A     -1.214171    12A     -1.161318
      13A     -1.042983    14A     -1.026748    15A     -0.887953
      16A     -0.838782    17A     -0.788390    18A     -0.741684
      19A     -0.695531    20A     -0.676203    21A     -0.639841
      22A     -0.618760    23A     -0.600317    24A     -0.597797
      25A     -0.573296    26A     -0.527245    27A     -0.506284
      28A     -0.501301    29A     -0.439173    30A     -0.419803
      31A     -0.354395    32A     -0.344752

  @DF-RHF Final Energy:  -398.62545008288629

   => Energetics <=

    Nuclear Repulsion Energy =            403.9176570340379158
    One-Electron Energy =               -1341.9403720891953071
    Two-Electron Energy =                 539.3972649722710457
    Total Energy =                       -398.6254500828863456
  Basis Set: (AUG-CC-PVTZ AUX)
    Blend: AUG-CC-PVTZ-RI
    Molecular point group: c1

    Geometry (in Angstrom), charge = 0, multiplicity = 1:

       Center              X                  Y                   Z               Mass
    ------------   -----------------  -----------------  -----------------  -----------------
         O            2.267417415934    -1.145111069185    -0.364638611484    15.994914619570
         N            2.363442415934     1.036025930815     0.310524388516    14.003074004430
         C            0.234230715934     0.016129830815    -0.016658911484    12.000000000000
         C           -0.481208584066     1.210315930815    -0.177260611484    12.000000000000
         C           -0.537902584066    -1.189737069185     0.161730388516    12.000000000000
         C           -1.876418584066     1.242059930815    -0.154927611484    12.000000000000
         C           -1.930455584066    -1.150899069185     0.191826388516    12.000000000000
         C           -2.602766584066     0.065078930815     0.038033388516    12.000000000000
         C            1.684585415934    -0.112344069185    -0.032954611484    12.000000000000
         H            0.078386415934     2.123241930815    -0.367415611484     1.007825032230
         H            0.004386415934    -2.125781069185     0.263603388516     1.007825032230
         H           -2.397363584066     2.186006930815    -0.296265611484     1.007825032230
         H           -2.494416584066    -2.069680069185     0.333473388516     1.007825032230
         H           -3.689584584066     0.093465930815     0.057616388516     1.007825032230
         H            1.918419415934     1.698401930815     0.931327388516     1.007825032230
         H            3.361977415934     0.913437930815     0.433656388516     1.007825032230

  Basis Set: AUG-CC-PVTZ
    Blend: AUG-CC-PVTZ
  Basis Set: (AUG-CC-PVTZ AUX)
    Blend: AUG-CC-PVTZ-JKFIT
	 Reference Energy          =    -398.6254500828862888 [Eh]
	 Singles Energy            =      -0.0000000000000000 [Eh]
	 Same-Spin Energy          =      -0.4251174571341546 [Eh]
	 Opposite-Spin Energy      =      -1.3033560864892184 [Eh]
	 Correlation Energy        =      -1.7284735436233731 [Eh]
	 Total Energy              =    -400.3539236265096406 [Eh]

	 ================> DF-SCS-MP2 Energies <==================
	-----------------------------------------------------------
	 SCS Same-Spin Scale       =       0.3333333333333333 [-]
	 SCS Opposite-Spin Scale   =       1.2000000000000000 [-]
	 SCS Same-Spin Energy      =      -0.1417058190447182 [Eh]
	 SCS Opposite-Spin Energy  =      -1.5640273037870620 [Eh]
	 SCS Correlation Energy    =      -1.7057331228317802 [Eh]
	 SCS Total Energy          =    -400.3311832057180482 [Eh]
	-----------------------------------------------------------

  Dipole Moment: [D]
     X:    -1.6336      Y:     2.6881      Z:     1.6477     Total:     3.5510

*** Psi4 exiting successfully. Buy a developer a beer!
