                               Psi4 1.3.2 release

  ==> Input File <==

--------------------------------------------------------------------------
#psi4
#
memory 32 gb

molecule  {
0 1
  O        2.2963030    -1.1646890    -0.3757460
  N        2.3923280     1.0164480     0.2994170
  C        0.2207310    -0.0269520    -0.0211670
  C       -0.4523230     1.1907380    -0.1883680
  C       -0.5090170    -1.2093150     0.1506230
  C       -1.8475330     1.2224820    -0.1660350
  C       -1.9015700    -1.1704770     0.1807190
  C       -2.5738810     0.0455010     0.0269260
  C        1.8286166    -0.1672250    -0.1233428
  H        0.1072720     2.1036640    -0.3785230
  H        0.0332720    -2.1453590     0.2524960
  H       -2.3684780     2.1664290    -0.3073730
  H       -2.4655310    -2.0892580     0.3223660
  H       -3.6606990     0.0738880     0.0465090
  H        1.9473050     1.6788240     0.9202200
  H        3.3908630     0.8938600     0.4225490
units angstrom
no_reorient  #important for SAPT in psi4, default
symmetry c1  #important for SAPT in psi4, default
}

set PROPERTIES_ORIGIN ["COM"]
properties('MP2/aug-cc-pvtz', properties = ['dipole'])
--------------------------------------------------------------------------

    Molecular point group: c1
  Charge       = 0
  Multiplicity = 1
  Basis Set: AUG-CC-PVTZ
    Blend: AUG-CC-PVTZ
  Basis Set: (AUG-CC-PVTZ AUX)
    Blend: AUG-CC-PVTZ-JKFIT

    Orbital Energies [Eh]
    ---------------------

    Doubly Occupied:

       1A    -20.544142     2A    -15.585192     3A    -11.360394
       4A    -11.249360     5A    -11.247205     6A    -11.245031
       7A    -11.243408     8A    -11.241907     9A    -11.240334
      10A     -1.454679    11A     -1.220120    12A     -1.154684
      13A     -1.023294    14A     -1.020652    15A     -0.856996
      16A     -0.831986    17A     -0.789772    18A     -0.745272
      19A     -0.688381    20A     -0.683402    21A     -0.640857
      22A     -0.627841    23A     -0.612915    24A     -0.599032
      25A     -0.587051    26A     -0.526738    27A     -0.505314
      28A     -0.499307    29A     -0.442885    30A     -0.418235
      31A     -0.343966    32A     -0.341363

  @DF-RHF Final Energy:  -398.61149623934284

   => Energetics <=

    Nuclear Repulsion Energy =            403.7791903357222054
    One-Electron Energy =               -1341.6379457706561880
    Two-Electron Energy =                 539.2472591955911412
    Total Energy =                       -398.6114962393428414
  Basis Set: (AUG-CC-PVTZ AUX)
    Blend: AUG-CC-PVTZ-RI
    Molecular point group: c1

    Geometry (in Angstrom), charge = 0, multiplicity = 1:

       Center              X                  Y                   Z               Mass
    ------------   -----------------  -----------------  -----------------  -----------------
         O            2.260204663641    -1.139281521989    -0.357433670661    15.994914619570
         N            2.356229663641     1.041855478011     0.317729329339    14.003074004430
         C            0.184632663641    -0.001544521989    -0.002854670661    12.000000000000
         C           -0.488421336359     1.216145478011    -0.170055670661    12.000000000000
         C           -0.545115336359    -1.183907521989     0.168935329339    12.000000000000
         C           -1.883631336359     1.247889478011    -0.147722670661    12.000000000000
         C           -1.937668336359    -1.145069521989     0.199031329339    12.000000000000
         C           -2.609979336359     0.070908478011     0.045238329339    12.000000000000
         C            1.792518263641    -0.141817521989    -0.105030470661    12.000000000000
         H            0.071173663641     2.129071478011    -0.360210670661     1.007825032230
         H           -0.002826336359    -2.119951521989     0.270808329339     1.007825032230
         H           -2.404576336359     2.191836478011    -0.289060670661     1.007825032230
         H           -2.501629336359    -2.063850521989     0.340678329339     1.007825032230
         H           -3.696797336359     0.099295478011     0.064821329339     1.007825032230
         H            1.911206663641     1.704231478011     0.938532329339     1.007825032230
         H            3.354764663641     0.919267478011     0.440861329339     1.007825032230

  Basis Set: AUG-CC-PVTZ
    Blend: AUG-CC-PVTZ
  Basis Set: (AUG-CC-PVTZ AUX)
    Blend: AUG-CC-PVTZ-JKFIT
	 Reference Energy          =    -398.6114962393428414 [Eh]
	 Singles Energy            =      -0.0000000000000000 [Eh]
	 Same-Spin Energy          =      -0.4228149467158600 [Eh]
	 Opposite-Spin Energy      =      -1.2982133819868360 [Eh]
	 Correlation Energy        =      -1.7210283287026960 [Eh]
	 Total Energy              =    -400.3325245680455282 [Eh]

	 ================> DF-SCS-MP2 Energies <==================
	-----------------------------------------------------------
	 SCS Same-Spin Scale       =       0.3333333333333333 [-]
	 SCS Opposite-Spin Scale   =       1.2000000000000000 [-]
	 SCS Same-Spin Energy      =      -0.1409383155719533 [Eh]
	 SCS Opposite-Spin Energy  =      -1.5578560583842032 [Eh]
	 SCS Correlation Energy    =      -1.6987943739561564 [Eh]
	 SCS Total Energy          =    -400.3102906132990029 [Eh]
	-----------------------------------------------------------

  Dipole Moment: [D]
     X:    -0.6683      Y:     2.3089      Z:     1.4412     Total:     2.8027

*** Psi4 exiting successfully. Buy a developer a beer!
