                               Psi4 1.3.2 release

  ==> Input File <==

--------------------------------------------------------------------------
#psi4
#
memory 32 gb

molecule  {
0 1
  O        2.3705471    -1.1236795    -0.3618405
  N        2.3923280     1.0164480     0.2994170
  C        0.2207310    -0.0269520    -0.0211670
  C       -0.4523230     1.1907380    -0.1883680
  C       -0.5090170    -1.2093150     0.1506230
  C       -1.8475330     1.2224820    -0.1660350
  C       -1.9015700    -1.1704770     0.1807190
  C       -2.5738810     0.0455010     0.0269260
  C        1.7134710    -0.1319220    -0.0440620
  H        0.1072720     2.1036640    -0.3785230
  H        0.0332720    -2.1453590     0.2524960
  H       -2.3684780     2.1664290    -0.3073730
  H       -2.4655310    -2.0892580     0.3223660
  H       -3.6606990     0.0738880     0.0465090
  H        1.9473050     1.6788240     0.9202200
  H        3.3908630     0.8938600     0.4225490
units angstrom
no_reorient  #important for SAPT in psi4, default
symmetry c1  #important for SAPT in psi4, default
}

set PROPERTIES_ORIGIN ["COM"]
properties('MP2/aug-cc-pvtz', properties = ['dipole'])
--------------------------------------------------------------------------

    Molecular point group: c1
  Charge       = 0
  Multiplicity = 1
  Basis Set: AUG-CC-PVTZ
    Blend: AUG-CC-PVTZ
  Basis Set: (AUG-CC-PVTZ AUX)
    Blend: AUG-CC-PVTZ-JKFIT

    Orbital Energies [Eh]
    ---------------------

    Doubly Occupied:

       1A    -20.523450     2A    -15.582844     3A    -11.359956
       4A    -11.260394     5A    -11.258783     6A    -11.256432
       7A    -11.252880     8A    -11.252052     9A    -11.249527
      10A     -1.378105    11A     -1.207838    12A     -1.166448
      13A     -1.043225    14A     -1.030718    15A     -0.881592
      16A     -0.843095    17A     -0.788100    18A     -0.740891
      19A     -0.694945    20A     -0.671405    21A     -0.641610
      22A     -0.620527    23A     -0.603329    24A     -0.597252
      25A     -0.572090    26A     -0.526160    27A     -0.510569
      28A     -0.508775    29A     -0.436089    30A     -0.415207
      31A     -0.354496    32A     -0.350849

  @DF-RHF Final Energy:  -398.62824529859682

   => Energetics <=

    Nuclear Repulsion Energy =            403.5777196639839985
    One-Electron Energy =               -1341.2526633567754288
    Two-Electron Energy =                 539.0466983941946637
    Total Energy =                       -398.6282452985967666
  Basis Set: (AUG-CC-PVTZ AUX)
    Blend: AUG-CC-PVTZ-RI
    Molecular point group: c1

    Geometry (in Angstrom), charge = 0, multiplicity = 1:

       Center              X                  Y                   Z               Mass
    ------------   -----------------  -----------------  -----------------  -----------------
         O            2.336053181032    -1.107190277275    -0.353224660423    15.994914619570
         N            2.357834081032     1.032937222725     0.308032839577    14.003074004430
         C            0.186237081032    -0.010462777275    -0.012551160423    12.000000000000
         C           -0.486816918968     1.207227222725    -0.179752160423    12.000000000000
         C           -0.543510918968    -1.192825777275     0.159238839577    12.000000000000
         C           -1.882026918968     1.238971222725    -0.157419160423    12.000000000000
         C           -1.936063918968    -1.153987777275     0.189334839577    12.000000000000
         C           -2.608374918968     0.061990222725     0.035541839577    12.000000000000
         C            1.678977081032    -0.115432777275    -0.035446160423    12.000000000000
         H            0.072778081032     2.120153222725    -0.369907160423     1.007825032230
         H           -0.001221918968    -2.128869777275     0.261111839577     1.007825032230
         H           -2.402971918968     2.182918222725    -0.298757160423     1.007825032230
         H           -2.500024918968    -2.072768777275     0.330981839577     1.007825032230
         H           -3.695192918968     0.090377222725     0.055124839577     1.007825032230
         H            1.912811081032     1.695313222725     0.928835839577     1.007825032230
         H            3.356369081032     0.910349222725     0.431164839577     1.007825032230

  Basis Set: AUG-CC-PVTZ
    Blend: AUG-CC-PVTZ
  Basis Set: (AUG-CC-PVTZ AUX)
    Blend: AUG-CC-PVTZ-JKFIT
	 Reference Energy          =    -398.6282452985968234 [Eh]
	 Singles Energy            =      -0.0000000000000000 [Eh]
	 Same-Spin Energy          =      -0.4246767869036977 [Eh]
	 Opposite-Spin Energy      =      -1.3024612759008027 [Eh]
	 Correlation Energy        =      -1.7271380628045003 [Eh]
	 Total Energy              =    -400.3553833614013229 [Eh]

	 ================> DF-SCS-MP2 Energies <==================
	-----------------------------------------------------------
	 SCS Same-Spin Scale       =       0.3333333333333333 [-]
	 SCS Opposite-Spin Scale   =       1.2000000000000000 [-]
	 SCS Same-Spin Energy      =      -0.1415589289678992 [Eh]
	 SCS Opposite-Spin Energy  =      -1.5629535310809632 [Eh]
	 SCS Correlation Energy    =      -1.7045124600488624 [Eh]
	 SCS Total Energy          =    -400.3327577586456982 [Eh]
	-----------------------------------------------------------

  Dipole Moment: [D]
     X:    -1.8440      Y:     2.6125      Z:     1.6174     Total:     3.5835

*** Psi4 exiting successfully. Buy a developer a beer!
