                               Psi4 1.3.2 release

  ==> Input File <==

--------------------------------------------------------------------------
#psi4
#
memory 32 gb

molecule  {
0 1
  O        2.2963030    -1.1646890    -0.3757460
  N        2.3923280     1.0164480     0.2994170
  C        0.2207310    -0.0269520    -0.0211670
  C       -0.4523230     1.1907380    -0.1883680
  C       -0.5090170    -1.2093150     0.1506230
  C       -1.8475330     1.2224820    -0.1660350
  C       -1.9015700    -1.1704770     0.1807190
  C       -2.5738810     0.0455010     0.0269260
  C        1.6057631    -0.0840372     0.0389821
  H        0.1072720     2.1036640    -0.3785230
  H        0.0332720    -2.1453590     0.2524960
  H       -2.3684780     2.1664290    -0.3073730
  H       -2.4655310    -2.0892580     0.3223660
  H       -3.6606990     0.0738880     0.0465090
  H        1.9473050     1.6788240     0.9202200
  H        3.3908630     0.8938600     0.4225490
units angstrom
no_reorient  #important for SAPT in psi4, default
symmetry c1  #important for SAPT in psi4, default
}

set PROPERTIES_ORIGIN ["COM"]
properties('MP2/aug-cc-pvtz', properties = ['dipole'])
--------------------------------------------------------------------------

    Molecular point group: c1
  Charge       = 0
  Multiplicity = 1
  Basis Set: AUG-CC-PVTZ
    Blend: AUG-CC-PVTZ
  Basis Set: (AUG-CC-PVTZ AUX)
    Blend: AUG-CC-PVTZ-JKFIT

    Orbital Energies [Eh]
    ---------------------

    Doubly Occupied:

       1A    -20.505916     2A    -15.594403     3A    -11.362237
       4A    -11.267177     5A    -11.263926     6A    -11.259730
       7A    -11.255912     8A    -11.255186     9A    -11.253082
      10A     -1.318164    11A     -1.198328    12A     -1.174264
      13A     -1.060078    14A     -1.035838    15A     -0.902966
      16A     -0.849641    17A     -0.791199    18A     -0.738060
      19A     -0.703397    20A     -0.681952    21A     -0.647120
      22A     -0.620917    23A     -0.607164    24A     -0.564610
      25A     -0.562825    26A     -0.528537    27A     -0.510784
      28A     -0.504961    29A     -0.419277    30A     -0.402854
      31A     -0.357991    32A     -0.352045

  @DF-RHF Final Energy:  -398.59271446119322

   => Energetics <=

    Nuclear Repulsion Energy =            404.3232079818581042
    One-Electron Energy =               -1342.7307634871226583
    Two-Electron Energy =                 539.8148410440713860
    Total Energy =                       -398.5927144611931681
  Basis Set: (AUG-CC-PVTZ AUX)
    Blend: AUG-CC-PVTZ-RI
    Molecular point group: c1

    Geometry (in Angstrom), charge = 0, multiplicity = 1:

       Center              X                  Y                   Z               Mass
    ------------   -----------------  -----------------  -----------------  -----------------
         O            2.282296203850    -1.147527955761    -0.373524990992    15.994914619570
         N            2.378321203850     1.033609044239     0.301638009008    14.003074004430
         C            0.206724203850    -0.009790955761    -0.018945990992    12.000000000000
         C           -0.466329796150     1.207899044239    -0.186146990992    12.000000000000
         C           -0.523023796150    -1.192153955761     0.152844009008    12.000000000000
         C           -1.861539796150     1.239643044239    -0.163813990992    12.000000000000
         C           -1.915576796150    -1.153315955761     0.182940009008    12.000000000000
         C           -2.587887796150     0.062662044239     0.029147009008    12.000000000000
         C            1.591756303850    -0.066876155761     0.041203109008    12.000000000000
         H            0.093265203850     2.120825044239    -0.376301990992     1.007825032230
         H            0.019265203850    -2.128197955761     0.254717009008     1.007825032230
         H           -2.382484796150     2.183590044239    -0.305151990992     1.007825032230
         H           -2.479537796150    -2.072096955761     0.324587009008     1.007825032230
         H           -3.674705796150     0.091049044239     0.048730009008     1.007825032230
         H            1.933298203850     1.695985044239     0.922441009008     1.007825032230
         H            3.376856203850     0.911021044239     0.424770009008     1.007825032230

  Basis Set: AUG-CC-PVTZ
    Blend: AUG-CC-PVTZ
  Basis Set: (AUG-CC-PVTZ AUX)
    Blend: AUG-CC-PVTZ-JKFIT
	 Reference Energy          =    -398.5927144611932249 [Eh]
	 Singles Energy            =      -0.0000000000000000 [Eh]
	 Same-Spin Energy          =      -0.4284380005503248 [Eh]
	 Opposite-Spin Energy      =      -1.3100661675715481 [Eh]
	 Correlation Energy        =      -1.7385041681218729 [Eh]
	 Total Energy              =    -400.3312186293151171 [Eh]

	 ================> DF-SCS-MP2 Energies <==================
	-----------------------------------------------------------
	 SCS Same-Spin Scale       =       0.3333333333333333 [-]
	 SCS Opposite-Spin Scale   =       1.2000000000000000 [-]
	 SCS Same-Spin Energy      =      -0.1428126668501082 [Eh]
	 SCS Opposite-Spin Energy  =      -1.5720794010858576 [Eh]
	 SCS Correlation Energy    =      -1.7148920679359658 [Eh]
	 SCS Total Energy          =    -400.3076065291292025 [Eh]
	-----------------------------------------------------------

  Dipole Moment: [D]
     X:    -2.2249      Y:     3.0290      Z:     1.8051     Total:     4.1694

*** Psi4 exiting successfully. Buy a developer a beer!
