                               Psi4 1.3.2 release

  ==> Input File <==

--------------------------------------------------------------------------
#psi4
#
memory 32 gb

molecule  {
0 1
  O        2.2963030    -1.1646890    -0.3757460
  N        2.3923280     1.0164480     0.2994170
  C        0.0888665    -0.0884568    -0.0026222
  C       -0.4523230     1.1907380    -0.1883680
  C       -0.5090170    -1.2093150     0.1506230
  C       -1.8475330     1.2224820    -0.1660350
  C       -1.9015700    -1.1704770     0.1807190
  C       -2.5738810     0.0455010     0.0269260
  C        1.7134710    -0.1319220    -0.0440620
  H        0.1072720     2.1036640    -0.3785230
  H        0.0332720    -2.1453590     0.2524960
  H       -2.3684780     2.1664290    -0.3073730
  H       -2.4655310    -2.0892580     0.3223660
  H       -3.6606990     0.0738880     0.0465090
  H        1.9473050     1.6788240     0.9202200
  H        3.3908630     0.8938600     0.4225490
units angstrom
no_reorient  #important for SAPT in psi4, default
symmetry c1  #important for SAPT in psi4, default
}

set PROPERTIES_ORIGIN ["COM"]
properties('MP2/aug-cc-pvtz', properties = ['dipole'])
--------------------------------------------------------------------------

    Molecular point group: c1
  Charge       = 0
  Multiplicity = 1
  Basis Set: AUG-CC-PVTZ
    Blend: AUG-CC-PVTZ
  Basis Set: (AUG-CC-PVTZ AUX)
    Blend: AUG-CC-PVTZ-JKFIT

    Orbital Energies [Eh]
    ---------------------

    Doubly Occupied:

       1A    -20.525137     2A    -15.590166     3A    -11.362853
       4A    -11.253625     5A    -11.251940     6A    -11.250099
       7A    -11.248809     8A    -11.247550     9A    -11.232161
      10A     -1.374719    11A     -1.211532    12A     -1.178356
      13A     -1.045652    14A     -1.027656    15A     -0.858237
      16A     -0.849169    17A     -0.787978    18A     -0.743186
      19A     -0.696359    20A     -0.660043    21A     -0.643121
      22A     -0.629188    23A     -0.607697    24A     -0.588067
      25A     -0.568610    26A     -0.523463    27A     -0.519106
      28A     -0.507585    29A     -0.427298    30A     -0.412326
      31A     -0.361820    32A     -0.346398

  @DF-RHF Final Energy:  -398.60474391546745

   => Energetics <=

    Nuclear Repulsion Energy =            404.4779955193617411
    One-Electron Energy =               -1343.1056689719378028
    Two-Electron Energy =                 540.0229295371086664
    Total Energy =                       -398.6047439154674521
  Basis Set: (AUG-CC-PVTZ AUX)
    Blend: AUG-CC-PVTZ-RI
    Molecular point group: c1

    Geometry (in Angstrom), charge = 0, multiplicity = 1:

       Center              X                  Y                   Z               Mass
    ------------   -----------------  -----------------  -----------------  -----------------
         O            2.284690855494    -1.136684129001    -0.367131154326    15.994914619570
         N            2.380715855494     1.044452870999     0.308031845674    14.003074004430
         C            0.077254355494    -0.060451929001     0.005992645674    12.000000000000
         C           -0.463935144506     1.218742870999    -0.179753154326    12.000000000000
         C           -0.520629144506    -1.181310129001     0.159237845674    12.000000000000
         C           -1.859145144506     1.250486870999    -0.157420154326    12.000000000000
         C           -1.913182144506    -1.142472129001     0.189333845674    12.000000000000
         C           -2.585493144506     0.073505870999     0.035540845674    12.000000000000
         C            1.701858855494    -0.103917129001    -0.035447154326    12.000000000000
         H            0.095659855494     2.131668870999    -0.369908154326     1.007825032230
         H            0.021659855494    -2.117354129001     0.261110845674     1.007825032230
         H           -2.380090144506     2.194433870999    -0.298758154326     1.007825032230
         H           -2.477143144506    -2.061253129001     0.330980845674     1.007825032230
         H           -3.672311144506     0.101892870999     0.055123845674     1.007825032230
         H            1.935692855494     1.706828870999     0.928834845674     1.007825032230
         H            3.379250855494     0.921864870999     0.431163845674     1.007825032230

  Basis Set: AUG-CC-PVTZ
    Blend: AUG-CC-PVTZ
  Basis Set: (AUG-CC-PVTZ AUX)
    Blend: AUG-CC-PVTZ-JKFIT
	 Reference Energy          =    -398.6047439154674521 [Eh]
	 Singles Energy            =      -0.0000000000000000 [Eh]
	 Same-Spin Energy          =      -0.4245704757881173 [Eh]
	 Opposite-Spin Energy      =      -1.3022658297067076 [Eh]
	 Correlation Energy        =      -1.7268363054948248 [Eh]
	 Total Energy              =    -400.3315802209622802 [Eh]

	 ================> DF-SCS-MP2 Energies <==================
	-----------------------------------------------------------
	 SCS Same-Spin Scale       =       0.3333333333333333 [-]
	 SCS Opposite-Spin Scale   =       1.2000000000000000 [-]
	 SCS Same-Spin Energy      =      -0.1415234919293724 [Eh]
	 SCS Opposite-Spin Energy  =      -1.5627189956480489 [Eh]
	 SCS Correlation Energy    =      -1.7042424875774214 [Eh]
	 SCS Total Energy          =    -400.3089864030448553 [Eh]
	-----------------------------------------------------------

  Dipole Moment: [D]
     X:    -1.3749      Y:     2.7015      Z:     1.6563     Total:     3.4543

*** Psi4 exiting successfully. Buy a developer a beer!
