                               Psi4 1.3.2 release

  ==> Input File <==

--------------------------------------------------------------------------
#psi4
#
memory 32 gb

molecule  {
0 1
  O        2.1797296    -1.2167134    -0.3935554
  N        2.3923280     1.0164480     0.2994170
  C        0.2207310    -0.0269520    -0.0211670
  C       -0.4523230     1.1907380    -0.1883680
  C       -0.5090170    -1.2093150     0.1506230
  C       -1.8475330     1.2224820    -0.1660350
  C       -1.9015700    -1.1704770     0.1807190
  C       -2.5738810     0.0455010     0.0269260
  C        1.7134710    -0.1319220    -0.0440620
  H        0.1072720     2.1036640    -0.3785230
  H        0.0332720    -2.1453590     0.2524960
  H       -2.3684780     2.1664290    -0.3073730
  H       -2.4655310    -2.0892580     0.3223660
  H       -3.6606990     0.0738880     0.0465090
  H        1.9473050     1.6788240     0.9202200
  H        3.3908630     0.8938600     0.4225490
units angstrom
no_reorient  #important for SAPT in psi4, default
symmetry c1  #important for SAPT in psi4, default
}

set PROPERTIES_ORIGIN ["COM"]
properties('MP2/aug-cc-pvtz', properties = ['dipole'])
--------------------------------------------------------------------------

    Molecular point group: c1
  Charge       = 0
  Multiplicity = 1
  Basis Set: AUG-CC-PVTZ
    Blend: AUG-CC-PVTZ
  Basis Set: (AUG-CC-PVTZ AUX)
    Blend: AUG-CC-PVTZ-JKFIT

    Orbital Energies [Eh]
    ---------------------

    Doubly Occupied:

       1A    -20.527254     2A    -15.595806     3A    -11.362395
       4A    -11.253772     5A    -11.250723     6A    -11.250388
       7A    -11.247028     8A    -11.245788     9A    -11.244216
      10A     -1.378980    11A     -1.221817    12A     -1.161061
      13A     -1.036577    14A     -1.025093    15A     -0.877775
      16A     -0.837797    17A     -0.789554    18A     -0.744099
      19A     -0.696605    20A     -0.672876    21A     -0.636699
      22A     -0.620464    23A     -0.600527    24A     -0.595785
      25A     -0.573026    26A     -0.520317    27A     -0.505971
      28A     -0.503080    29A     -0.436970    30A     -0.425024
      31A     -0.348835    32A     -0.344051

  @DF-RHF Final Energy:  -398.62578092443243

   => Energetics <=

    Nuclear Repulsion Energy =            404.8341671105407045
    One-Electron Energy =               -1343.8591877795956862
    Two-Electron Energy =                 540.3992397446226050
    Total Energy =                       -398.6257809244324335
  Basis Set: (AUG-CC-PVTZ AUX)
    Blend: AUG-CC-PVTZ-RI
    Molecular point group: c1

    Geometry (in Angstrom), charge = 0, multiplicity = 1:

       Center              X                  Y                   Z               Mass
    ------------   -----------------  -----------------  -----------------  -----------------
         O            2.170448732955    -1.187931444421    -0.380749014899    15.994914619570
         N            2.383047132955     1.045229955579     0.312223385101    14.003074004430
         C            0.211450132955     0.001829955579    -0.008360614899    12.000000000000
         C           -0.461603867045     1.219519955579    -0.175561614899    12.000000000000
         C           -0.518297867045    -1.180533044421     0.163429385101    12.000000000000
         C           -1.856813867045     1.251263955579    -0.153228614899    12.000000000000
         C           -1.910850867045    -1.141695044421     0.193525385101    12.000000000000
         C           -2.583161867045     0.074282955579     0.039732385101    12.000000000000
         C            1.704190132955    -0.103140044421    -0.031255614899    12.000000000000
         H            0.097991132955     2.132445955579    -0.365716614899     1.007825032230
         H            0.023991132955    -2.116577044421     0.265302385101     1.007825032230
         H           -2.377758867045     2.195210955579    -0.294566614899     1.007825032230
         H           -2.474811867045    -2.060476044421     0.335172385101     1.007825032230
         H           -3.669979867045     0.102669955579     0.059315385101     1.007825032230
         H            1.938024132955     1.707605955579     0.933026385101     1.007825032230
         H            3.381582132955     0.922641955579     0.435355385101     1.007825032230

  Basis Set: AUG-CC-PVTZ
    Blend: AUG-CC-PVTZ
  Basis Set: (AUG-CC-PVTZ AUX)
    Blend: AUG-CC-PVTZ-JKFIT
	 Reference Energy          =    -398.6257809244324335 [Eh]
	 Singles Energy            =      -0.0000000000000000 [Eh]
	 Same-Spin Energy          =      -0.4250756019953291 [Eh]
	 Opposite-Spin Energy      =      -1.3029491069638794 [Eh]
	 Correlation Energy        =      -1.7280247089592085 [Eh]
	 Total Energy              =    -400.3538056333916302 [Eh]

	 ================> DF-SCS-MP2 Energies <==================
	-----------------------------------------------------------
	 SCS Same-Spin Scale       =       0.3333333333333333 [-]
	 SCS Opposite-Spin Scale   =       1.2000000000000000 [-]
	 SCS Same-Spin Energy      =      -0.1416918673317764 [Eh]
	 SCS Opposite-Spin Energy  =      -1.5635389283566552 [Eh]
	 SCS Correlation Energy    =      -1.7052307956884316 [Eh]
	 SCS Total Energy          =    -400.3310117201208413 [Eh]
	-----------------------------------------------------------

  Dipole Moment: [D]
     X:    -1.0904      Y:     2.7829      Z:     1.6892     Total:     3.4333

*** Psi4 exiting successfully. Buy a developer a beer!
