                               Psi4 1.3.2 release

  ==> Input File <==

--------------------------------------------------------------------------
#psi4
#
memory 32 gb

molecule  {
0 1
  O        2.2963030    -1.1646890    -0.3757460
  N        2.3713059     1.0276652     0.3026209
  C        0.2207310    -0.0269520    -0.0211670
  C       -0.4523230     1.1907380    -0.1883680
  C       -0.5090170    -1.2093150     0.1506230
  C       -1.8475330     1.2224820    -0.1660350
  C       -1.9015700    -1.1704770     0.1807190
  C       -2.5738810     0.0455010     0.0269260
  C        1.7134710    -0.1319220    -0.0440620
  H        0.1072720     2.1036640    -0.3785230
  H        0.0332720    -2.1453590     0.2524960
  H       -2.3684780     2.1664290    -0.3073730
  H       -2.4655310    -2.0892580     0.3223660
  H       -3.6606990     0.0738880     0.0465090
  H        1.9473050     1.6788240     0.9202200
  H        3.3908630     0.8938600     0.4225490
units angstrom
no_reorient  #important for SAPT in psi4, default
symmetry c1  #important for SAPT in psi4, default
}

set PROPERTIES_ORIGIN ["COM"]
properties('MP2/aug-cc-pvtz', properties = ['dipole'])
--------------------------------------------------------------------------

    Molecular point group: c1
  Charge       = 0
  Multiplicity = 1
  Basis Set: AUG-CC-PVTZ
    Blend: AUG-CC-PVTZ
  Basis Set: (AUG-CC-PVTZ AUX)
    Blend: AUG-CC-PVTZ-JKFIT

    Orbital Energies [Eh]
    ---------------------

    Doubly Occupied:

       1A    -20.526529     2A    -15.588895     3A    -11.361449
       4A    -11.257305     5A    -11.254596     6A    -11.253861
       7A    -11.249786     8A    -11.249628     9A    -11.247155
      10A     -1.378344    11A     -1.215280    12A     -1.163951
      13A     -1.040039    14A     -1.028162    15A     -0.879517
      16A     -0.840566    17A     -0.789828    18A     -0.744851
      19A     -0.693183    20A     -0.670538    21A     -0.639031
      22A     -0.620559    23A     -0.601643    24A     -0.597326
      25A     -0.572126    26A     -0.523718    27A     -0.508467
      28A     -0.506250    29A     -0.437663    30A     -0.420678
      31A     -0.351847    32A     -0.348004

  @DF-RHF Final Energy:  -398.62816452193169

   => Energetics <=

    Nuclear Repulsion Energy =            404.1296325484319141
    One-Electron Energy =               -1342.3940457842363685
    Two-Electron Energy =                 539.6362487138727602
    Total Energy =                       -398.6281645219316943
  Basis Set: (AUG-CC-PVTZ AUX)
    Blend: AUG-CC-PVTZ-RI
    Molecular point group: c1

    Geometry (in Angstrom), charge = 0, multiplicity = 1:

       Center              X                  Y                   Z               Mass
    ------------   -----------------  -----------------  -----------------  -----------------
         O            2.274050867302    -1.144078696901    -0.365663421203    15.994914619570
         N            2.349053767302     1.048275503099     0.312703478797    14.003074004430
         C            0.198478867302    -0.006341696901    -0.011084421203    12.000000000000
         C           -0.474575132698     1.211348303099    -0.178285421203    12.000000000000
         C           -0.531269132698    -1.188704696901     0.160705578797    12.000000000000
         C           -1.869785132698     1.243092303099    -0.155952421203    12.000000000000
         C           -1.923822132698    -1.149866696901     0.190801578797    12.000000000000
         C           -2.596133132698     0.066111303099     0.037008578797    12.000000000000
         C            1.691218867302    -0.111311696901    -0.033979421203    12.000000000000
         H            0.085019867302     2.124274303099    -0.368440421203     1.007825032230
         H            0.011019867302    -2.124748696901     0.262578578797     1.007825032230
         H           -2.390730132698     2.187039303099    -0.297290421203     1.007825032230
         H           -2.487783132698    -2.068647696901     0.332448578797     1.007825032230
         H           -3.682951132698     0.094498303099     0.056591578797     1.007825032230
         H            1.925052867302     1.699434303099     0.930302578797     1.007825032230
         H            3.368610867302     0.914470303099     0.432631578797     1.007825032230

  Basis Set: AUG-CC-PVTZ
    Blend: AUG-CC-PVTZ
  Basis Set: (AUG-CC-PVTZ AUX)
    Blend: AUG-CC-PVTZ-JKFIT
	 Reference Energy          =    -398.6281645219316943 [Eh]
	 Singles Energy            =      -0.0000000000000000 [Eh]
	 Same-Spin Energy          =      -0.4248801812692241 [Eh]
	 Opposite-Spin Energy      =      -1.3027235466799667 [Eh]
	 Correlation Energy        =      -1.7276037279491909 [Eh]
	 Total Energy              =    -400.3557682498808958 [Eh]

	 ================> DF-SCS-MP2 Energies <==================
	-----------------------------------------------------------
	 SCS Same-Spin Scale       =       0.3333333333333333 [-]
	 SCS Opposite-Spin Scale   =       1.2000000000000000 [-]
	 SCS Same-Spin Energy      =      -0.1416267270897414 [Eh]
	 SCS Opposite-Spin Energy  =      -1.5632682560159601 [Eh]
	 SCS Correlation Energy    =      -1.7048949831057014 [Eh]
	 SCS Total Energy          =    -400.3330595050373972 [Eh]
	-----------------------------------------------------------

  Dipole Moment: [D]
     X:    -1.5050      Y:     2.6818      Z:     1.6516     Total:     3.4907

*** Psi4 exiting successfully. Buy a developer a beer!
