                               Psi4 1.3.2 release

  ==> Input File <==

--------------------------------------------------------------------------
#psi4
#
memory 32 gb

molecule  {
0 1
  O        2.2963030    -1.1646890    -0.3757460
  N        2.4131433     1.0048810     0.2961085
  C        0.2207310    -0.0269520    -0.0211670
  C       -0.4523230     1.1907380    -0.1883680
  C       -0.5090170    -1.2093150     0.1506230
  C       -1.8475330     1.2224820    -0.1660350
  C       -1.9015700    -1.1704770     0.1807190
  C       -2.5738810     0.0455010     0.0269260
  C        1.7134710    -0.1319220    -0.0440620
  H        0.1072720     2.1036640    -0.3785230
  H        0.0332720    -2.1453590     0.2524960
  H       -2.3684780     2.1664290    -0.3073730
  H       -2.4655310    -2.0892580     0.3223660
  H       -3.6606990     0.0738880     0.0465090
  H        1.9473050     1.6788240     0.9202200
  H        3.3908630     0.8938600     0.4225490
units angstrom
no_reorient  #important for SAPT in psi4, default
symmetry c1  #important for SAPT in psi4, default
}

set PROPERTIES_ORIGIN ["COM"]
properties('MP2/aug-cc-pvtz', properties = ['dipole'])
--------------------------------------------------------------------------

    Molecular point group: c1
  Charge       = 0
  Multiplicity = 1
  Basis Set: AUG-CC-PVTZ
    Blend: AUG-CC-PVTZ
  Basis Set: (AUG-CC-PVTZ AUX)
    Blend: AUG-CC-PVTZ-JKFIT

    Orbital Energies [Eh]
    ---------------------

    Doubly Occupied:

       1A    -20.523789     2A    -15.587395     3A    -11.360327
       4A    -11.258381     5A    -11.256360     6A    -11.254645
       7A    -11.250647     8A    -11.250490     9A    -11.247911
      10A     -1.377721    11A     -1.212192    12A     -1.165080
      13A     -1.041367    14A     -1.028982    15A     -0.880874
      16A     -0.841544    17A     -0.788639    18A     -0.738880
      19A     -0.697948    20A     -0.673325    21A     -0.640396
      22A     -0.620866    23A     -0.602068    24A     -0.596299
      25A     -0.572648    26A     -0.524305    27A     -0.509110
      28A     -0.506967    29A     -0.435970    30A     -0.418639
      31A     -0.352699    32A     -0.348712

  @DF-RHF Final Energy:  -398.62891204446373

   => Energetics <=

    Nuclear Repulsion Energy =            403.8853360010038500
    One-Electron Energy =               -1341.8981415453122281
    Two-Electron Energy =                 539.3838934998445893
    Total Energy =                       -398.6289120444637319
  Basis Set: (AUG-CC-PVTZ AUX)
    Blend: AUG-CC-PVTZ-RI
    Molecular point group: c1

    Geometry (in Angstrom), charge = 0, multiplicity = 1:

       Center              X                  Y                   Z               Mass
    ------------   -----------------  -----------------  -----------------  -----------------
         O            2.269211223913    -1.141443078939    -0.364910083433    15.994914619570
         N            2.386051523913     1.028126921061     0.306944416567    14.003074004430
         C            0.193639223913    -0.003706078939    -0.010331083433    12.000000000000
         C           -0.479414776087     1.213983921061    -0.177532083433    12.000000000000
         C           -0.536108776087    -1.186069078939     0.161458916567    12.000000000000
         C           -1.874624776087     1.245727921061    -0.155199083433    12.000000000000
         C           -1.928661776087    -1.147231078939     0.191554916567    12.000000000000
         C           -2.600972776087     0.068746921061     0.037761916567    12.000000000000
         C            1.686379223913    -0.108676078939    -0.033226083433    12.000000000000
         H            0.080180223913     2.126909921061    -0.367687083433     1.007825032230
         H            0.006180223913    -2.122113078939     0.263331916567     1.007825032230
         H           -2.395569776087     2.189674921061    -0.296537083433     1.007825032230
         H           -2.492622776087    -2.066012078939     0.333201916567     1.007825032230
         H           -3.687790776087     0.097133921061     0.057344916567     1.007825032230
         H            1.920213223913     1.702069921061     0.931055916567     1.007825032230
         H            3.363771223913     0.917105921061     0.433384916567     1.007825032230

  Basis Set: AUG-CC-PVTZ
    Blend: AUG-CC-PVTZ
  Basis Set: (AUG-CC-PVTZ AUX)
    Blend: AUG-CC-PVTZ-JKFIT
	 Reference Energy          =    -398.6289120444637319 [Eh]
	 Singles Energy            =      -0.0000000000000000 [Eh]
	 Same-Spin Energy          =      -0.4246500095054450 [Eh]
	 Opposite-Spin Energy      =      -1.3023482629382697 [Eh]
	 Correlation Energy        =      -1.7269982724437147 [Eh]
	 Total Energy              =    -400.3559103169074547 [Eh]

	 ================> DF-SCS-MP2 Energies <==================
	-----------------------------------------------------------
	 SCS Same-Spin Scale       =       0.3333333333333333 [-]
	 SCS Opposite-Spin Scale   =       1.2000000000000000 [-]
	 SCS Same-Spin Energy      =      -0.1415500031684817 [Eh]
	 SCS Opposite-Spin Energy  =      -1.5628179155259236 [Eh]
	 SCS Correlation Energy    =      -1.7043679186944054 [Eh]
	 SCS Total Energy          =    -400.3332799631581338 [Eh]
	-----------------------------------------------------------

  Dipole Moment: [D]
     X:    -1.5995      Y:     2.7018      Z:     1.6488     Total:     3.5463

*** Psi4 exiting successfully. Buy a developer a beer!
