                               Psi4 1.3.2 release

  ==> Input File <==

--------------------------------------------------------------------------
#psi4
#
memory 32 gb

molecule  {
0 1
  O        2.2963030    -1.1646890    -0.3757460
  N        2.3923280     1.0164480     0.2994170
  C        0.2207310    -0.0269520    -0.0211670
  C       -0.4523230     1.1907380    -0.1883680
  C       -0.5090170    -1.2093150     0.1506230
  C       -1.8475330     1.2224820    -0.1660350
  C       -1.9015700    -1.1704770     0.1807190
  C       -2.5738810     0.0455010     0.0269260
  C        1.7321786    -0.1386918    -0.0575608
  H        0.1072720     2.1036640    -0.3785230
  H        0.0332720    -2.1453590     0.2524960
  H       -2.3684780     2.1664290    -0.3073730
  H       -2.4655310    -2.0892580     0.3223660
  H       -3.6606990     0.0738880     0.0465090
  H        1.9473050     1.6788240     0.9202200
  H        3.3908630     0.8938600     0.4225490
units angstrom
no_reorient  #important for SAPT in psi4, default
symmetry c1  #important for SAPT in psi4, default
}

set PROPERTIES_ORIGIN ["COM"]
properties('MP2/aug-cc-pvtz', properties = ['dipole'])
--------------------------------------------------------------------------

    Molecular point group: c1
  Charge       = 0
  Multiplicity = 1
  Basis Set: AUG-CC-PVTZ
    Blend: AUG-CC-PVTZ
  Basis Set: (AUG-CC-PVTZ AUX)
    Blend: AUG-CC-PVTZ-JKFIT

    Orbital Energies [Eh]
    ---------------------

    Doubly Occupied:

       1A    -20.528193     2A    -15.587331     3A    -11.360482
       4A    -11.256327     5A    -11.254819     6A    -11.252707
       7A    -11.249113     8A    -11.248641     9A    -11.246544
      10A     -1.390064    11A     -1.214972    12A     -1.162900
      13A     -1.037645    14A     -1.027318    15A     -0.876100
      16A     -0.839584    17A     -0.788456    18A     -0.742843
      19A     -0.694334    20A     -0.671698    21A     -0.639107
      22A     -0.622935    23A     -0.602052    24A     -0.598395
      25A     -0.575331    26A     -0.523964    27A     -0.508688
      28A     -0.505532    29A     -0.438168    30A     -0.421540
      31A     -0.351042    32A     -0.347372

  @DF-RHF Final Energy:  -398.63043559052085

   => Energetics <=

    Nuclear Repulsion Energy =            403.9606530074694319
    One-Electron Energy =               -1342.0537767179212096
    Two-Electron Energy =                 539.4626881199309310
    Total Energy =                       -398.6304355905208467
  Basis Set: (AUG-CC-PVTZ AUX)
    Blend: AUG-CC-PVTZ-RI
    Molecular point group: c1

    Geometry (in Angstrom), charge = 0, multiplicity = 1:

       Center              X                  Y                   Z               Mass
    ------------   -----------------  -----------------  -----------------  -----------------
         O            2.269764594065    -1.142110027420    -0.363954661797    15.994914619570
         N            2.365789594065     1.039026972580     0.311208338203    14.003074004430
         C            0.194192594065    -0.004373027420    -0.009375661797    12.000000000000
         C           -0.478861405935     1.213316972580    -0.176576661797    12.000000000000
         C           -0.535555405935    -1.186736027420     0.162414338203    12.000000000000
         C           -1.874071405935     1.245060972580    -0.154243661797    12.000000000000
         C           -1.928108405935    -1.147898027420     0.192510338203    12.000000000000
         C           -2.600419405935     0.068079972580     0.038717338203    12.000000000000
         C            1.705640194065    -0.116112827420    -0.045769461797    12.000000000000
         H            0.080733594065     2.126242972580    -0.366731661797     1.007825032230
         H            0.006733594065    -2.122780027420     0.264287338203     1.007825032230
         H           -2.395016405935     2.189007972580    -0.295581661797     1.007825032230
         H           -2.492069405935    -2.066679027420     0.334157338203     1.007825032230
         H           -3.687237405935     0.096466972580     0.058300338203     1.007825032230
         H            1.920766594065     1.701402972580     0.932011338203     1.007825032230
         H            3.364324594065     0.916438972580     0.434340338203     1.007825032230

  Basis Set: AUG-CC-PVTZ
    Blend: AUG-CC-PVTZ
  Basis Set: (AUG-CC-PVTZ AUX)
    Blend: AUG-CC-PVTZ-JKFIT
	 Reference Energy          =    -398.6304355905208467 [Eh]
	 Singles Energy            =      -0.0000000000000000 [Eh]
	 Same-Spin Energy          =      -0.4242922857596270 [Eh]
	 Opposite-Spin Energy      =      -1.3015177519040821 [Eh]
	 Correlation Energy        =      -1.7258100376637091 [Eh]
	 Total Energy              =    -400.3562456281845812 [Eh]

	 ================> DF-SCS-MP2 Energies <==================
	-----------------------------------------------------------
	 SCS Same-Spin Scale       =       0.3333333333333333 [-]
	 SCS Opposite-Spin Scale   =       1.2000000000000000 [-]
	 SCS Same-Spin Energy      =      -0.1414307619198756 [Eh]
	 SCS Opposite-Spin Energy  =      -1.5618213022848986 [Eh]
	 SCS Correlation Energy    =      -1.7032520642047742 [Eh]
	 SCS Total Energy          =    -400.3336876547256225 [Eh]
	-----------------------------------------------------------

  Dipole Moment: [D]
     X:    -1.4198      Y:     2.6309      Z:     1.6188     Total:     3.3997

*** Psi4 exiting successfully. Buy a developer a beer!
