                               Psi4 1.3.2 release

  ==> Input File <==

--------------------------------------------------------------------------
#psi4
#
memory 32 gb

molecule  {
0 1
  O        2.2963030    -1.1646890    -0.3757460
  N        2.3923280     1.0164480     0.2994170
  C        0.2207310    -0.0269520    -0.0211670
  C       -0.3202135     1.2531529    -0.2012707
  C       -0.5090170    -1.2093150     0.1506230
  C       -1.8475330     1.2224820    -0.1660350
  C       -1.9015700    -1.1704770     0.1807190
  C       -2.5738810     0.0455010     0.0269260
  C        1.7134710    -0.1319220    -0.0440620
  H        0.1072720     2.1036640    -0.3785230
  H        0.0332720    -2.1453590     0.2524960
  H       -2.3684780     2.1664290    -0.3073730
  H       -2.4655310    -2.0892580     0.3223660
  H       -3.6606990     0.0738880     0.0465090
  H        1.9473050     1.6788240     0.9202200
  H        3.3908630     0.8938600     0.4225490
units angstrom
no_reorient  #important for SAPT in psi4, default
symmetry c1  #important for SAPT in psi4, default
}

set PROPERTIES_ORIGIN ["COM"]
properties('MP2/aug-cc-pvtz', properties = ['dipole'])
--------------------------------------------------------------------------

    Molecular point group: c1
  Charge       = 0
  Multiplicity = 1
  Basis Set: AUG-CC-PVTZ
    Blend: AUG-CC-PVTZ
  Basis Set: (AUG-CC-PVTZ AUX)
    Blend: AUG-CC-PVTZ-JKFIT

    Orbital Energies [Eh]
    ---------------------

    Doubly Occupied:

       1A    -20.523589     2A    -15.587235     3A    -11.357057
       4A    -11.264235     5A    -11.262589     6A    -11.260684
       7A    -11.253462     8A    -11.251297     9A    -11.249440
      10A     -1.376719    11A     -1.213559    12A     -1.155119
      13A     -1.045068    14A     -1.018169    15A     -0.877568
      16A     -0.852927    17A     -0.783195    18A     -0.744004
      19A     -0.702927    20A     -0.674627    21A     -0.651311
      22A     -0.619409    23A     -0.599671    24A     -0.592670
      25A     -0.570506    26A     -0.527239    27A     -0.507441
      28A     -0.501213    29A     -0.432709    30A     -0.417116
      31A     -0.357414    32A     -0.337175

  @DF-RHF Final Energy:  -398.59975778868784

   => Energetics <=

    Nuclear Repulsion Energy =            402.8545120819810563
    One-Electron Energy =               -1339.7738503955840770
    Two-Electron Energy =                 538.3195805249151817
    Total Energy =                       -398.5997577886878389
  Basis Set: (AUG-CC-PVTZ AUX)
    Blend: AUG-CC-PVTZ-RI
    Molecular point group: c1

    Geometry (in Angstrom), charge = 0, multiplicity = 1:

       Center              X                  Y                   Z               Mass
    ------------   -----------------  -----------------  -----------------  -----------------
         O            2.258523026696    -1.148968329318    -0.364013753385    15.994914619570
         N            2.354548026696     1.032168670682     0.311149246615    14.003074004430
         C            0.182951026696    -0.011231329318    -0.009434753385    12.000000000000
         C           -0.357993473304     1.268873570682    -0.189538453385    12.000000000000
         C           -0.546796973304    -1.193594329318     0.162355246615    12.000000000000
         C           -1.885312973304     1.238202670682    -0.154302753385    12.000000000000
         C           -1.939349973304    -1.154756329318     0.192451246615    12.000000000000
         C           -2.611660973304     0.061221670682     0.038658246615    12.000000000000
         C            1.675691026696    -0.116201329318    -0.032329753385    12.000000000000
         H            0.069492026696     2.119384670682    -0.366790753385     1.007825032230
         H           -0.004507973304    -2.129638329318     0.264228246615     1.007825032230
         H           -2.406257973304     2.182149670682    -0.295640753385     1.007825032230
         H           -2.503310973304    -2.073537329318     0.334098246615     1.007825032230
         H           -3.698478973304     0.089608670682     0.058241246615     1.007825032230
         H            1.909525026696     1.694544670682     0.931952246615     1.007825032230
         H            3.353083026696     0.909580670682     0.434281246615     1.007825032230

  Basis Set: AUG-CC-PVTZ
    Blend: AUG-CC-PVTZ
  Basis Set: (AUG-CC-PVTZ AUX)
    Blend: AUG-CC-PVTZ-JKFIT
	 Reference Energy          =    -398.5997577886878389 [Eh]
	 Singles Energy            =      -0.0000000000000000 [Eh]
	 Same-Spin Energy          =      -0.4249822399934716 [Eh]
	 Opposite-Spin Energy      =      -1.3047251215471669 [Eh]
	 Correlation Energy        =      -1.7297073615406386 [Eh]
	 Total Energy              =    -400.3294651502284864 [Eh]

	 ================> DF-SCS-MP2 Energies <==================
	-----------------------------------------------------------
	 SCS Same-Spin Scale       =       0.3333333333333333 [-]
	 SCS Opposite-Spin Scale   =       1.2000000000000000 [-]
	 SCS Same-Spin Energy      =      -0.1416607466644905 [Eh]
	 SCS Opposite-Spin Energy  =      -1.5656701458566002 [Eh]
	 SCS Correlation Energy    =      -1.7073308925210908 [Eh]
	 SCS Total Energy          =    -400.3070886812089384 [Eh]
	-----------------------------------------------------------

  Dipole Moment: [D]
     X:    -1.5995      Y:     2.6771      Z:     1.6432     Total:     3.5250

*** Psi4 exiting successfully. Buy a developer a beer!
