                               Psi4 1.3.2 release

  ==> Input File <==

--------------------------------------------------------------------------
#psi4
#
memory 32 gb

molecule  {
0 1
  O        2.2963030    -1.1646890    -0.3757460
  N        2.3923280     1.0164480     0.2994170
  C        0.2207310    -0.0269520    -0.0211670
  C       -0.4523230     1.1907380    -0.1883680
  C       -0.5090170    -1.2093150     0.1506230
  C       -1.8475330     1.2224820    -0.1660350
  C       -1.9015700    -1.1704770     0.1807190
  C       -2.5738810     0.0455010     0.0269260
  C        1.9129550    -0.1459498    -0.0471216
  H        0.1072720     2.1036640    -0.3785230
  H        0.0332720    -2.1453590     0.2524960
  H       -2.3684780     2.1664290    -0.3073730
  H       -2.4655310    -2.0892580     0.3223660
  H       -3.6606990     0.0738880     0.0465090
  H        1.9473050     1.6788240     0.9202200
  H        3.3908630     0.8938600     0.4225490
units angstrom
no_reorient  #important for SAPT in psi4, default
symmetry c1  #important for SAPT in psi4, default
}

set PROPERTIES_ORIGIN ["COM"]
properties('MP2/aug-cc-pvtz', properties = ['dipole'])
--------------------------------------------------------------------------

    Molecular point group: c1
  Charge       = 0
  Multiplicity = 1
  Basis Set: AUG-CC-PVTZ
    Blend: AUG-CC-PVTZ
  Basis Set: (AUG-CC-PVTZ AUX)
    Blend: AUG-CC-PVTZ-JKFIT

    Orbital Energies [Eh]
    ---------------------

    Doubly Occupied:

       1A    -20.543397     2A    -15.602380     3A    -11.364014
       4A    -11.242442     5A    -11.240341     6A    -11.239059
       7A    -11.237978     8A    -11.236747     9A    -11.233395
      10A     -1.451047    11A     -1.261826    12A     -1.148199
      13A     -1.014997    14A     -1.012854    15A     -0.851363
      16A     -0.825457    17A     -0.806617    18A     -0.754457
      19A     -0.693126    20A     -0.683552    21A     -0.633300
      22A     -0.627299    23A     -0.616196    24A     -0.594319
      25A     -0.582137    26A     -0.523335    27A     -0.500232
      28A     -0.493450    29A     -0.455477    30A     -0.402823
      31A     -0.338629    32A     -0.334092

  @DF-RHF Final Energy:  -398.59347881112751

   => Energetics <=

    Nuclear Repulsion Energy =            403.3971285847582635
    One-Electron Energy =               -1340.8921385934929731
    Two-Electron Energy =                 538.9015311976071416
    Total Energy =                       -398.5934788111275111
  Basis Set: (AUG-CC-PVTZ AUX)
    Blend: AUG-CC-PVTZ-RI
    Molecular point group: c1

    Geometry (in Angstrom), charge = 0, multiplicity = 1:

       Center              X                  Y                   Z               Mass
    ------------   -----------------  -----------------  -----------------  -----------------
         O            2.251844170515    -1.141390539511    -0.364989503101    15.994914619570
         N            2.347869170515     1.039746460489     0.310173496899    14.003074004430
         C            0.176272170515    -0.003653539511    -0.010410503101    12.000000000000
         C           -0.496781829485     1.214036460489    -0.177611503101    12.000000000000
         C           -0.553475829485    -1.186016539511     0.161379496899    12.000000000000
         C           -1.891991829485     1.245780460489    -0.155278503101    12.000000000000
         C           -1.946028829485    -1.147178539511     0.191475496899    12.000000000000
         C           -2.618339829485     0.068799460489     0.037682496899    12.000000000000
         C            1.868496170515    -0.122651339511    -0.036365103101    12.000000000000
         H            0.062813170515     2.126962460489    -0.367766503101     1.007825032230
         H           -0.011186829485    -2.122060539511     0.263252496899     1.007825032230
         H           -2.412936829485     2.189727460489    -0.296616503101     1.007825032230
         H           -2.509989829485    -2.065959539511     0.333122496899     1.007825032230
         H           -3.705157829485     0.097186460489     0.057265496899     1.007825032230
         H            1.902846170515     1.702122460489     0.930976496899     1.007825032230
         H            3.346404170515     0.917158460489     0.433305496899     1.007825032230

  Basis Set: AUG-CC-PVTZ
    Blend: AUG-CC-PVTZ
  Basis Set: (AUG-CC-PVTZ AUX)
    Blend: AUG-CC-PVTZ-JKFIT
	 Reference Energy          =    -398.5934788111275111 [Eh]
	 Singles Energy            =      -0.0000000000000000 [Eh]
	 Same-Spin Energy          =      -0.4237631332472648 [Eh]
	 Opposite-Spin Energy      =      -1.2992896758842469 [Eh]
	 Correlation Energy        =      -1.7230528091315116 [Eh]
	 Total Energy              =    -400.3165316202590134 [Eh]

	 ================> DF-SCS-MP2 Energies <==================
	-----------------------------------------------------------
	 SCS Same-Spin Scale       =       0.3333333333333333 [-]
	 SCS Opposite-Spin Scale   =       1.2000000000000000 [-]
	 SCS Same-Spin Energy      =      -0.1412543777490883 [Eh]
	 SCS Opposite-Spin Energy  =      -1.5591476110610962 [Eh]
	 SCS Correlation Energy    =      -1.7004019888101845 [Eh]
	 SCS Total Energy          =    -400.2938807999377104 [Eh]
	-----------------------------------------------------------

  Dipole Moment: [D]
     X:     0.0989      Y:     2.6592      Z:     1.6585     Total:     3.1355

*** Psi4 exiting successfully. Buy a developer a beer!
