                               Psi4 1.3.2 release

  ==> Input File <==

--------------------------------------------------------------------------
#psi4
#
memory 32 gb

molecule  {
0 1
  O        2.2772838    -1.1741625    -0.3789724
  N        2.3923280     1.0164480     0.2994170
  C        0.2207310    -0.0269520    -0.0211670
  C       -0.4523230     1.1907380    -0.1883680
  C       -0.5090170    -1.2093150     0.1506230
  C       -1.8475330     1.2224820    -0.1660350
  C       -1.9015700    -1.1704770     0.1807190
  C       -2.5738810     0.0455010     0.0269260
  C        1.7134710    -0.1319220    -0.0440620
  H        0.1072720     2.1036640    -0.3785230
  H        0.0332720    -2.1453590     0.2524960
  H       -2.3684780     2.1664290    -0.3073730
  H       -2.4655310    -2.0892580     0.3223660
  H       -3.6606990     0.0738880     0.0465090
  H        1.9473050     1.6788240     0.9202200
  H        3.3908630     0.8938600     0.4225490
units angstrom
no_reorient  #important for SAPT in psi4, default
symmetry c1  #important for SAPT in psi4, default
}

set PROPERTIES_ORIGIN ["COM"]
properties('MP2/aug-cc-pvtz', properties = ['dipole'])
--------------------------------------------------------------------------

    Molecular point group: c1
  Charge       = 0
  Multiplicity = 1
  Basis Set: AUG-CC-PVTZ
    Blend: AUG-CC-PVTZ
  Basis Set: (AUG-CC-PVTZ AUX)
    Blend: AUG-CC-PVTZ-JKFIT

    Orbital Energies [Eh]
    ---------------------

    Doubly Occupied:

       1A    -20.525520     2A    -15.589452     3A    -11.361063
       4A    -11.257177     5A    -11.254625     6A    -11.253679
       7A    -11.249637     8A    -11.249417     9A    -11.247003
      10A     -1.378060    11A     -1.215033    12A     -1.163965
      13A     -1.040021    14A     -1.028006    15A     -0.879662
      16A     -0.840508    17A     -0.788770    18A     -0.742528
      19A     -0.695779    20A     -0.672184    21A     -0.639271
      22A     -0.620643    23A     -0.601564    24A     -0.596866
      25A     -0.572527    26A     -0.523430    27A     -0.508323
      28A     -0.506038    29A     -0.436899    30A     -0.420673
      31A     -0.351702    32A     -0.347682

  @DF-RHF Final Energy:  -398.62926501562669

   => Energetics <=

    Nuclear Repulsion Energy =            404.1251883795047775
    One-Electron Energy =               -1342.3934922012863353
    Two-Electron Energy =                 539.6390388061547583
    Total Energy =                       -398.6292650156267428
  Basis Set: (AUG-CC-PVTZ AUX)
    Blend: AUG-CC-PVTZ-RI
    Molecular point group: c1

    Geometry (in Angstrom), charge = 0, multiplicity = 1:

       Center              X                  Y                   Z               Mass
    ------------   -----------------  -----------------  -----------------  -----------------
         O            2.255112924911    -1.151002869686    -0.368092892341    15.994914619570
         N            2.370157124911     1.039607630314     0.310296507659    14.003074004430
         C            0.198560124911    -0.003792369686    -0.010287492341    12.000000000000
         C           -0.474493875089     1.213897630314    -0.177488492341    12.000000000000
         C           -0.531187875089    -1.186155369686     0.161502507659    12.000000000000
         C           -1.869703875089     1.245641630314    -0.155155492341    12.000000000000
         C           -1.923740875089    -1.147317369686     0.191598507659    12.000000000000
         C           -2.596051875089     0.068660630314     0.037805507659    12.000000000000
         C            1.691300124911    -0.108762369686    -0.033182492341    12.000000000000
         H            0.085101124911     2.126823630314    -0.367643492341     1.007825032230
         H            0.011101124911    -2.122199369686     0.263375507659     1.007825032230
         H           -2.390648875089     2.189588630314    -0.296493492341     1.007825032230
         H           -2.487701875089    -2.066098369686     0.333245507659     1.007825032230
         H           -3.682869875089     0.097047630314     0.057388507659     1.007825032230
         H            1.925134124911     1.701983630314     0.931099507659     1.007825032230
         H            3.368692124911     0.917019630314     0.433428507659     1.007825032230

  Basis Set: AUG-CC-PVTZ
    Blend: AUG-CC-PVTZ
  Basis Set: (AUG-CC-PVTZ AUX)
    Blend: AUG-CC-PVTZ-JKFIT
	 Reference Energy          =    -398.6292650156266859 [Eh]
	 Singles Energy            =      -0.0000000000000000 [Eh]
	 Same-Spin Energy          =      -0.4247880327430076 [Eh]
	 Opposite-Spin Energy      =      -1.3025353638819646 [Eh]
	 Correlation Energy        =      -1.7273233966249721 [Eh]
	 Total Energy              =    -400.3565884122516536 [Eh]

	 ================> DF-SCS-MP2 Energies <==================
	-----------------------------------------------------------
	 SCS Same-Spin Scale       =       0.3333333333333333 [-]
	 SCS Opposite-Spin Scale   =       1.2000000000000000 [-]
	 SCS Same-Spin Energy      =      -0.1415960109143359 [Eh]
	 SCS Opposite-Spin Energy  =      -1.5630424366583575 [Eh]
	 SCS Correlation Energy    =      -1.7046384475726934 [Eh]
	 SCS Total Energy          =    -400.3339034631993627 [Eh]
	-----------------------------------------------------------

  Dipole Moment: [D]
     X:    -1.4762      Y:     2.7104      Z:     1.6580     Total:     3.5035

*** Psi4 exiting successfully. Buy a developer a beer!
