                               Psi4 1.3.2 release

  ==> Input File <==

--------------------------------------------------------------------------
#psi4
#
memory 32 gb

molecule  {
0 1
  O        2.2963030    -1.1646890    -0.3757460
  N        2.3923280     1.0164480     0.2994170
  C        0.1775257    -0.0489723    -0.0147714
  C       -0.4523230     1.1907380    -0.1883680
  C       -0.5090170    -1.2093150     0.1506230
  C       -1.8475330     1.2224820    -0.1660350
  C       -1.9015700    -1.1704770     0.1807190
  C       -2.5738810     0.0455010     0.0269260
  C        1.7134710    -0.1319220    -0.0440620
  H        0.1072720     2.1036640    -0.3785230
  H        0.0332720    -2.1453590     0.2524960
  H       -2.3684780     2.1664290    -0.3073730
  H       -2.4655310    -2.0892580     0.3223660
  H       -3.6606990     0.0738880     0.0465090
  H        1.9473050     1.6788240     0.9202200
  H        3.3908630     0.8938600     0.4225490
units angstrom
no_reorient  #important for SAPT in psi4, default
symmetry c1  #important for SAPT in psi4, default
}

set PROPERTIES_ORIGIN ["COM"]
properties('MP2/aug-cc-pvtz', properties = ['dipole'])
--------------------------------------------------------------------------

    Molecular point group: c1
  Charge       = 0
  Multiplicity = 1
  Basis Set: AUG-CC-PVTZ
    Blend: AUG-CC-PVTZ
  Basis Set: (AUG-CC-PVTZ AUX)
    Blend: AUG-CC-PVTZ-JKFIT

    Orbital Energies [Eh]
    ---------------------

    Doubly Occupied:

       1A    -20.525408     2A    -15.589193     3A    -11.362316
       4A    -11.256010     5A    -11.254255     6A    -11.252091
       7A    -11.249781     8A    -11.247748     9A    -11.243902
      10A     -1.377166    11A     -1.213052    12A     -1.168362
      13A     -1.040020    14A     -1.029681    15A     -0.872330
      16A     -0.843682    17A     -0.788605    18A     -0.742606
      19A     -0.695816    20A     -0.667858    21A     -0.639959
      22A     -0.623382    23A     -0.604517    24A     -0.594239
      25A     -0.571324    26A     -0.521793    27A     -0.511766
      28A     -0.509682    29A     -0.433744    30A     -0.418793
      31A     -0.353052    32A     -0.349570

  @DF-RHF Final Energy:  -398.62739827881256

   => Energetics <=

    Nuclear Repulsion Energy =            404.1242750470434544
    One-Electron Energy =               -1342.3999444644073264
    Two-Electron Energy =                 539.6482711385513085
    Total Energy =                       -398.6273982788125068
  Basis Set: (AUG-CC-PVTZ AUX)
    Blend: AUG-CC-PVTZ-RI
    Molecular point group: c1

    Geometry (in Angstrom), charge = 0, multiplicity = 1:

       Center              X                  Y                   Z               Mass
    ------------   -----------------  -----------------  -----------------  -----------------
         O            2.275902040054    -1.140598240377    -0.365926800164    15.994914619570
         N            2.371927040054     1.040538759623     0.309236199836    14.003074004430
         C            0.157124740054    -0.024881540377    -0.004952200164    12.000000000000
         C           -0.472723959946     1.214828759623    -0.178548800164    12.000000000000
         C           -0.529417959946    -1.185224240377     0.160442199836    12.000000000000
         C           -1.867933959946     1.246572759623    -0.156215800164    12.000000000000
         C           -1.921970959946    -1.146386240377     0.190538199836    12.000000000000
         C           -2.594281959946     0.069591759623     0.036745199836    12.000000000000
         C            1.693070040054    -0.107831240377    -0.034242800164    12.000000000000
         H            0.086871040054     2.127754759623    -0.368703800164     1.007825032230
         H            0.012871040054    -2.121268240377     0.262315199836     1.007825032230
         H           -2.388878959946     2.190519759623    -0.297553800164     1.007825032230
         H           -2.485931959946    -2.065167240377     0.332185199836     1.007825032230
         H           -3.681099959946     0.097978759623     0.056328199836     1.007825032230
         H            1.926904040054     1.702914759623     0.930039199836     1.007825032230
         H            3.370462040054     0.917950759623     0.432368199836     1.007825032230

  Basis Set: AUG-CC-PVTZ
    Blend: AUG-CC-PVTZ
  Basis Set: (AUG-CC-PVTZ AUX)
    Blend: AUG-CC-PVTZ-JKFIT
	 Reference Energy          =    -398.6273982788125636 [Eh]
	 Singles Energy            =      -0.0000000000000000 [Eh]
	 Same-Spin Energy          =      -0.4245343314905392 [Eh]
	 Opposite-Spin Energy      =      -1.3020246418999877 [Eh]
	 Correlation Energy        =      -1.7265589733905269 [Eh]
	 Total Energy              =    -400.3539572522030880 [Eh]

	 ================> DF-SCS-MP2 Energies <==================
	-----------------------------------------------------------
	 SCS Same-Spin Scale       =       0.3333333333333333 [-]
	 SCS Opposite-Spin Scale   =       1.2000000000000000 [-]
	 SCS Same-Spin Energy      =      -0.1415114438301797 [Eh]
	 SCS Opposite-Spin Energy  =      -1.5624295702799851 [Eh]
	 SCS Correlation Energy    =      -1.7039410141101647 [Eh]
	 SCS Total Energy          =    -400.3313392929227348 [Eh]
	-----------------------------------------------------------

  Dipole Moment: [D]
     X:    -1.4787      Y:     2.6968      Z:     1.6532     Total:     3.4917

*** Psi4 exiting successfully. Buy a developer a beer!
