                               Psi4 1.3.2 release

  ==> Input File <==

--------------------------------------------------------------------------
#psi4
#
memory 32 gb

molecule  {
0 1
  O        2.3151412    -1.1547132    -0.3730093
  N        2.3923280     1.0164480     0.2994170
  C        0.2207310    -0.0269520    -0.0211670
  C       -0.4523230     1.1907380    -0.1883680
  C       -0.5090170    -1.2093150     0.1506230
  C       -1.8475330     1.2224820    -0.1660350
  C       -1.9015700    -1.1704770     0.1807190
  C       -2.5738810     0.0455010     0.0269260
  C        1.7134710    -0.1319220    -0.0440620
  H        0.1072720     2.1036640    -0.3785230
  H        0.0332720    -2.1453590     0.2524960
  H       -2.3684780     2.1664290    -0.3073730
  H       -2.4655310    -2.0892580     0.3223660
  H       -3.6606990     0.0738880     0.0465090
  H        1.9473050     1.6788240     0.9202200
  H        3.3908630     0.8938600     0.4225490
units angstrom
no_reorient  #important for SAPT in psi4, default
symmetry c1  #important for SAPT in psi4, default
}

set PROPERTIES_ORIGIN ["COM"]
properties('MP2/aug-cc-pvtz', properties = ['dipole'])
--------------------------------------------------------------------------

    Molecular point group: c1
  Charge       = 0
  Multiplicity = 1
  Basis Set: AUG-CC-PVTZ
    Blend: AUG-CC-PVTZ
  Basis Set: (AUG-CC-PVTZ AUX)
    Blend: AUG-CC-PVTZ-JKFIT

    Orbital Energies [Eh]
    ---------------------

    Doubly Occupied:

       1A    -20.524733     2A    -15.586845     3A    -11.360592
       4A    -11.258479     5A    -11.256308     6A    -11.254802
       7A    -11.250832     8A    -11.250621     9A    -11.248040
      10A     -1.377960    11A     -1.212203    12A     -1.165017
      13A     -1.041332    14A     -1.029115    15A     -0.880431
      16A     -0.841560    17A     -0.788487    18A     -0.741881
      19A     -0.695441    20A     -0.671892    21A     -0.640232
      22A     -0.620647    23A     -0.602210    24A     -0.597070
      25A     -0.572340    26A     -0.524569    27A     -0.509235
      28A     -0.507161    29A     -0.436696    30A     -0.418594
      31A     -0.352827    32A     -0.349001

  @DF-RHF Final Energy:  -398.62939587708365

   => Energetics <=

    Nuclear Repulsion Energy =            403.8867009068308107
    One-Electron Energy =               -1341.8978875146833616
    Two-Electron Energy =                 539.3817907307688984
    Total Energy =                       -398.6293958770836525
  Basis Set: (AUG-CC-PVTZ AUX)
    Blend: AUG-CC-PVTZ-RI
    Molecular point group: c1

    Geometry (in Angstrom), charge = 0, multiplicity = 1:

       Center              X                  Y                   Z               Mass
    ------------   -----------------  -----------------  -----------------  -----------------
         O            2.287968160058    -1.134123439906    -0.362917707233    15.994914619570
         N            2.365154960058     1.037037760094     0.309508592767    14.003074004430
         C            0.193557960058    -0.006362239906    -0.011075407233    12.000000000000
         C           -0.479496039942     1.211327760094    -0.178276407233    12.000000000000
         C           -0.536190039942    -1.188725239906     0.160714592767    12.000000000000
         C           -1.874706039942     1.243071760094    -0.155943407233    12.000000000000
         C           -1.928743039942    -1.149887239906     0.190810592767    12.000000000000
         C           -2.601054039942     0.066090760094     0.037017592767    12.000000000000
         C            1.686297960058    -0.111332239906    -0.033970407233    12.000000000000
         H            0.080098960058     2.124253760094    -0.368431407233     1.007825032230
         H            0.006098960058    -2.124769239906     0.262587592767     1.007825032230
         H           -2.395651039942     2.187018760094    -0.297281407233     1.007825032230
         H           -2.492704039942    -2.068668239906     0.332457592767     1.007825032230
         H           -3.687872039942     0.094477760094     0.056600592767     1.007825032230
         H            1.920131960058     1.699413760094     0.930311592767     1.007825032230
         H            3.363689960058     0.914449760094     0.432640592767     1.007825032230

  Basis Set: AUG-CC-PVTZ
    Blend: AUG-CC-PVTZ
  Basis Set: (AUG-CC-PVTZ AUX)
    Blend: AUG-CC-PVTZ-JKFIT
	 Reference Energy          =    -398.6293958770836525 [Eh]
	 Singles Energy            =      -0.0000000000000000 [Eh]
	 Same-Spin Energy          =      -0.4247230234991399 [Eh]
	 Opposite-Spin Energy      =      -1.3024657028775288 [Eh]
	 Correlation Energy        =      -1.7271887263766688 [Eh]
	 Total Energy              =    -400.3565846034603055 [Eh]

	 ================> DF-SCS-MP2 Energies <==================
	-----------------------------------------------------------
	 SCS Same-Spin Scale       =       0.3333333333333333 [-]
	 SCS Opposite-Spin Scale   =       1.2000000000000000 [-]
	 SCS Same-Spin Energy      =      -0.1415743411663800 [Eh]
	 SCS Opposite-Spin Energy  =      -1.5629588434530346 [Eh]
	 SCS Correlation Energy    =      -1.7045331846194145 [Eh]
	 SCS Total Energy          =    -400.3339290617030883 [Eh]
	-----------------------------------------------------------

  Dipole Moment: [D]
     X:    -1.6254      Y:     2.6741      Z:     1.6439     Total:     3.5348

*** Psi4 exiting successfully. Buy a developer a beer!
