                               Psi4 1.3.2 release

  ==> Input File <==

--------------------------------------------------------------------------
#psi4
#
memory 32 gb

molecule  {
0 1
  O        2.3337961    -1.1444258    -0.3701723
  N        2.3923280     1.0164480     0.2994170
  C        0.2207310    -0.0269520    -0.0211670
  C       -0.4523230     1.1907380    -0.1883680
  C       -0.5090170    -1.2093150     0.1506230
  C       -1.8475330     1.2224820    -0.1660350
  C       -1.9015700    -1.1704770     0.1807190
  C       -2.5738810     0.0455010     0.0269260
  C        1.7134710    -0.1319220    -0.0440620
  H        0.1072720     2.1036640    -0.3785230
  H        0.0332720    -2.1453590     0.2524960
  H       -2.3684780     2.1664290    -0.3073730
  H       -2.4655310    -2.0892580     0.3223660
  H       -3.6606990     0.0738880     0.0465090
  H        1.9473050     1.6788240     0.9202200
  H        3.3908630     0.8938600     0.4225490
units angstrom
no_reorient  #important for SAPT in psi4, default
symmetry c1  #important for SAPT in psi4, default
}

set PROPERTIES_ORIGIN ["COM"]
properties('MP2/aug-cc-pvtz', properties = ['dipole'])
--------------------------------------------------------------------------

    Molecular point group: c1
  Charge       = 0
  Multiplicity = 1
  Basis Set: AUG-CC-PVTZ
    Blend: AUG-CC-PVTZ
  Basis Set: (AUG-CC-PVTZ AUX)
    Blend: AUG-CC-PVTZ-JKFIT

    Orbital Energies [Eh]
    ---------------------

    Doubly Occupied:

       1A    -20.524318     2A    -15.585530     3A    -11.360370
       4A    -11.259120     5A    -11.257143     6A    -11.255350
       7A    -11.251523     8A    -11.251107     9A    -11.248545
      10A     -1.377968    11A     -1.210766    12A     -1.165515
      13A     -1.041972    14A     -1.029657    15A     -0.880817
      16A     -0.842078    17A     -0.788354    18A     -0.741554
      19A     -0.695275    20A     -0.671738    21A     -0.640699
      22A     -0.620628    23A     -0.602568    24A     -0.597134
      25A     -0.572256    26A     -0.525116    27A     -0.509685
      28A     -0.507709    29A     -0.436533    30A     -0.417504
      31A     -0.353384    32A     -0.349634

  @DF-RHF Final Energy:  -398.62919179238634

   => Energetics <=

    Nuclear Repulsion Energy =            403.7769561615106682
    One-Electron Energy =               -1341.6692000462296619
    Two-Electron Energy =                 539.2630520923326003
    Total Energy =                       -398.6291917923863366
  Basis Set: (AUG-CC-PVTZ AUX)
    Blend: AUG-CC-PVTZ-RI
    Molecular point group: c1

    Geometry (in Angstrom), charge = 0, multiplicity = 1:

       Center              X                  Y                   Z               Mass
    ------------   -----------------  -----------------  -----------------  -----------------
         O            2.304158155307    -1.125195332163    -0.360455565033    15.994914619570
         N            2.362690055307     1.035678467837     0.309133734967    14.003074004430
         C            0.191093055307    -0.007721532163    -0.011450265033    12.000000000000
         C           -0.481960944693     1.209968467837    -0.178651265033    12.000000000000
         C           -0.538654944693    -1.190084532163     0.160339734967    12.000000000000
         C           -1.877170944693     1.241712467837    -0.156318265033    12.000000000000
         C           -1.931207944693    -1.151246532163     0.190435734967    12.000000000000
         C           -2.603518944693     0.064731467837     0.036642734967    12.000000000000
         C            1.683833055307    -0.112691532163    -0.034345265033    12.000000000000
         H            0.077634055307     2.122894467837    -0.368806265033     1.007825032230
         H            0.003634055307    -2.126128532163     0.262212734967     1.007825032230
         H           -2.398115944693     2.185659467837    -0.297656265033     1.007825032230
         H           -2.495168944693    -2.070027532163     0.332082734967     1.007825032230
         H           -3.690336944693     0.093118467837     0.056225734967     1.007825032230
         H            1.917667055307     1.698054467837     0.929936734967     1.007825032230
         H            3.361225055307     0.913090467837     0.432265734967     1.007825032230

  Basis Set: AUG-CC-PVTZ
    Blend: AUG-CC-PVTZ
  Basis Set: (AUG-CC-PVTZ AUX)
    Blend: AUG-CC-PVTZ-JKFIT
	 Reference Energy          =    -398.6291917923863366 [Eh]
	 Singles Energy            =      -0.0000000000000000 [Eh]
	 Same-Spin Energy          =      -0.4247009945772494 [Eh]
	 Opposite-Spin Energy      =      -1.3024514667665270 [Eh]
	 Correlation Energy        =      -1.7271524613437763 [Eh]
	 Total Energy              =    -400.3563442537301285 [Eh]

	 ================> DF-SCS-MP2 Energies <==================
	-----------------------------------------------------------
	 SCS Same-Spin Scale       =       0.3333333333333333 [-]
	 SCS Opposite-Spin Scale   =       1.2000000000000000 [-]
	 SCS Same-Spin Energy      =      -0.1415669981924164 [Eh]
	 SCS Opposite-Spin Energy  =      -1.5629417601198323 [Eh]
	 SCS Correlation Energy    =      -1.7045087583122487 [Eh]
	 SCS Total Energy          =    -400.3337005506986088 [Eh]
	-----------------------------------------------------------

  Dipole Moment: [D]
     X:    -1.6988      Y:     2.6543      Z:     1.6368     Total:     3.5511

*** Psi4 exiting successfully. Buy a developer a beer!
