                               Psi4 1.3.2 release

  ==> Input File <==

--------------------------------------------------------------------------
#psi4
#
memory 32 gb

molecule  {
0 1
  O        2.3705334    -1.1229290    -0.3642014
  N        2.3923280     1.0164480     0.2994170
  C        0.2207310    -0.0269520    -0.0211670
  C       -0.4523230     1.1907380    -0.1883680
  C       -0.5090170    -1.2093150     0.1506230
  C       -1.8475330     1.2224820    -0.1660350
  C       -1.9015700    -1.1704770     0.1807190
  C       -2.5738810     0.0455010     0.0269260
  C        1.7134710    -0.1319220    -0.0440620
  H        0.1072720     2.1036640    -0.3785230
  H        0.0332720    -2.1453590     0.2524960
  H       -2.3684780     2.1664290    -0.3073730
  H       -2.4655310    -2.0892580     0.3223660
  H       -3.6606990     0.0738880     0.0465090
  H        1.9473050     1.6788240     0.9202200
  H        3.3908630     0.8938600     0.4225490
units angstrom
no_reorient  #important for SAPT in psi4, default
symmetry c1  #important for SAPT in psi4, default
}

set PROPERTIES_ORIGIN ["COM"]
properties('MP2/aug-cc-pvtz', properties = ['dipole'])
--------------------------------------------------------------------------

    Molecular point group: c1
  Charge       = 0
  Multiplicity = 1
  Basis Set: AUG-CC-PVTZ
    Blend: AUG-CC-PVTZ
  Basis Set: (AUG-CC-PVTZ AUX)
    Blend: AUG-CC-PVTZ-JKFIT

    Orbital Energies [Eh]
    ---------------------

    Doubly Occupied:

       1A    -20.523447     2A    -15.582868     3A    -11.359954
       4A    -11.260392     5A    -11.258787     6A    -11.256424
       7A    -11.252880     8A    -11.252053     9A    -11.249528
      10A     -1.378101    11A     -1.207850    12A     -1.166448
      13A     -1.043225    14A     -1.030717    15A     -0.881592
      16A     -0.843097    17A     -0.788104    18A     -0.740893
      19A     -0.694952    20A     -0.671408    21A     -0.641608
      22A     -0.620538    23A     -0.603329    24A     -0.597220
      25A     -0.572104    26A     -0.526168    27A     -0.510574
      28A     -0.508776    29A     -0.436067    30A     -0.415229
      31A     -0.354489    32A     -0.350848

  @DF-RHF Final Energy:  -398.62824240721307

   => Energetics <=

    Nuclear Repulsion Energy =            403.5766679060428146
    One-Electron Energy =               -1341.2504916075522488
    Two-Electron Energy =                 539.0455812942964258
    Total Energy =                       -398.6282424072130652
  Basis Set: (AUG-CC-PVTZ AUX)
    Blend: AUG-CC-PVTZ-RI
    Molecular point group: c1

    Geometry (in Angstrom), charge = 0, multiplicity = 1:

       Center              X                  Y                   Z               Mass
    ------------   -----------------  -----------------  -----------------  -----------------
         O            2.336041291237    -1.106538942160    -0.355273610553    15.994914619570
         N            2.357835891237     1.032838057840     0.308344789447    14.003074004430
         C            0.186238891237    -0.010561942160    -0.012239210553    12.000000000000
         C           -0.486815108763     1.207128057840    -0.179440210553    12.000000000000
         C           -0.543509108763    -1.192924942160     0.159550789447    12.000000000000
         C           -1.882025108763     1.238872057840    -0.157107210553    12.000000000000
         C           -1.936062108763    -1.154086942160     0.189646789447    12.000000000000
         C           -2.608373108763     0.061891057840     0.035853789447    12.000000000000
         C            1.678978891237    -0.115531942160    -0.035134210553    12.000000000000
         H            0.072779891237     2.120054057840    -0.369595210553     1.007825032230
         H           -0.001220108763    -2.128968942160     0.261423789447     1.007825032230
         H           -2.402970108763     2.182819057840    -0.298445210553     1.007825032230
         H           -2.500023108763    -2.072867942160     0.331293789447     1.007825032230
         H           -3.695191108763     0.090278057840     0.055436789447     1.007825032230
         H            1.912812891237     1.695214057840     0.929147789447     1.007825032230
         H            3.356370891237     0.910250057840     0.431476789447     1.007825032230

  Basis Set: AUG-CC-PVTZ
    Blend: AUG-CC-PVTZ
  Basis Set: (AUG-CC-PVTZ AUX)
    Blend: AUG-CC-PVTZ-JKFIT
	 Reference Energy          =    -398.6282424072130652 [Eh]
	 Singles Energy            =      -0.0000000000000000 [Eh]
	 Same-Spin Energy          =      -0.4246775303750887 [Eh]
	 Opposite-Spin Energy      =      -1.3024634311843297 [Eh]
	 Correlation Energy        =      -1.7271409615594184 [Eh]
	 Total Energy              =    -400.3553833687724932 [Eh]

	 ================> DF-SCS-MP2 Energies <==================
	-----------------------------------------------------------
	 SCS Same-Spin Scale       =       0.3333333333333333 [-]
	 SCS Opposite-Spin Scale   =       1.2000000000000000 [-]
	 SCS Same-Spin Energy      =      -0.1415591767916962 [Eh]
	 SCS Opposite-Spin Energy  =      -1.5629561174211957 [Eh]
	 SCS Correlation Energy    =      -1.7045152942128918 [Eh]
	 SCS Total Energy          =    -400.3327577014259759 [Eh]
	-----------------------------------------------------------

  Dipole Moment: [D]
     X:    -1.8433      Y:     2.6117      Z:     1.6214     Total:     3.5844

*** Psi4 exiting successfully. Buy a developer a beer!
