                               Psi4 1.3.2 release

  ==> Input File <==

--------------------------------------------------------------------------
#psi4
#
memory 32 gb

molecule  {
0 1
  O        2.2963030    -1.1646890    -0.3757460
  N        2.3923280     1.0164480     0.2994170
  C        0.2207310    -0.0269520    -0.0211670
  C       -0.3649815     1.2338756    -0.1971825
  C       -0.5090170    -1.2093150     0.1506230
  C       -1.8475330     1.2224820    -0.1660350
  C       -1.9015700    -1.1704770     0.1807190
  C       -2.5738810     0.0455010     0.0269260
  C        1.7134710    -0.1319220    -0.0440620
  H        0.1072720     2.1036640    -0.3785230
  H        0.0332720    -2.1453590     0.2524960
  H       -2.3684780     2.1664290    -0.3073730
  H       -2.4655310    -2.0892580     0.3223660
  H       -3.6606990     0.0738880     0.0465090
  H        1.9473050     1.6788240     0.9202200
  H        3.3908630     0.8938600     0.4225490
units angstrom
no_reorient  #important for SAPT in psi4, default
symmetry c1  #important for SAPT in psi4, default
}

set PROPERTIES_ORIGIN ["COM"]
properties('MP2/aug-cc-pvtz', properties = ['dipole'])
--------------------------------------------------------------------------

    Molecular point group: c1
  Charge       = 0
  Multiplicity = 1
  Basis Set: AUG-CC-PVTZ
    Blend: AUG-CC-PVTZ
  Basis Set: (AUG-CC-PVTZ AUX)
    Blend: AUG-CC-PVTZ-JKFIT

    Orbital Energies [Eh]
    ---------------------

    Doubly Occupied:

       1A    -20.524102     2A    -15.587568     3A    -11.358272
       4A    -11.261046     5A    -11.259791     6A    -11.258601
       7A    -11.253577     8A    -11.250393     9A    -11.249157
      10A     -1.377130    11A     -1.213541    12A     -1.157704
      13A     -1.043312    14A     -1.021195    15A     -0.877550
      16A     -0.849229    17A     -0.784648    18A     -0.743050
      19A     -0.699665    20A     -0.672819    21A     -0.647491
      22A     -0.619994    23A     -0.599760    24A     -0.595799
      25A     -0.571448    26A     -0.524017    27A     -0.511283
      28A     -0.503387    29A     -0.434137    30A     -0.418206
      31A     -0.355358    32A     -0.340745

  @DF-RHF Final Energy:  -398.61583845345365

   => Energetics <=

    Nuclear Repulsion Energy =            403.1922054306439804
    One-Electron Energy =               -1340.4881314655121969
    Two-Electron Energy =                 538.6800875814145684
    Total Energy =                       -398.6158384534536481
  Basis Set: (AUG-CC-PVTZ AUX)
    Blend: AUG-CC-PVTZ-RI
    Molecular point group: c1

    Geometry (in Angstrom), charge = 0, multiplicity = 1:

       Center              X                  Y                   Z               Mass
    ------------   -----------------  -----------------  -----------------  -----------------
         O            2.262960893151    -1.147057364275    -0.364419017985    15.994914619570
         N            2.358985893151     1.034079635725     0.310743982015    14.003074004430
         C            0.187388893151    -0.009320364275    -0.009840017985    12.000000000000
         C           -0.398323606849     1.251507235725    -0.185855517985    12.000000000000
         C           -0.542359106849    -1.191683364275     0.161949982015    12.000000000000
         C           -1.880875106849     1.240113635725    -0.154708017985    12.000000000000
         C           -1.934912106849    -1.152845364275     0.192045982015    12.000000000000
         C           -2.607223106849     0.063132635725     0.038252982015    12.000000000000
         C            1.680128893151    -0.114290364275    -0.032735017985    12.000000000000
         H            0.073929893151     2.121295635725    -0.367196017985     1.007825032230
         H           -0.000070106849    -2.127727364275     0.263822982015     1.007825032230
         H           -2.401820106849     2.184060635725    -0.296046017985     1.007825032230
         H           -2.498873106849    -2.071626364275     0.333692982015     1.007825032230
         H           -3.694041106849     0.091519635725     0.057835982015     1.007825032230
         H            1.913962893151     1.696455635725     0.931546982015     1.007825032230
         H            3.357520893151     0.911491635725     0.433875982015     1.007825032230

  Basis Set: AUG-CC-PVTZ
    Blend: AUG-CC-PVTZ
  Basis Set: (AUG-CC-PVTZ AUX)
    Blend: AUG-CC-PVTZ-JKFIT
	 Reference Energy          =    -398.6158384534536481 [Eh]
	 Singles Energy            =      -0.0000000000000000 [Eh]
	 Same-Spin Energy          =      -0.4248276114793708 [Eh]
	 Opposite-Spin Energy      =      -1.3036230602454886 [Eh]
	 Correlation Energy        =      -1.7284506717248593 [Eh]
	 Total Energy              =    -400.3442891251785341 [Eh]

	 ================> DF-SCS-MP2 Energies <==================
	-----------------------------------------------------------
	 SCS Same-Spin Scale       =       0.3333333333333333 [-]
	 SCS Opposite-Spin Scale   =       1.2000000000000000 [-]
	 SCS Same-Spin Energy      =      -0.1416092038264569 [Eh]
	 SCS Opposite-Spin Energy  =      -1.5643476722945862 [Eh]
	 SCS Correlation Energy    =      -1.7059568761210431 [Eh]
	 SCS Total Energy          =    -400.3217953295746838 [Eh]
	-----------------------------------------------------------

  Dipole Moment: [D]
     X:    -1.5819      Y:     2.6905      Z:     1.6443     Total:     3.5277

*** Psi4 exiting successfully. Buy a developer a beer!
