                               Psi4 1.3.2 release

  ==> Input File <==

--------------------------------------------------------------------------
#psi4
#
memory 32 gb

molecule  {
0 1
  O        2.2963030    -1.1646890    -0.3757460
  N        2.3923280     1.0164480     0.2994170
  C        0.2207310    -0.0269520    -0.0211670
  C       -0.4523230     1.1907380    -0.1883680
  C       -0.5090170    -1.2093150     0.1506230
  C       -1.8475330     1.2224820    -0.1660350
  C       -1.9015700    -1.1704770     0.1807190
  C       -2.5738810     0.0455010     0.0269260
  C        1.5139870    -0.1178942    -0.0410024
  H        0.1072720     2.1036640    -0.3785230
  H        0.0332720    -2.1453590     0.2524960
  H       -2.3684780     2.1664290    -0.3073730
  H       -2.4655310    -2.0892580     0.3223660
  H       -3.6606990     0.0738880     0.0465090
  H        1.9473050     1.6788240     0.9202200
  H        3.3908630     0.8938600     0.4225490
units angstrom
no_reorient  #important for SAPT in psi4, default
symmetry c1  #important for SAPT in psi4, default
}

set PROPERTIES_ORIGIN ["COM"]
properties('MP2/aug-cc-pvtz', properties = ['dipole'])
--------------------------------------------------------------------------

    Molecular point group: c1
  Charge       = 0
  Multiplicity = 1
  Basis Set: AUG-CC-PVTZ
    Blend: AUG-CC-PVTZ
  Basis Set: (AUG-CC-PVTZ AUX)
    Blend: AUG-CC-PVTZ-JKFIT

    Orbital Energies [Eh]
    ---------------------

    Doubly Occupied:

       1A    -20.508148     2A    -15.575528     3A    -11.361355
       4A    -11.277233     5A    -11.274324     6A    -11.269914
       7A    -11.261787     8A    -11.258936     9A    -11.250253
      10A     -1.308590    11A     -1.190376    12A     -1.160068
      13A     -1.079289    14A     -1.043395    15A     -0.921138
      16A     -0.858277    17A     -0.787610    18A     -0.724325
      19A     -0.686344    20A     -0.684829    21A     -0.653527
      22A     -0.624242    23A     -0.613993    24A     -0.570055
      25A     -0.557382    26A     -0.538095    27A     -0.514898
      28A     -0.497729    29A     -0.417628    30A     -0.392734
      31A     -0.364067    32A     -0.359033

  @DF-RHF Final Energy:  -398.55750812895167

   => Energetics <=

    Nuclear Repulsion Energy =            405.0281485982722529
    One-Electron Energy =               -1344.0011105590340321
    Two-Electron Energy =                 540.4154538318100549
    Total Energy =                       -398.5575081289516675
  Basis Set: (AUG-CC-PVTZ AUX)
    Blend: AUG-CC-PVTZ-RI
    Molecular point group: c1

    Geometry (in Angstrom), charge = 0, multiplicity = 1:

       Center              X                  Y                   Z               Mass
    ------------   -----------------  -----------------  -----------------  -----------------
         O            2.291393998605    -1.144171700298    -0.365596101395    15.994914619570
         N            2.387418998605     1.036965299702     0.309566898605    14.003074004430
         C            0.215821998605    -0.006434700298    -0.011017101395    12.000000000000
         C           -0.457232001395     1.211255299702    -0.178218101395    12.000000000000
         C           -0.513926001395    -1.188797700298     0.160772898605    12.000000000000
         C           -1.852442001395     1.242999299702    -0.155885101395    12.000000000000
         C           -1.906479001395    -1.149959700298     0.190868898605    12.000000000000
         C           -2.578790001395     0.066018299702     0.037075898605    12.000000000000
         C            1.509077998605    -0.097376900298    -0.030852501395    12.000000000000
         H            0.102362998605     2.124181299702    -0.368373101395     1.007825032230
         H            0.028362998605    -2.124841700298     0.262645898605     1.007825032230
         H           -2.373387001395     2.186946299702    -0.297223101395     1.007825032230
         H           -2.470440001395    -2.068740700298     0.332515898605     1.007825032230
         H           -3.665608001395     0.094405299702     0.056658898605     1.007825032230
         H            1.942395998605     1.699341299702     0.930369898605     1.007825032230
         H            3.385953998605     0.914377299702     0.432698898605     1.007825032230

  Basis Set: AUG-CC-PVTZ
    Blend: AUG-CC-PVTZ
  Basis Set: (AUG-CC-PVTZ AUX)
    Blend: AUG-CC-PVTZ-JKFIT
	 Reference Energy          =    -398.5575081289516675 [Eh]
	 Singles Energy            =      -0.0000000000000000 [Eh]
	 Same-Spin Energy          =      -0.4299726424431642 [Eh]
	 Opposite-Spin Energy      =      -1.3134507582019510 [Eh]
	 Correlation Energy        =      -1.7434234006451153 [Eh]
	 Total Energy              =    -400.3009315295967667 [Eh]

	 ================> DF-SCS-MP2 Energies <==================
	-----------------------------------------------------------
	 SCS Same-Spin Scale       =       0.3333333333333333 [-]
	 SCS Opposite-Spin Scale   =       1.2000000000000000 [-]
	 SCS Same-Spin Energy      =      -0.1433242141477214 [Eh]
	 SCS Opposite-Spin Energy  =      -1.5761409098423411 [Eh]
	 SCS Correlation Energy    =      -1.7194651239900625 [Eh]
	 SCS Total Energy          =    -400.2769732529417297 [Eh]
	-----------------------------------------------------------

  Dipole Moment: [D]
     X:    -3.0887      Y:     2.5755      Z:     1.6000     Total:     4.3282

*** Psi4 exiting successfully. Buy a developer a beer!
