                               Psi4 1.3.2 release

  ==> Input File <==

--------------------------------------------------------------------------
#psi4
#
memory 32 gb

molecule  {
0 1
  O        2.2963030    -1.1646890    -0.3757460
  N        2.3923280     1.0164480     0.2994170
  C        0.2207310    -0.0269520    -0.0211670
  C       -0.5363854     1.1416680    -0.1787389
  C       -0.5090170    -1.2093150     0.1506230
  C       -1.8475330     1.2224820    -0.1660350
  C       -1.9015700    -1.1704770     0.1807190
  C       -2.5738810     0.0455010     0.0269260
  C        1.7134710    -0.1319220    -0.0440620
  H        0.1072720     2.1036640    -0.3785230
  H        0.0332720    -2.1453590     0.2524960
  H       -2.3684780     2.1664290    -0.3073730
  H       -2.4655310    -2.0892580     0.3223660
  H       -3.6606990     0.0738880     0.0465090
  H        1.9473050     1.6788240     0.9202200
  H        3.3908630     0.8938600     0.4225490
units angstrom
no_reorient  #important for SAPT in psi4, default
symmetry c1  #important for SAPT in psi4, default
}

set PROPERTIES_ORIGIN ["COM"]
properties('MP2/aug-cc-pvtz', properties = ['dipole'])
--------------------------------------------------------------------------

    Molecular point group: c1
  Charge       = 0
  Multiplicity = 1
  Basis Set: AUG-CC-PVTZ
    Blend: AUG-CC-PVTZ
  Basis Set: (AUG-CC-PVTZ AUX)
    Blend: AUG-CC-PVTZ-JKFIT

    Orbital Energies [Eh]
    ---------------------

    Doubly Occupied:

       1A    -20.526141     2A    -15.588510     3A    -11.363455
       4A    -11.255283     5A    -11.255183     6A    -11.253735
       7A    -11.250802     8A    -11.245870     9A    -11.240017
      10A     -1.378863    11A     -1.213762    12A     -1.173941
      13A     -1.043768    14A     -1.033000    15A     -0.883653
      16A     -0.833502    17A     -0.793776    18A     -0.742395
      19A     -0.693998    20A     -0.674873    21A     -0.639936
      22A     -0.618310    23A     -0.604964    24A     -0.591605
      25A     -0.571883    26A     -0.528565    27A     -0.515973
      28A     -0.488421    29A     -0.439164    30A     -0.420317
      31A     -0.358925    32A     -0.348240

  @DF-RHF Final Energy:  -398.61719138726181

   => Energetics <=

    Nuclear Repulsion Energy =            404.9900203232056128
    One-Electron Energy =               -1344.0727617133138665
    Two-Electron Energy =                 540.4655500028464985
    Total Energy =                       -398.6171913872617552
  Basis Set: (AUG-CC-PVTZ AUX)
    Blend: AUG-CC-PVTZ-RI
    Molecular point group: c1

    Geometry (in Angstrom), charge = 0, multiplicity = 1:

       Center              X                  Y                   Z               Mass
    ------------   -----------------  -----------------  -----------------  -----------------
         O            2.279952217716    -1.137916794785    -0.366247338074    15.994914619570
         N            2.375977217716     1.043220205215     0.308915661926    14.003074004430
         C            0.204380217716    -0.000179794785    -0.011668338074    12.000000000000
         C           -0.552736182284     1.168440205215    -0.169240238074    12.000000000000
         C           -0.525367782284    -1.182542794785     0.160121661926    12.000000000000
         C           -1.863883782284     1.249254205215    -0.156536338074    12.000000000000
         C           -1.917920782284    -1.143704794785     0.190217661926    12.000000000000
         C           -2.590231782284     0.072273205215     0.036424661926    12.000000000000
         C            1.697120217716    -0.105149794785    -0.034563338074    12.000000000000
         H            0.090921217716     2.130436205215    -0.369024338074     1.007825032230
         H            0.016921217716    -2.118586794785     0.261994661926     1.007825032230
         H           -2.384828782284     2.193201205215    -0.297874338074     1.007825032230
         H           -2.481881782284    -2.062485794785     0.331864661926     1.007825032230
         H           -3.677049782284     0.100660205215     0.056007661926     1.007825032230
         H            1.930954217716     1.705596205215     0.929718661926     1.007825032230
         H            3.374512217716     0.920632205215     0.432047661926     1.007825032230

  Basis Set: AUG-CC-PVTZ
    Blend: AUG-CC-PVTZ
  Basis Set: (AUG-CC-PVTZ AUX)
    Blend: AUG-CC-PVTZ-JKFIT
	 Reference Energy          =    -398.6171913872618120 [Eh]
	 Singles Energy            =      -0.0000000000000000 [Eh]
	 Same-Spin Energy          =      -0.4249668445256732 [Eh]
	 Opposite-Spin Energy      =      -1.3027791951395979 [Eh]
	 Correlation Energy        =      -1.7277460396652713 [Eh]
	 Total Energy              =    -400.3449374269270606 [Eh]

	 ================> DF-SCS-MP2 Energies <==================
	-----------------------------------------------------------
	 SCS Same-Spin Scale       =       0.3333333333333333 [-]
	 SCS Opposite-Spin Scale   =       1.2000000000000000 [-]
	 SCS Same-Spin Energy      =      -0.1416556148418911 [Eh]
	 SCS Opposite-Spin Energy  =      -1.5633350341675174 [Eh]
	 SCS Correlation Energy    =      -1.7049906490094084 [Eh]
	 SCS Total Energy          =    -400.3221820362712151 [Eh]
	-----------------------------------------------------------

  Dipole Moment: [D]
     X:    -1.5390      Y:     2.6542      Z:     1.6642     Total:     3.4904

*** Psi4 exiting successfully. Buy a developer a beer!
