                               Psi4 1.3.2 release

  ==> Input File <==

--------------------------------------------------------------------------
#psi4
#
memory 32 gb

molecule  {
0 1
  O        2.2963030    -1.1646890    -0.3757460
  N        2.3070631     1.0591845     0.3115952
  C        0.2207310    -0.0269520    -0.0211670
  C       -0.4523230     1.1907380    -0.1883680
  C       -0.5090170    -1.2093150     0.1506230
  C       -1.8475330     1.2224820    -0.1660350
  C       -1.9015700    -1.1704770     0.1807190
  C       -2.5738810     0.0455010     0.0269260
  C        1.7134710    -0.1319220    -0.0440620
  H        0.1072720     2.1036640    -0.3785230
  H        0.0332720    -2.1453590     0.2524960
  H       -2.3684780     2.1664290    -0.3073730
  H       -2.4655310    -2.0892580     0.3223660
  H       -3.6606990     0.0738880     0.0465090
  H        1.9473050     1.6788240     0.9202200
  H        3.3908630     0.8938600     0.4225490
units angstrom
no_reorient  #important for SAPT in psi4, default
symmetry c1  #important for SAPT in psi4, default
}

set PROPERTIES_ORIGIN ["COM"]
properties('MP2/aug-cc-pvtz', properties = ['dipole'])
--------------------------------------------------------------------------

    Molecular point group: c1
  Charge       = 0
  Multiplicity = 1
  Basis Set: AUG-CC-PVTZ
    Blend: AUG-CC-PVTZ
  Basis Set: (AUG-CC-PVTZ AUX)
    Blend: AUG-CC-PVTZ-JKFIT

    Orbital Energies [Eh]
    ---------------------

    Doubly Occupied:

       1A    -20.530989     2A    -15.591074     3A    -11.364072
       4A    -11.255837     5A    -11.252806     6A    -11.252147
       7A    -11.248808     8A    -11.248261     9A    -11.246128
      10A     -1.379850    11A     -1.221451    12A     -1.162500
      13A     -1.038417    14A     -1.027055    15A     -0.880056
      16A     -0.839420    17A     -0.799486    18A     -0.747808
      19A     -0.687269    20A     -0.665235    21A     -0.636252
      22A     -0.621033    23A     -0.600395    24A     -0.596612
      25A     -0.570193    26A     -0.522915    27A     -0.507619
      28A     -0.505253    29A     -0.440212    30A     -0.423784
      31A     -0.350666    32A     -0.347056

  @DF-RHF Final Energy:  -398.61432855129527

   => Energetics <=

    Nuclear Repulsion Energy =            404.5639207625191034
    One-Electron Energy =               -1343.2351805084133503
    Two-Electron Energy =                 540.0569311945990876
    Total Energy =                       -398.6143285512952161
  Basis Set: (AUG-CC-PVTZ AUX)
    Blend: AUG-CC-PVTZ-RI
    Molecular point group: c1

    Geometry (in Angstrom), charge = 0, multiplicity = 1:

       Center              X                  Y                   Z               Mass
    ------------   -----------------  -----------------  -----------------  -----------------
         O            2.281482310039    -1.147724768882    -0.366701545266    15.994914619570
         N            2.292242410039     1.076148731118     0.320639654734    14.003074004430
         C            0.205910310039    -0.009987768882    -0.012122545266    12.000000000000
         C           -0.467143689961     1.207702231118    -0.179323545266    12.000000000000
         C           -0.523837689961    -1.192350768882     0.159667454734    12.000000000000
         C           -1.862353689961     1.239446231118    -0.156990545266    12.000000000000
         C           -1.916390689961    -1.153512768882     0.189763454734    12.000000000000
         C           -2.588701689961     0.062465231118     0.035970454734    12.000000000000
         C            1.698650310039    -0.114957768882    -0.035017545266    12.000000000000
         H            0.092451310039     2.120628231118    -0.369478545266     1.007825032230
         H            0.018451310039    -2.128394768882     0.261540454734     1.007825032230
         H           -2.383298689961     2.183393231118    -0.298328545266     1.007825032230
         H           -2.480351689961    -2.072293768882     0.331410454734     1.007825032230
         H           -3.675519689961     0.090852231118     0.055553454734     1.007825032230
         H            1.932484310039     1.695788231118     0.929264454734     1.007825032230
         H            3.376042310039     0.910824231118     0.431593454734     1.007825032230

  Basis Set: AUG-CC-PVTZ
    Blend: AUG-CC-PVTZ
  Basis Set: (AUG-CC-PVTZ AUX)
    Blend: AUG-CC-PVTZ-JKFIT
	 Reference Energy          =    -398.6143285512952730 [Eh]
	 Singles Energy            =      -0.0000000000000000 [Eh]
	 Same-Spin Energy          =      -0.4254229671921775 [Eh]
	 Opposite-Spin Energy      =      -1.3039191083068769 [Eh]
	 Correlation Energy        =      -1.7293420754990543 [Eh]
	 Total Energy              =    -400.3436706267943350 [Eh]

	 ================> DF-SCS-MP2 Energies <==================
	-----------------------------------------------------------
	 SCS Same-Spin Scale       =       0.3333333333333333 [-]
	 SCS Opposite-Spin Scale   =       1.2000000000000000 [-]
	 SCS Same-Spin Energy      =      -0.1418076557307258 [Eh]
	 SCS Opposite-Spin Energy  =      -1.5647029299682522 [Eh]
	 SCS Correlation Energy    =      -1.7065105856989780 [Eh]
	 SCS Total Energy          =    -400.3208391369942660 [Eh]
	-----------------------------------------------------------

  Dipole Moment: [D]
     X:    -1.3803      Y:     2.6370      Z:     1.6497     Total:     3.4030

*** Psi4 exiting successfully. Buy a developer a beer!
