                               Psi4 1.3.2 release

  ==> Input File <==

--------------------------------------------------------------------------
#psi4
#
memory 32 gb

molecule  {
0 1
  O        2.2580930    -1.1833185    -0.3820967
  N        2.3923280     1.0164480     0.2994170
  C        0.2207310    -0.0269520    -0.0211670
  C       -0.4523230     1.1907380    -0.1883680
  C       -0.5090170    -1.2093150     0.1506230
  C       -1.8475330     1.2224820    -0.1660350
  C       -1.9015700    -1.1704770     0.1807190
  C       -2.5738810     0.0455010     0.0269260
  C        1.7134710    -0.1319220    -0.0440620
  H        0.1072720     2.1036640    -0.3785230
  H        0.0332720    -2.1453590     0.2524960
  H       -2.3684780     2.1664290    -0.3073730
  H       -2.4655310    -2.0892580     0.3223660
  H       -3.6606990     0.0738880     0.0465090
  H        1.9473050     1.6788240     0.9202200
  H        3.3908630     0.8938600     0.4225490
units angstrom
no_reorient  #important for SAPT in psi4, default
symmetry c1  #important for SAPT in psi4, default
}

set PROPERTIES_ORIGIN ["COM"]
properties('MP2/aug-cc-pvtz', properties = ['dipole'])
--------------------------------------------------------------------------

    Molecular point group: c1
  Charge       = 0
  Multiplicity = 1
  Basis Set: AUG-CC-PVTZ
    Blend: AUG-CC-PVTZ
  Basis Set: (AUG-CC-PVTZ AUX)
    Blend: AUG-CC-PVTZ-JKFIT

    Orbital Energies [Eh]
    ---------------------

    Doubly Occupied:

       1A    -20.525893     2A    -15.590742     3A    -11.361311
       4A    -11.256514     5A    -11.253780     6A    -11.253104
       7A    -11.249129     8A    -11.248703     9A    -11.246470
      10A     -1.378167    11A     -1.216425    12A     -1.163414
      13A     -1.039352    14A     -1.027439    15A     -0.879280
      16A     -0.839975    17A     -0.788919    18A     -0.742848
      19A     -0.695948    20A     -0.672324    21A     -0.638776
      22A     -0.620624    23A     -0.601284    24A     -0.596719
      25A     -0.572627    26A     -0.522840    27A     -0.507862
      28A     -0.505463    29A     -0.436947    30A     -0.421654
      31A     -0.351135    32A     -0.346994

  @DF-RHF Final Energy:  -398.62893017247950

   => Energetics <=

    Nuclear Repulsion Energy =            404.2539559169166523
    One-Electron Energy =               -1342.6604494343453098
    Two-Electron Energy =                 539.7775633449491579
    Total Energy =                       -398.6289301724794996
  Basis Set: (AUG-CC-PVTZ AUX)
    Blend: AUG-CC-PVTZ-RI
    Molecular point group: c1

    Geometry (in Angstrom), charge = 0, multiplicity = 1:

       Center              X                  Y                   Z               Mass
    ------------   -----------------  -----------------  -----------------  -----------------
         O            2.238457839072    -1.158949071300    -0.370804373086    15.994914619570
         N            2.372692839072     1.040817428700     0.310709326914    14.003074004430
         C            0.201095839072    -0.002582571300    -0.009874673086    12.000000000000
         C           -0.471958160928     1.215107428700    -0.177075673086    12.000000000000
         C           -0.528652160928    -1.184945571300     0.161915326914    12.000000000000
         C           -1.867168160928     1.246851428700    -0.154742673086    12.000000000000
         C           -1.921205160928    -1.146107571300     0.192011326914    12.000000000000
         C           -2.593516160928     0.069870428700     0.038218326914    12.000000000000
         C            1.693835839072    -0.107552571300    -0.032769673086    12.000000000000
         H            0.087636839072     2.128033428700    -0.367230673086     1.007825032230
         H            0.013636839072    -2.120989571300     0.263788326914     1.007825032230
         H           -2.388113160928     2.190798428700    -0.296080673086     1.007825032230
         H           -2.485166160928    -2.064888571300     0.333658326914     1.007825032230
         H           -3.680334160928     0.098257428700     0.057801326914     1.007825032230
         H            1.927669839072     1.703193428700     0.931512326914     1.007825032230
         H            3.371227839072     0.918229428700     0.433841326914     1.007825032230

  Basis Set: AUG-CC-PVTZ
    Blend: AUG-CC-PVTZ
  Basis Set: (AUG-CC-PVTZ AUX)
    Blend: AUG-CC-PVTZ-JKFIT
	 Reference Energy          =    -398.6289301724794996 [Eh]
	 Singles Energy            =      -0.0000000000000000 [Eh]
	 Same-Spin Energy          =      -0.4248311289662400 [Eh]
	 Opposite-Spin Energy      =      -1.3025908590359725 [Eh]
	 Correlation Energy        =      -1.7274219880022126 [Eh]
	 Total Energy              =    -400.3563521604817197 [Eh]

	 ================> DF-SCS-MP2 Energies <==================
	-----------------------------------------------------------
	 SCS Same-Spin Scale       =       0.3333333333333333 [-]
	 SCS Opposite-Spin Scale   =       1.2000000000000000 [-]
	 SCS Same-Spin Energy      =      -0.1416103763220800 [Eh]
	 SCS Opposite-Spin Energy  =      -1.5631090308431670 [Eh]
	 SCS Correlation Energy    =      -1.7047194071652469 [Eh]
	 SCS Total Energy          =    -400.3336495796447707 [Eh]
	-----------------------------------------------------------

  Dipole Moment: [D]
     X:    -1.4004      Y:     2.7270      Z:     1.6650     Total:     3.4885

*** Psi4 exiting successfully. Buy a developer a beer!
