                               Psi4 1.3.2 release

  ==> Input File <==

--------------------------------------------------------------------------
#psi4
#
memory 32 gb

molecule  {
0 1
  O        2.2963030    -1.1646890    -0.3757460
  N        2.3923280     1.0164480     0.2994170
  C        0.1992276    -0.0381493    -0.0179432
  C       -0.4523230     1.1907380    -0.1883680
  C       -0.5090170    -1.2093150     0.1506230
  C       -1.8475330     1.2224820    -0.1660350
  C       -1.9015700    -1.1704770     0.1807190
  C       -2.5738810     0.0455010     0.0269260
  C        1.7134710    -0.1319220    -0.0440620
  H        0.1072720     2.1036640    -0.3785230
  H        0.0332720    -2.1453590     0.2524960
  H       -2.3684780     2.1664290    -0.3073730
  H       -2.4655310    -2.0892580     0.3223660
  H       -3.6606990     0.0738880     0.0465090
  H        1.9473050     1.6788240     0.9202200
  H        3.3908630     0.8938600     0.4225490
units angstrom
no_reorient  #important for SAPT in psi4, default
symmetry c1  #important for SAPT in psi4, default
}

set PROPERTIES_ORIGIN ["COM"]
properties('MP2/aug-cc-pvtz', properties = ['dipole'])
--------------------------------------------------------------------------

    Molecular point group: c1
  Charge       = 0
  Multiplicity = 1
  Basis Set: AUG-CC-PVTZ
    Blend: AUG-CC-PVTZ
  Basis Set: (AUG-CC-PVTZ AUX)
    Blend: AUG-CC-PVTZ-JKFIT

    Orbital Energies [Eh]
    ---------------------

    Doubly Occupied:

       1A    -20.525303     2A    -15.588713     3A    -11.361661
       4A    -11.256866     5A    -11.254870     6A    -11.253125
       7A    -11.249947     8A    -11.248011     9A    -11.246634
      10A     -1.377610    11A     -1.213346    12A     -1.166342
      13A     -1.040065    14A     -1.029291    15A     -0.876154
      16A     -0.842323    17A     -0.788645    18A     -0.742419
      19A     -0.695701    20A     -0.669940    21A     -0.639804
      22A     -0.621920    23A     -0.603268    24A     -0.595665
      25A     -0.571903    26A     -0.522695    27A     -0.510206
      28A     -0.508483    29A     -0.435357    30A     -0.419336
      31A     -0.351789    32A     -0.349764

  @DF-RHF Final Energy:  -398.62917036974255

   => Energetics <=

    Nuclear Repulsion Energy =            404.0589690638550451
    One-Electron Energy =               -1342.2619622723316297
    Two-Electron Energy =                 539.5738228387339177
    Total Energy =                       -398.6291703697426101
  Basis Set: (AUG-CC-PVTZ AUX)
    Blend: AUG-CC-PVTZ-RI
    Molecular point group: c1

    Geometry (in Angstrom), charge = 0, multiplicity = 1:

       Center              X                  Y                   Z               Mass
    ------------   -----------------  -----------------  -----------------  -----------------
         O            2.273750723622    -1.141671127900    -0.365612378594    15.994914619570
         N            2.369775723622     1.039465872100     0.309550621406    14.003074004430
         C            0.176675323622    -0.015131427900    -0.007809578594    12.000000000000
         C           -0.474875276378     1.213755872100    -0.178234378594    12.000000000000
         C           -0.531569276378    -1.186297127900     0.160756621406    12.000000000000
         C           -1.870085276378     1.245499872100    -0.155901378594    12.000000000000
         C           -1.924122276378    -1.147459127900     0.190852621406    12.000000000000
         C           -2.596433276378     0.068518872100     0.037059621406    12.000000000000
         C            1.690918723622    -0.108904127900    -0.033928378594    12.000000000000
         H            0.084719723622     2.126681872100    -0.368389378594     1.007825032230
         H            0.010719723622    -2.122341127900     0.262629621406     1.007825032230
         H           -2.391030276378     2.189446872100    -0.297239378594     1.007825032230
         H           -2.488083276378    -2.066240127900     0.332499621406     1.007825032230
         H           -3.683251276378     0.096905872100     0.056642621406     1.007825032230
         H            1.924752723622     1.701841872100     0.930353621406     1.007825032230
         H            3.368310723622     0.916877872100     0.432682621406     1.007825032230

  Basis Set: AUG-CC-PVTZ
    Blend: AUG-CC-PVTZ
  Basis Set: (AUG-CC-PVTZ AUX)
    Blend: AUG-CC-PVTZ-JKFIT
	 Reference Energy          =    -398.6291703697425532 [Eh]
	 Singles Energy            =      -0.0000000000000000 [Eh]
	 Same-Spin Energy          =      -0.4246243337303068 [Eh]
	 Opposite-Spin Energy      =      -1.3022092584751261 [Eh]
	 Correlation Energy        =      -1.7268335922054330 [Eh]
	 Total Energy              =    -400.3560039619479767 [Eh]

	 ================> DF-SCS-MP2 Energies <==================
	-----------------------------------------------------------
	 SCS Same-Spin Scale       =       0.3333333333333333 [-]
	 SCS Opposite-Spin Scale   =       1.2000000000000000 [-]
	 SCS Same-Spin Energy      =      -0.1415414445767689 [Eh]
	 SCS Opposite-Spin Energy  =      -1.5626511101701512 [Eh]
	 SCS Correlation Energy    =      -1.7041925547469201 [Eh]
	 SCS Total Energy          =    -400.3333629244894496 [Eh]
	-----------------------------------------------------------

  Dipole Moment: [D]
     X:    -1.5135      Y:     2.6949      Z:     1.6520     Total:     3.5046

*** Psi4 exiting successfully. Buy a developer a beer!
