                               Psi4 1.4a3.dev225

  ==> Input File <==

--------------------------------------------------------------------------
#psi4
#
memory 32 gb

molecule  {
0 1
  O        2.2963030    -1.1646890    -0.3757460
  N        2.3923280     1.0164480     0.2994170
  C        0.2207310    -0.0269520    -0.0211670
  C       -0.4523230     1.1907380    -0.1883680
  C       -0.5090170    -1.2093150     0.1506230
  C       -1.8475330     1.2224820    -0.1660350
  C       -1.9015700    -1.1704770     0.1807190
  C       -2.5738810     0.0455010     0.0269260
  C        1.6636000    -0.1284151    -0.0432971
  H        0.1072720     2.1036640    -0.3785230
  H        0.0332720    -2.1453590     0.2524960
  H       -2.3684780     2.1664290    -0.3073730
  H       -2.4655310    -2.0892580     0.3223660
  H       -3.6606990     0.0738880     0.0465090
  H        1.9473050     1.6788240     0.9202200
  H        3.3908630     0.8938600     0.4225490
units angstrom
no_reorient  #important for SAPT in psi4, default
symmetry c1  #important for SAPT in psi4, default
}

set PROPERTIES_ORIGIN ["COM"]
properties('MP2/aug-cc-pvtz', properties = ['dipole'])
--------------------------------------------------------------------------

    Molecular point group: c1
  Charge       = 0
  Multiplicity = 1
  Basis Set: AUG-CC-PVTZ
    Blend: AUG-CC-PVTZ
  Basis Set: (AUG-CC-PVTZ AUX)
    Blend: AUG-CC-PVTZ-JKFIT

    Orbital Energies [Eh]
    ---------------------

    Doubly Occupied:

       1A    -20.521624     2A    -15.585339     3A    -11.361771
       4A    -11.262097     5A    -11.258551     6A    -11.255871
       7A    -11.254211     8A    -11.252827     9A    -11.250171
      10A     -1.360148    11A     -1.202706    12A     -1.168072
      13A     -1.049127    14A     -1.031944    15A     -0.889835
      16A     -0.844953    17A     -0.786678    18A     -0.737436
      19A     -0.695270    20A     -0.674541    21A     -0.642861
      22A     -0.618353    23A     -0.604160    24A     -0.593168
      25A     -0.567326    26A     -0.526456    27A     -0.509514
      28A     -0.508165    29A     -0.435081    30A     -0.413205
      31A     -0.355463    32A     -0.351313

  @DF-RHF Final Energy:  -398.62285714475036

   => Energetics <=

    Nuclear Repulsion Energy =            404.1979675649656087
    One-Electron Energy =               -1342.5051739769671713
    Two-Electron Energy =                 539.6843492672511502
    Total Energy =                       -398.6228571447503555
  Basis Set: (AUG-CC-PVTZ AUX)
    Blend: AUG-CC-PVTZ-RI
    Molecular point group: c1

    Geometry (in Angstrom), charge = 0, multiplicity = 1:

       Center              X                  Y                   Z               Mass
    ------------   -----------------  -----------------  -----------------  -----------------
         O            2.276562813071    -1.143128760046    -0.365368627035    15.994914619570
         N            2.372587813071     1.038008239954     0.309794372965    14.003074004430
         C            0.200990813071    -0.005391760046    -0.010789627035    12.000000000000
         C           -0.472063186929     1.212298239954    -0.177990627035    12.000000000000
         C           -0.528757186929    -1.187754760046     0.161000372965    12.000000000000
         C           -1.867273186929     1.244042239954    -0.155657627035    12.000000000000
         C           -1.921310186929    -1.148916760046     0.191096372965    12.000000000000
         C           -2.593621186929     0.067061239954     0.037303372965    12.000000000000
         C            1.643859813071    -0.106854860046    -0.032919727035    12.000000000000
         H            0.087531813071     2.125224239954    -0.368145627035     1.007825032230
         H            0.013531813071    -2.123798760046     0.262873372965     1.007825032230
         H           -2.388218186929     2.187989239954    -0.296995627035     1.007825032230
         H           -2.485271186929    -2.067697760046     0.332743372965     1.007825032230
         H           -3.680439186929     0.095448239954     0.056886372965     1.007825032230
         H            1.927564813071     1.700384239954     0.930597372965     1.007825032230
         H            3.371122813071     0.915420239954     0.432926372965     1.007825032230

  Basis Set: AUG-CC-PVTZ
    Blend: AUG-CC-PVTZ
  Basis Set: (AUG-CC-PVTZ AUX)
    Blend: AUG-CC-PVTZ-JKFIT
	 Reference Energy          =    -398.6228571447503555 [Eh]
	 Singles Energy            =      -0.0000000000000000 [Eh]
	 Same-Spin Energy          =      -0.4257110133706857 [Eh]
	 Opposite-Spin Energy      =      -1.3046075856511958 [Eh]
	 Correlation Energy        =      -1.7303185990218815 [Eh]
	 Total Energy              =    -400.3531757437722263 [Eh]

	 ================> DF-SCS-MP2 Energies <==================
	-----------------------------------------------------------
	 SCS Same-Spin Scale       =       0.3333333333333333 [-]
	 SCS Opposite-Spin Scale   =       1.2000000000000000 [-]
	 SCS Same-Spin Energy      =      -0.1419036711235619 [Eh]
	 SCS Opposite-Spin Energy  =      -1.5655291027814349 [Eh]
	 SCS Correlation Energy    =      -1.7074327739049968 [Eh]
	 SCS Total Energy          =    -400.3302899186553532 [Eh]
	-----------------------------------------------------------

  Dipole Moment: [D]
     X:    -1.9319      Y:     2.6766      Z:     1.6412     Total:     3.6864

*** Psi4 exiting successfully. Buy a developer a beer!
