                               Psi4 1.3.2 release

  ==> Input File <==

--------------------------------------------------------------------------
#psi4
#
memory 32 gb

molecule  {
0 1
  O        2.2963030    -1.1646890    -0.3757460
  N        2.5138986     0.9419257     0.2780329
  C        0.2207310    -0.0269520    -0.0211670
  C       -0.4523230     1.1907380    -0.1883680
  C       -0.5090170    -1.2093150     0.1506230
  C       -1.8475330     1.2224820    -0.1660350
  C       -1.9015700    -1.1704770     0.1807190
  C       -2.5738810     0.0455010     0.0269260
  C        1.7134710    -0.1319220    -0.0440620
  H        0.1072720     2.1036640    -0.3785230
  H        0.0332720    -2.1453590     0.2524960
  H       -2.3684780     2.1664290    -0.3073730
  H       -2.4655310    -2.0892580     0.3223660
  H       -3.6606990     0.0738880     0.0465090
  H        1.9473050     1.6788240     0.9202200
  H        3.3908630     0.8938600     0.4225490
units angstrom
no_reorient  #important for SAPT in psi4, default
symmetry c1  #important for SAPT in psi4, default
}

set PROPERTIES_ORIGIN ["COM"]
properties('MP2/aug-cc-pvtz', properties = ['dipole'])
--------------------------------------------------------------------------

    Molecular point group: c1
  Charge       = 0
  Multiplicity = 1
  Basis Set: AUG-CC-PVTZ
    Blend: AUG-CC-PVTZ
  Basis Set: (AUG-CC-PVTZ AUX)
    Blend: AUG-CC-PVTZ-JKFIT

    Orbital Energies [Eh]
    ---------------------

    Doubly Occupied:

       1A    -20.517937     2A    -15.583568     3A    -11.359915
       4A    -11.261905     5A    -11.260574     6A    -11.256844
       7A    -11.253471     8A    -11.252436     9A    -11.250004
      10A     -1.377722    11A     -1.208798    12A     -1.168372
      13A     -1.045278    14A     -1.031263    15A     -0.888897
      16A     -0.844590    17A     -0.801214    18A     -0.729583
      19A     -0.696043    20A     -0.676113    21A     -0.642704
      22A     -0.623173    23A     -0.603477    24A     -0.587691
      25A     -0.573124    26A     -0.525879    27A     -0.510987
      28A     -0.508893    29A     -0.431539    30A     -0.414023
      31A     -0.355004    32A     -0.350702

  @DF-RHF Final Energy:  -398.59841443382737

   => Energetics <=

    Nuclear Repulsion Energy =            403.4369168040389582
    One-Electron Energy =               -1340.8872195428195937
    Two-Electron Energy =                 538.8518883049533770
    Total Energy =                       -398.5984144338273154
  Basis Set: (AUG-CC-PVTZ AUX)
    Blend: AUG-CC-PVTZ-RI
    Molecular point group: c1

    Geometry (in Angstrom), charge = 0, multiplicity = 1:

       Center              X                  Y                   Z               Mass
    ------------   -----------------  -----------------  -----------------  -----------------
         O            2.257556108595    -1.134160570908    -0.362819144272    15.994914619570
         N            2.475151708595     0.972454129092     0.290959755728    14.003074004430
         C            0.181984108595     0.003576429092    -0.008240144272    12.000000000000
         C           -0.491069891405     1.221266429092    -0.175441144272    12.000000000000
         C           -0.547763891405    -1.178786570908     0.163549855728    12.000000000000
         C           -1.886279891405     1.253010429092    -0.153108144272    12.000000000000
         C           -1.940316891405    -1.139948570908     0.193645855728    12.000000000000
         C           -2.612627891405     0.076029429092     0.039852855728    12.000000000000
         C            1.674724108595    -0.101393570908    -0.031135144272    12.000000000000
         H            0.068525108595     2.134192429092    -0.365596144272     1.007825032230
         H           -0.005474891405    -2.114830570908     0.265422855728     1.007825032230
         H           -2.407224891405     2.196957429092    -0.294446144272     1.007825032230
         H           -2.504277891405    -2.058729570908     0.335292855728     1.007825032230
         H           -3.699445891405     0.104416429092     0.059435855728     1.007825032230
         H            1.908558108595     1.709352429092     0.933146855728     1.007825032230
         H            3.352116108595     0.924388429092     0.435475855728     1.007825032230

  Basis Set: AUG-CC-PVTZ
    Blend: AUG-CC-PVTZ
  Basis Set: (AUG-CC-PVTZ AUX)
    Blend: AUG-CC-PVTZ-JKFIT
	 Reference Energy          =    -398.5984144338273722 [Eh]
	 Singles Energy            =      -0.0000000000000000 [Eh]
	 Same-Spin Energy          =      -0.4245331120945748 [Eh]
	 Opposite-Spin Energy      =      -1.3029077265526121 [Eh]
	 Correlation Energy        =      -1.7274408386471869 [Eh]
	 Total Energy              =    -400.3258552724745414 [Eh]

	 ================> DF-SCS-MP2 Energies <==================
	-----------------------------------------------------------
	 SCS Same-Spin Scale       =       0.3333333333333333 [-]
	 SCS Opposite-Spin Scale   =       1.2000000000000000 [-]
	 SCS Same-Spin Energy      =      -0.1415110373648583 [Eh]
	 SCS Opposite-Spin Energy  =      -1.5634892718631346 [Eh]
	 SCS Correlation Energy    =      -1.7050003092279928 [Eh]
	 SCS Total Energy          =    -400.3034147430553844 [Eh]
	-----------------------------------------------------------

  Dipole Moment: [D]
     X:    -1.8658      Y:     2.7110      Z:     1.6236     Total:     3.6697

*** Psi4 exiting successfully. Buy a developer a beer!
