                               Psi4 1.3.2 release

  ==> Input File <==

--------------------------------------------------------------------------
#psi4
#
memory 32 gb

molecule  {
0 1
  O        2.2963030    -1.1646890    -0.3757460
  N        2.3923280     1.0164480     0.2994170
  C        0.2207310    -0.0269520    -0.0211670
  C       -0.4307787     1.2020873    -0.1906497
  C       -0.5090170    -1.2093150     0.1506230
  C       -1.8475330     1.2224820    -0.1660350
  C       -1.9015700    -1.1704770     0.1807190
  C       -2.5738810     0.0455010     0.0269260
  C        1.7134710    -0.1319220    -0.0440620
  H        0.1072720     2.1036640    -0.3785230
  H        0.0332720    -2.1453590     0.2524960
  H       -2.3684780     2.1664290    -0.3073730
  H       -2.4655310    -2.0892580     0.3223660
  H       -3.6606990     0.0738880     0.0465090
  H        1.9473050     1.6788240     0.9202200
  H        3.3908630     0.8938600     0.4225490
units angstrom
no_reorient  #important for SAPT in psi4, default
symmetry c1  #important for SAPT in psi4, default
}

set PROPERTIES_ORIGIN ["COM"]
properties('MP2/aug-cc-pvtz', properties = ['dipole'])
--------------------------------------------------------------------------

    Molecular point group: c1
  Charge       = 0
  Multiplicity = 1
  Basis Set: AUG-CC-PVTZ
    Blend: AUG-CC-PVTZ
  Basis Set: (AUG-CC-PVTZ AUX)
    Blend: AUG-CC-PVTZ-JKFIT

    Orbital Energies [Eh]
    ---------------------

    Doubly Occupied:

       1A    -20.524877     2A    -15.588022     3A    -11.360175
       4A    -11.258576     5A    -11.256126     6A    -11.254227
       7A    -11.252475     8A    -11.250061     9A    -11.247993
      10A     -1.377774    11A     -1.213595    12A     -1.162575
      13A     -1.041137    14A     -1.026651    15A     -0.879241
      16A     -0.843075    17A     -0.787509    18A     -0.742301
      19A     -0.696349    20A     -0.671865    21A     -0.641177
      22A     -0.620744    23A     -0.600915    24A     -0.597676
      25A     -0.572304    26A     -0.523049    27A     -0.509552
      28A     -0.507265    29A     -0.436176    30A     -0.419365
      31A     -0.352747    32A     -0.346552

  @DF-RHF Final Energy:  -398.62840664033382

   => Energetics <=

    Nuclear Repulsion Energy =            403.7833214142924021
    One-Electron Energy =               -1341.6992010142705567
    Two-Electron Energy =                 539.2874729596443331
    Total Energy =                       -398.6284066403337647
  Basis Set: (AUG-CC-PVTZ AUX)
    Blend: AUG-CC-PVTZ-RI
    Molecular point group: c1

    Geometry (in Angstrom), charge = 0, multiplicity = 1:

       Center              X                  Y                   Z               Mass
    ------------   -----------------  -----------------  -----------------  -----------------
         O            2.269483391068    -1.143906179719    -0.365066616582    15.994914619570
         N            2.365508391068     1.037230820281     0.310096383418    14.003074004430
         C            0.193911391068    -0.006169179719    -0.010487616582    12.000000000000
         C           -0.457598308932     1.222870120281    -0.179970316582    12.000000000000
         C           -0.535836608932    -1.188532179719     0.161302383418    12.000000000000
         C           -1.874352608932     1.243264820281    -0.155355616582    12.000000000000
         C           -1.928389608932    -1.149694179719     0.191398383418    12.000000000000
         C           -2.600700608932     0.066283820281     0.037605383418    12.000000000000
         C            1.686651391068    -0.111139179719    -0.033382616582    12.000000000000
         H            0.080452391068     2.124446820281    -0.367843616582     1.007825032230
         H            0.006452391068    -2.124576179719     0.263175383418     1.007825032230
         H           -2.395297608932     2.187211820281    -0.296693616582     1.007825032230
         H           -2.492350608932    -2.068475179719     0.333045383418     1.007825032230
         H           -3.687518608932     0.094670820281     0.057188383418     1.007825032230
         H            1.920485391068     1.699606820281     0.930899383418     1.007825032230
         H            3.364043391068     0.914642820281     0.433228383418     1.007825032230

  Basis Set: AUG-CC-PVTZ
    Blend: AUG-CC-PVTZ
  Basis Set: (AUG-CC-PVTZ AUX)
    Blend: AUG-CC-PVTZ-JKFIT
	 Reference Energy          =    -398.6284066403338215 [Eh]
	 Singles Energy            =      -0.0000000000000000 [Eh]
	 Same-Spin Energy          =      -0.4247434364169662 [Eh]
	 Opposite-Spin Energy      =      -1.3026392612112028 [Eh]
	 Correlation Energy        =      -1.7273826976281690 [Eh]
	 Total Energy              =    -400.3557893379619941 [Eh]

	 ================> DF-SCS-MP2 Energies <==================
	-----------------------------------------------------------
	 SCS Same-Spin Scale       =       0.3333333333333333 [-]
	 SCS Opposite-Spin Scale   =       1.2000000000000000 [-]
	 SCS Same-Spin Energy      =      -0.1415811454723221 [Eh]
	 SCS Opposite-Spin Energy  =      -1.5631671134534433 [Eh]
	 SCS Correlation Energy    =      -1.7047482589257654 [Eh]
	 SCS Total Energy          =    -400.3331548992595685 [Eh]
	-----------------------------------------------------------

  Dipole Moment: [D]
     X:    -1.5578      Y:     2.6957      Z:     1.6485     Total:     3.5229

*** Psi4 exiting successfully. Buy a developer a beer!
