                               Psi4 1.3.2 release

  ==> Input File <==

--------------------------------------------------------------------------
#psi4
#
memory 32 gb

molecule  {
0 1
  O        2.2963030    -1.1646890    -0.3757460
  N        2.3923280     1.0164480     0.2994170
  C        0.1335530    -0.0694822    -0.0085873
  C       -0.4523230     1.1907380    -0.1883680
  C       -0.5090170    -1.2093150     0.1506230
  C       -1.8475330     1.2224820    -0.1660350
  C       -1.9015700    -1.1704770     0.1807190
  C       -2.5738810     0.0455010     0.0269260
  C        1.7134710    -0.1319220    -0.0440620
  H        0.1072720     2.1036640    -0.3785230
  H        0.0332720    -2.1453590     0.2524960
  H       -2.3684780     2.1664290    -0.3073730
  H       -2.4655310    -2.0892580     0.3223660
  H       -3.6606990     0.0738880     0.0465090
  H        1.9473050     1.6788240     0.9202200
  H        3.3908630     0.8938600     0.4225490
units angstrom
no_reorient  #important for SAPT in psi4, default
symmetry c1  #important for SAPT in psi4, default
}

set PROPERTIES_ORIGIN ["COM"]
properties('MP2/aug-cc-pvtz', properties = ['dipole'])
--------------------------------------------------------------------------

    Molecular point group: c1
  Charge       = 0
  Multiplicity = 1
  Basis Set: AUG-CC-PVTZ
    Blend: AUG-CC-PVTZ
  Basis Set: (AUG-CC-PVTZ AUX)
    Blend: AUG-CC-PVTZ-JKFIT

    Orbital Energies [Eh]
    ---------------------

    Doubly Occupied:

       1A    -20.525415     2A    -15.589880     3A    -11.363026
       4A    -11.254606     5A    -11.253035     6A    -11.250504
       7A    -11.249355     8A    -11.247796     9A    -11.237973
      10A     -1.376082    11A     -1.212375    12A     -1.172967
      13A     -1.041891    14A     -1.029181    15A     -0.864967
      16A     -0.846506    17A     -0.788376    18A     -0.742919
      19A     -0.696082    20A     -0.663821    21A     -0.640846
      22A     -0.626559    23A     -0.606444    24A     -0.591206
      25A     -0.570033    26A     -0.521762    27A     -0.515218
      28A     -0.509741    29A     -0.430329    30A     -0.416649
      31A     -0.357240    32A     -0.347921

  @DF-RHF Final Energy:  -398.61921081692657

   => Energetics <=

    Nuclear Repulsion Energy =            404.2827461750355837
    One-Electron Energy =               -1342.7225056792842679
    Two-Electron Energy =                 539.8205486873221162
    Total Energy =                       -398.6192108169266248
  Basis Set: (AUG-CC-PVTZ AUX)
    Blend: AUG-CC-PVTZ-RI
    Molecular point group: c1

    Geometry (in Angstrom), charge = 0, multiplicity = 1:

       Center              X                  Y                   Z               Mass
    ------------   -----------------  -----------------  -----------------  -----------------
         O            2.280261068161    -1.138565087294    -0.366539832016    15.994914619570
         N            2.376286068161     1.042571912706     0.308623167984    14.003074004430
         C            0.117511068161    -0.043358287294     0.000618867984    12.000000000000
         C           -0.468364931839     1.216861912706    -0.179161832016    12.000000000000
         C           -0.525058931839    -1.183191087294     0.159829167984    12.000000000000
         C           -1.863574931839     1.248605912706    -0.156828832016    12.000000000000
         C           -1.917611931839    -1.144353087294     0.189925167984    12.000000000000
         C           -2.589922931839     0.071624912706     0.036132167984    12.000000000000
         C            1.697429068161    -0.105798087294    -0.034855832016    12.000000000000
         H            0.091230068161     2.129787912706    -0.369316832016     1.007825032230
         H            0.017230068161    -2.119235087294     0.261702167984     1.007825032230
         H           -2.384519931839     2.192552912706    -0.298166832016     1.007825032230
         H           -2.481572931839    -2.063134087294     0.331572167984     1.007825032230
         H           -3.676740931839     0.100011912706     0.055715167984     1.007825032230
         H            1.931263068161     1.704947912706     0.929426167984     1.007825032230
         H            3.374821068161     0.919983912706     0.431755167984     1.007825032230

  Basis Set: AUG-CC-PVTZ
    Blend: AUG-CC-PVTZ
  Basis Set: (AUG-CC-PVTZ AUX)
    Blend: AUG-CC-PVTZ-JKFIT
	 Reference Energy          =    -398.6192108169265680 [Eh]
	 Singles Energy            =      -0.0000000000000000 [Eh]
	 Same-Spin Energy          =      -0.4244709553196583 [Eh]
	 Opposite-Spin Energy      =      -1.3019524205340316 [Eh]
	 Correlation Energy        =      -1.7264233758536900 [Eh]
	 Total Energy              =    -400.3456341927802669 [Eh]

	 ================> DF-SCS-MP2 Energies <==================
	-----------------------------------------------------------
	 SCS Same-Spin Scale       =       0.3333333333333333 [-]
	 SCS Opposite-Spin Scale   =       1.2000000000000000 [-]
	 SCS Same-Spin Energy      =      -0.1414903184398861 [Eh]
	 SCS Opposite-Spin Energy  =      -1.5623429046408379 [Eh]
	 SCS Correlation Energy    =      -1.7038332230807240 [Eh]
	 SCS Total Energy          =    -400.3230440400072894 [Eh]
	-----------------------------------------------------------

  Dipole Moment: [D]
     X:    -1.4189      Y:     2.6998      Z:     1.6551     Total:     3.4701

*** Psi4 exiting successfully. Buy a developer a beer!
