                               Psi4 1.3.2 release

  ==> Input File <==

--------------------------------------------------------------------------
#psi4
#
memory 32 gb

molecule  {
0 1
  O        2.2963030    -1.1646890    -0.3757460
  N        2.3923280     1.0164480     0.2994170
  C        0.2207310    -0.0269520    -0.0211670
  C       -0.4523230     1.1907380    -0.1883680
  C       -0.5090170    -1.2093150     0.1506230
  C       -1.8475330     1.2224820    -0.1660350
  C       -1.9015700    -1.1704770     0.1807190
  C       -2.5738810     0.0455010     0.0269260
  C        1.6949702    -0.1248024    -0.0304585
  H        0.1072720     2.1036640    -0.3785230
  H        0.0332720    -2.1453590     0.2524960
  H       -2.3684780     2.1664290    -0.3073730
  H       -2.4655310    -2.0892580     0.3223660
  H       -3.6606990     0.0738880     0.0465090
  H        1.9473050     1.6788240     0.9202200
  H        3.3908630     0.8938600     0.4225490
units angstrom
no_reorient  #important for SAPT in psi4, default
symmetry c1  #important for SAPT in psi4, default
}

set PROPERTIES_ORIGIN ["COM"]
properties('MP2/aug-cc-pvtz', properties = ['dipole'])
--------------------------------------------------------------------------

    Molecular point group: c1
  Charge       = 0
  Multiplicity = 1
  Basis Set: AUG-CC-PVTZ
    Blend: AUG-CC-PVTZ
  Basis Set: (AUG-CC-PVTZ AUX)
    Blend: AUG-CC-PVTZ-JKFIT

    Orbital Energies [Eh]
    ---------------------

    Doubly Occupied:

       1A    -20.522062     2A    -15.589060     3A    -11.361187
       4A    -11.259383     5A    -11.255874     6A    -11.255794
       7A    -11.251627     8A    -11.251129     9A    -11.248479
      10A     -1.366379    11A     -1.212044    12A     -1.166100
      13A     -1.043781    14A     -1.029793    15A     -0.883988
      16A     -0.842478    17A     -0.788895    18A     -0.741533
      19A     -0.696896    20A     -0.672967    21A     -0.640674
      22A     -0.618989    23A     -0.602389    24A     -0.593831
      25A     -0.569890    26A     -0.524333    27A     -0.508652
      28A     -0.507607    29A     -0.434987    30A     -0.417328
      31A     -0.353409    32A     -0.349261

  @DF-RHF Final Energy:  -398.62686334605883

   => Energetics <=

    Nuclear Repulsion Energy =            404.0480935296292841
    One-Electron Energy =               -1342.2283153366067836
    Two-Electron Energy =                 539.5533584609186164
    Total Energy =                       -398.6268633460588262
  Basis Set: (AUG-CC-PVTZ AUX)
    Blend: AUG-CC-PVTZ-RI
    Molecular point group: c1

    Geometry (in Angstrom), charge = 0, multiplicity = 1:

       Center              X                  Y                   Z               Mass
    ------------   -----------------  -----------------  -----------------  -----------------
         O            2.273453074904    -1.143486888177    -0.366641321644    15.994914619570
         N            2.369478074904     1.037650111823     0.308521678356    14.003074004430
         C            0.197881074904    -0.005749888177    -0.012062321644    12.000000000000
         C           -0.475172925096     1.211940111823    -0.179263321644    12.000000000000
         C           -0.531866925096    -1.188112888177     0.159727678356    12.000000000000
         C           -1.870382925096     1.243684111823    -0.156930321644    12.000000000000
         C           -1.924419925096    -1.149274888177     0.189823678356    12.000000000000
         C           -2.596730925096     0.066703111823     0.036030678356    12.000000000000
         C            1.672120274904    -0.103600288177    -0.021353821644    12.000000000000
         H            0.084422074904     2.124866111823    -0.369418321644     1.007825032230
         H            0.010422074904    -2.124156888177     0.261600678356     1.007825032230
         H           -2.391327925096     2.187631111823    -0.298268321644     1.007825032230
         H           -2.488380925096    -2.068055888177     0.331470678356     1.007825032230
         H           -3.683548925096     0.095090111823     0.055613678356     1.007825032230
         H            1.924455074904     1.700026111823     0.929324678356     1.007825032230
         H            3.368013074904     0.915062111823     0.431653678356     1.007825032230

  Basis Set: AUG-CC-PVTZ
    Blend: AUG-CC-PVTZ
  Basis Set: (AUG-CC-PVTZ AUX)
    Blend: AUG-CC-PVTZ-JKFIT
	 Reference Energy          =    -398.6268633460588262 [Eh]
	 Singles Energy            =      -0.0000000000000000 [Eh]
	 Same-Spin Energy          =      -0.4252625172838931 [Eh]
	 Opposite-Spin Energy      =      -1.3035643213967703 [Eh]
	 Correlation Energy        =      -1.7288268386806633 [Eh]
	 Total Energy              =    -400.3556901847395011 [Eh]

	 ================> DF-SCS-MP2 Energies <==================
	-----------------------------------------------------------
	 SCS Same-Spin Scale       =       0.3333333333333333 [-]
	 SCS Opposite-Spin Scale   =       1.2000000000000000 [-]
	 SCS Same-Spin Energy      =      -0.1417541724279643 [Eh]
	 SCS Opposite-Spin Energy  =      -1.5642771856761242 [Eh]
	 SCS Correlation Energy    =      -1.7060313581040885 [Eh]
	 SCS Total Energy          =    -400.3328947041629249 [Eh]
	-----------------------------------------------------------

  Dipole Moment: [D]
     X:    -1.6769      Y:     2.7533      Z:     1.6809     Total:     3.6357

*** Psi4 exiting successfully. Buy a developer a beer!
