                               Psi4 1.3.2 release

  ==> Input File <==

--------------------------------------------------------------------------
#psi4
#
memory 32 gb

molecule  {
0 1
  O        2.2963030    -1.1646890    -0.3757460
  N        2.3500834     1.0385292     0.3057192
  C        0.2207310    -0.0269520    -0.0211670
  C       -0.4523230     1.1907380    -0.1883680
  C       -0.5090170    -1.2093150     0.1506230
  C       -1.8475330     1.2224820    -0.1660350
  C       -1.9015700    -1.1704770     0.1807190
  C       -2.5738810     0.0455010     0.0269260
  C        1.7134710    -0.1319220    -0.0440620
  H        0.1072720     2.1036640    -0.3785230
  H        0.0332720    -2.1453590     0.2524960
  H       -2.3684780     2.1664290    -0.3073730
  H       -2.4655310    -2.0892580     0.3223660
  H       -3.6606990     0.0738880     0.0465090
  H        1.9473050     1.6788240     0.9202200
  H        3.3908630     0.8938600     0.4225490
units angstrom
no_reorient  #important for SAPT in psi4, default
symmetry c1  #important for SAPT in psi4, default
}

set PROPERTIES_ORIGIN ["COM"]
properties('MP2/aug-cc-pvtz', properties = ['dipole'])
--------------------------------------------------------------------------

    Molecular point group: c1
  Charge       = 0
  Multiplicity = 1
  Basis Set: AUG-CC-PVTZ
    Blend: AUG-CC-PVTZ
  Basis Set: (AUG-CC-PVTZ AUX)
    Blend: AUG-CC-PVTZ-JKFIT

    Orbital Energies [Eh]
    ---------------------

    Doubly Occupied:

       1A    -20.527972     2A    -15.589628     3A    -11.362201
       4A    -11.256797     5A    -11.253750     6A    -11.253491
       7A    -11.249446     8A    -11.249154     9A    -11.246798
      10A     -1.378774    11A     -1.217146    12A     -1.163434
      13A     -1.039445    14A     -1.027775    15A     -0.879317
      16A     -0.840137    17A     -0.792210    18A     -0.746619
      19A     -0.690907    20A     -0.668848    21A     -0.638208
      22A     -0.620600    23A     -0.601320    24A     -0.597365
      25A     -0.571693    26A     -0.523440    27A     -0.508168
      28A     -0.505906    29A     -0.438507    30A     -0.421715
      31A     -0.351439    32A     -0.347672

  @DF-RHF Final Energy:  -398.62519396916042

   => Energetics <=

    Nuclear Repulsion Energy =            404.2655007810847678
    One-Electron Energy =               -1342.6616218859251148
    Two-Electron Energy =                 539.7709271356799263
    Total Energy =                       -398.6251939691604775
  Basis Set: (AUG-CC-PVTZ AUX)
    Blend: AUG-CC-PVTZ-RI
    Molecular point group: c1

    Geometry (in Angstrom), charge = 0, multiplicity = 1:

       Center              X                  Y                   Z               Mass
    ------------   -----------------  -----------------  -----------------  -----------------
         O            2.276505831804    -1.145335416625    -0.366021824619    15.994914619570
         N            2.330286231804     1.057882783375     0.315443375381    14.003074004430
         C            0.200933831804    -0.007598416625    -0.011442824619    12.000000000000
         C           -0.472120168196     1.210091583375    -0.178643824619    12.000000000000
         C           -0.528814168196    -1.189961416625     0.160347175381    12.000000000000
         C           -1.867330168196     1.241835583375    -0.156310824619    12.000000000000
         C           -1.921367168196    -1.151123416625     0.190443175381    12.000000000000
         C           -2.593678168196     0.064854583375     0.036650175381    12.000000000000
         C            1.693673831804    -0.112568416625    -0.034337824619    12.000000000000
         H            0.087474831804     2.123017583375    -0.368798824619     1.007825032230
         H            0.013474831804    -2.126005416625     0.262220175381     1.007825032230
         H           -2.388275168196     2.185782583375    -0.297648824619     1.007825032230
         H           -2.485328168196    -2.069904416625     0.332090175381     1.007825032230
         H           -3.680496168196     0.093241583375     0.056233175381     1.007825032230
         H            1.927507831804     1.698177583375     0.929944175381     1.007825032230
         H            3.371065831804     0.913213583375     0.432273175381     1.007825032230

  Basis Set: AUG-CC-PVTZ
    Blend: AUG-CC-PVTZ
  Basis Set: (AUG-CC-PVTZ AUX)
    Blend: AUG-CC-PVTZ-JKFIT
	 Reference Energy          =    -398.6251939691604207 [Eh]
	 Singles Energy            =      -0.0000000000000000 [Eh]
	 Same-Spin Energy          =      -0.4250347062949505 [Eh]
	 Opposite-Spin Energy      =      -1.3030381504138615 [Eh]
	 Correlation Energy        =      -1.7280728567088119 [Eh]
	 Total Energy              =    -400.3532668258692411 [Eh]

	 ================> DF-SCS-MP2 Energies <==================
	-----------------------------------------------------------
	 SCS Same-Spin Scale       =       0.3333333333333333 [-]
	 SCS Opposite-Spin Scale   =       1.2000000000000000 [-]
	 SCS Same-Spin Energy      =      -0.1416782354316502 [Eh]
	 SCS Opposite-Spin Energy  =      -1.5636457804966337 [Eh]
	 SCS Correlation Energy    =      -1.7053240159282839 [Eh]
	 SCS Total Energy          =    -400.3305179850887043 [Eh]
	-----------------------------------------------------------

  Dipole Moment: [D]
     X:    -1.4610      Y:     2.6687      Z:     1.6518     Total:     3.4619

*** Psi4 exiting successfully. Buy a developer a beer!
