                               Psi4 1.3.2 release

  ==> Input File <==

--------------------------------------------------------------------------
#psi4
#
memory 32 gb

molecule  {
0 1
  O        2.2963030    -1.1646890    -0.3757460
  N        2.3923280     1.0164480     0.2994170
  C        0.2420294    -0.0153838    -0.0244417
  C       -0.4523230     1.1907380    -0.1883680
  C       -0.5090170    -1.2093150     0.1506230
  C       -1.8475330     1.2224820    -0.1660350
  C       -1.9015700    -1.1704770     0.1807190
  C       -2.5738810     0.0455010     0.0269260
  C        1.7134710    -0.1319220    -0.0440620
  H        0.1072720     2.1036640    -0.3785230
  H        0.0332720    -2.1453590     0.2524960
  H       -2.3684780     2.1664290    -0.3073730
  H       -2.4655310    -2.0892580     0.3223660
  H       -3.6606990     0.0738880     0.0465090
  H        1.9473050     1.6788240     0.9202200
  H        3.3908630     0.8938600     0.4225490
units angstrom
no_reorient  #important for SAPT in psi4, default
symmetry c1  #important for SAPT in psi4, default
}

set PROPERTIES_ORIGIN ["COM"]
properties('MP2/aug-cc-pvtz', properties = ['dipole'])
--------------------------------------------------------------------------

    Molecular point group: c1
  Charge       = 0
  Multiplicity = 1
  Basis Set: AUG-CC-PVTZ
    Blend: AUG-CC-PVTZ
  Basis Set: (AUG-CC-PVTZ AUX)
    Blend: AUG-CC-PVTZ-JKFIT

    Orbital Energies [Eh]
    ---------------------

    Doubly Occupied:

       1A    -20.524898     2A    -15.587511     3A    -11.359814
       4A    -11.258908     5A    -11.256050     6A    -11.255437
       7A    -11.252964     8A    -11.250349     9A    -11.247678
      10A     -1.378312    11A     -1.213895    12A     -1.162828
      13A     -1.041700    14A     -1.027671    15A     -0.883985
      16A     -0.839848    17A     -0.788543    18A     -0.741962
      19A     -0.695548    20A     -0.674136    21A     -0.639777
      22A     -0.619599    23A     -0.600544    24A     -0.598022
      25A     -0.572897    26A     -0.525560    27A     -0.507479
      28A     -0.504180    29A     -0.438095    30A     -0.419793
      31A     -0.353271    32A     -0.346545

  @DF-RHF Final Energy:  -398.62817178316993

   => Energetics <=

    Nuclear Repulsion Energy =            403.9558421749674153
    One-Electron Energy =               -1342.0324296285159562
    Two-Electron Energy =                 539.4484156703786084
    Total Energy =                       -398.6281717831699325
  Basis Set: (AUG-CC-PVTZ AUX)
    Blend: AUG-CC-PVTZ-RI
    Molecular point group: c1

    Geometry (in Angstrom), charge = 0, multiplicity = 1:

       Center              X                  Y                   Z               Mass
    ------------   -----------------  -----------------  -----------------  -----------------
         O            2.269507767215    -1.143927879347    -0.364968180168    15.994914619570
         N            2.365532767215     1.037209120653     0.310194819832    14.003074004430
         C            0.215234167215     0.005377320653    -0.013663880168    12.000000000000
         C           -0.479118232785     1.211499120653    -0.177590180168    12.000000000000
         C           -0.535812232785    -1.188553879347     0.161400819832    12.000000000000
         C           -1.874328232785     1.243243120653    -0.155257180168    12.000000000000
         C           -1.928365232785    -1.149715879347     0.191496819832    12.000000000000
         C           -2.600676232785     0.066262120653     0.037703819832    12.000000000000
         C            1.686675767215    -0.111160879347    -0.033284180168    12.000000000000
         H            0.080476767215     2.124425120653    -0.367745180168     1.007825032230
         H            0.006476767215    -2.124597879347     0.263273819832     1.007825032230
         H           -2.395273232785     2.187190120653    -0.296595180168     1.007825032230
         H           -2.492326232785    -2.068496879347     0.333143819832     1.007825032230
         H           -3.687494232785     0.094649120653     0.057286819832     1.007825032230
         H            1.920509767215     1.699585120653     0.930997819832     1.007825032230
         H            3.364067767215     0.914621120653     0.433326819832     1.007825032230

  Basis Set: AUG-CC-PVTZ
    Blend: AUG-CC-PVTZ
  Basis Set: (AUG-CC-PVTZ AUX)
    Blend: AUG-CC-PVTZ-JKFIT
	 Reference Energy          =    -398.6281717831699325 [Eh]
	 Singles Energy            =      -0.0000000000000000 [Eh]
	 Same-Spin Energy          =      -0.4249165089394035 [Eh]
	 Opposite-Spin Energy      =      -1.3028764311907928 [Eh]
	 Correlation Energy        =      -1.7277929401301964 [Eh]
	 Total Energy              =    -400.3559647233001328 [Eh]

	 ================> DF-SCS-MP2 Energies <==================
	-----------------------------------------------------------
	 SCS Same-Spin Scale       =       0.3333333333333333 [-]
	 SCS Opposite-Spin Scale   =       1.2000000000000000 [-]
	 SCS Same-Spin Energy      =      -0.1416388363131345 [Eh]
	 SCS Opposite-Spin Energy  =      -1.5634517174289513 [Eh]
	 SCS Correlation Energy    =      -1.7050905537420857 [Eh]
	 SCS Total Energy          =    -400.3332623369120142 [Eh]
	-----------------------------------------------------------

  Dipole Moment: [D]
     X:    -1.5914      Y:     2.6906      Z:     1.6492     Total:     3.5343

*** Psi4 exiting successfully. Buy a developer a beer!
