                               Psi4 1.3.2 release

  ==> Input File <==

--------------------------------------------------------------------------
#psi4
#
memory 32 gb

molecule  {
0 1
  O        2.2192194    -1.2006670    -0.3880356
  N        2.3923280     1.0164480     0.2994170
  C        0.2207310    -0.0269520    -0.0211670
  C       -0.4523230     1.1907380    -0.1883680
  C       -0.5090170    -1.2093150     0.1506230
  C       -1.8475330     1.2224820    -0.1660350
  C       -1.9015700    -1.1704770     0.1807190
  C       -2.5738810     0.0455010     0.0269260
  C        1.7134710    -0.1319220    -0.0440620
  H        0.1072720     2.1036640    -0.3785230
  H        0.0332720    -2.1453590     0.2524960
  H       -2.3684780     2.1664290    -0.3073730
  H       -2.4655310    -2.0892580     0.3223660
  H       -3.6606990     0.0738880     0.0465090
  H        1.9473050     1.6788240     0.9202200
  H        3.3908630     0.8938600     0.4225490
units angstrom
no_reorient  #important for SAPT in psi4, default
symmetry c1  #important for SAPT in psi4, default
}

set PROPERTIES_ORIGIN ["COM"]
properties('MP2/aug-cc-pvtz', properties = ['dipole'])
--------------------------------------------------------------------------

    Molecular point group: c1
  Charge       = 0
  Multiplicity = 1
  Basis Set: AUG-CC-PVTZ
    Blend: AUG-CC-PVTZ
  Basis Set: (AUG-CC-PVTZ AUX)
    Blend: AUG-CC-PVTZ-JKFIT

    Orbital Energies [Eh]
    ---------------------

    Doubly Occupied:

       1A    -20.526600     2A    -15.593294     3A    -11.361835
       4A    -11.255162     5A    -11.252087     6A    -11.251927
       7A    -11.248093     8A    -11.247254     9A    -11.245370
      10A     -1.378496    11A     -1.219156    12A     -1.162266
      13A     -1.037983    14A     -1.026282    15A     -0.878522
      16A     -0.838894    17A     -0.789229    18A     -0.743480
      19A     -0.696282    20A     -0.672598    21A     -0.637758
      22A     -0.620557    23A     -0.600831    24A     -0.596322
      25A     -0.572830    26A     -0.521611    27A     -0.506926
      28A     -0.504287    29A     -0.436974    30A     -0.423468
      31A     -0.349991    32A     -0.345562

  @DF-RHF Final Energy:  -398.62771984240413

   => Energetics <=

    Nuclear Repulsion Energy =            404.5309698554015085
    One-Electron Energy =               -1343.2335267853704863
    Two-Electron Energy =                 540.0748370875647879
    Total Energy =                       -398.6277198424041899
  Basis Set: (AUG-CC-PVTZ AUX)
    Blend: AUG-CC-PVTZ-RI
    Molecular point group: c1

    Geometry (in Angstrom), charge = 0, multiplicity = 1:

       Center              X                  Y                   Z               Mass
    ------------   -----------------  -----------------  -----------------  -----------------
         O            2.204720676218    -1.174005283479    -0.375958555782    15.994914619570
         N            2.377829276218     1.043109716521     0.311494044218    14.003074004430
         C            0.206232276218    -0.000290283479    -0.009089955782    12.000000000000
         C           -0.466821723782     1.217399716521    -0.176290955782    12.000000000000
         C           -0.523515723782    -1.182653283479     0.162700044218    12.000000000000
         C           -1.862031723782     1.249143716521    -0.153957955782    12.000000000000
         C           -1.916068723782    -1.143815283479     0.192796044218    12.000000000000
         C           -2.588379723782     0.072162716521     0.039003044218    12.000000000000
         C            1.698972276218    -0.105260283479    -0.031984955782    12.000000000000
         H            0.092773276218     2.130325716521    -0.366445955782     1.007825032230
         H            0.018773276218    -2.118697283479     0.264573044218     1.007825032230
         H           -2.382976723782     2.193090716521    -0.295295955782     1.007825032230
         H           -2.480029723782    -2.062596283479     0.334443044218     1.007825032230
         H           -3.675197723782     0.100549716521     0.058586044218     1.007825032230
         H            1.932806276218     1.705485716521     0.932297044218     1.007825032230
         H            3.376364276218     0.920521716521     0.434626044218     1.007825032230

  Basis Set: AUG-CC-PVTZ
    Blend: AUG-CC-PVTZ
  Basis Set: (AUG-CC-PVTZ AUX)
    Blend: AUG-CC-PVTZ-JKFIT
	 Reference Energy          =    -398.6277198424041330 [Eh]
	 Singles Energy            =      -0.0000000000000000 [Eh]
	 Same-Spin Energy          =      -0.4249387345723231 [Eh]
	 Opposite-Spin Energy      =      -1.3027426844263412 [Eh]
	 Correlation Energy        =      -1.7276814189986642 [Eh]
	 Total Energy              =    -400.3554012614027897 [Eh]

	 ================> DF-SCS-MP2 Energies <==================
	-----------------------------------------------------------
	 SCS Same-Spin Scale       =       0.3333333333333333 [-]
	 SCS Opposite-Spin Scale   =       1.2000000000000000 [-]
	 SCS Same-Spin Energy      =      -0.1416462448574410 [Eh]
	 SCS Opposite-Spin Energy  =      -1.5632912213116095 [Eh]
	 SCS Correlation Energy    =      -1.7049374661690506 [Eh]
	 SCS Total Energy          =    -400.3326573085731752 [Eh]
	-----------------------------------------------------------

  Dipole Moment: [D]
     X:    -1.2468      Y:     2.7570      Z:     1.6779     Total:     3.4599

*** Psi4 exiting successfully. Buy a developer a beer!
