                               Psi4 1.3.2 release

  ==> Input File <==

--------------------------------------------------------------------------
#psi4
#
memory 32 gb

molecule  {
0 1
  O        2.2963030    -1.1646890    -0.3757460
  N        2.3923280     1.0164480     0.2994170
  C        0.2207310    -0.0269520    -0.0211670
  C       -0.4947901     1.1669303    -0.1836525
  C       -0.5090170    -1.2093150     0.1506230
  C       -1.8475330     1.2224820    -0.1660350
  C       -1.9015700    -1.1704770     0.1807190
  C       -2.5738810     0.0455010     0.0269260
  C        1.7134710    -0.1319220    -0.0440620
  H        0.1072720     2.1036640    -0.3785230
  H        0.0332720    -2.1453590     0.2524960
  H       -2.3684780     2.1664290    -0.3073730
  H       -2.4655310    -2.0892580     0.3223660
  H       -3.6606990     0.0738880     0.0465090
  H        1.9473050     1.6788240     0.9202200
  H        3.3908630     0.8938600     0.4225490
units angstrom
no_reorient  #important for SAPT in psi4, default
symmetry c1  #important for SAPT in psi4, default
}

set PROPERTIES_ORIGIN ["COM"]
properties('MP2/aug-cc-pvtz', properties = ['dipole'])
--------------------------------------------------------------------------

    Molecular point group: c1
  Charge       = 0
  Multiplicity = 1
  Basis Set: AUG-CC-PVTZ
    Blend: AUG-CC-PVTZ
  Basis Set: (AUG-CC-PVTZ AUX)
    Blend: AUG-CC-PVTZ-JKFIT

    Orbital Energies [Eh]
    ---------------------

    Doubly Occupied:

       1A    -20.525640     2A    -15.588365     3A    -11.362133
       4A    -11.256448     5A    -11.254621     6A    -11.254421
       7A    -11.250392     8A    -11.246642     9A    -11.245097
      10A     -1.378427    11A     -1.213691    12A     -1.168856
      13A     -1.040879    14A     -1.031804    15A     -0.881812
      16A     -0.837120    17A     -0.791075    18A     -0.742200
      19A     -0.694561    20A     -0.673054    21A     -0.638837
      22A     -0.619691    23A     -0.603597    24A     -0.594628
      25A     -0.572394    26A     -0.526304    27A     -0.512121
      28A     -0.498644    29A     -0.438039    30A     -0.420083
      31A     -0.354373    32A     -0.349265

  @DF-RHF Final Energy:  -398.62658498460166

   => Energetics <=

    Nuclear Repulsion Energy =            404.4750878527846112
    One-Electron Energy =               -1343.0729166278595130
    Two-Electron Energy =                 539.9712437904732951
    Total Energy =                       -398.6265849846016636
  Basis Set: (AUG-CC-PVTZ AUX)
    Blend: AUG-CC-PVTZ-RI
    Molecular point group: c1

    Geometry (in Angstrom), charge = 0, multiplicity = 1:

       Center              X                  Y                   Z               Mass
    ------------   -----------------  -----------------  -----------------  -----------------
         O            2.275828862047    -1.140421054831    -0.365760251302    15.994914619570
         N            2.371853862047     1.040715945169     0.309402748698    14.003074004430
         C            0.200256862047    -0.002684054831    -0.011181251302    12.000000000000
         C           -0.515264237953     1.191198245169    -0.173666751302    12.000000000000
         C           -0.529491137953    -1.185047054831     0.160608748698    12.000000000000
         C           -1.868007137953     1.246749945169    -0.156049251302    12.000000000000
         C           -1.922044137953    -1.146209054831     0.190704748698    12.000000000000
         C           -2.594355137953     0.069768945169     0.036911748698    12.000000000000
         C            1.692996862047    -0.107654054831    -0.034076251302    12.000000000000
         H            0.086797862047     2.127931945169    -0.368537251302     1.007825032230
         H            0.012797862047    -2.121091054831     0.262481748698     1.007825032230
         H           -2.388952137953     2.190696945169    -0.297387251302     1.007825032230
         H           -2.486005137953    -2.064990054831     0.332351748698     1.007825032230
         H           -3.681173137953     0.098155945169     0.056494748698     1.007825032230
         H            1.926830862047     1.703091945169     0.930205748698     1.007825032230
         H            3.370388862047     0.918127945169     0.432534748698     1.007825032230

  Basis Set: AUG-CC-PVTZ
    Blend: AUG-CC-PVTZ
  Basis Set: (AUG-CC-PVTZ AUX)
    Blend: AUG-CC-PVTZ-JKFIT
	 Reference Energy          =    -398.6265849846016636 [Eh]
	 Singles Energy            =      -0.0000000000000000 [Eh]
	 Same-Spin Energy          =      -0.4248226095208665 [Eh]
	 Opposite-Spin Energy      =      -1.3024688659012111 [Eh]
	 Correlation Energy        =      -1.7272914754220776 [Eh]
	 Total Energy              =    -400.3538764600237414 [Eh]

	 ================> DF-SCS-MP2 Energies <==================
	-----------------------------------------------------------
	 SCS Same-Spin Scale       =       0.3333333333333333 [-]
	 SCS Opposite-Spin Scale   =       1.2000000000000000 [-]
	 SCS Same-Spin Energy      =      -0.1416075365069555 [Eh]
	 SCS Opposite-Spin Energy  =      -1.5629626390814533 [Eh]
	 SCS Correlation Energy    =      -1.7045701755884088 [Eh]
	 SCS Total Energy          =    -400.3311551601900646 [Eh]
	-----------------------------------------------------------

  Dipole Moment: [D]
     X:    -1.5418      Y:     2.6793      Z:     1.6564     Total:     3.5071

*** Psi4 exiting successfully. Buy a developer a beer!
