                               Psi4 1.4a3.dev225

  ==> Input File <==

--------------------------------------------------------------------------
#psi4
#
memory 32 gb

molecule  {
0 1
  O        2.2963030    -1.1646890    -0.3757460
  N        2.3923280     1.0164480     0.2994170
  C        0.2207310    -0.0269520    -0.0211670
  C       -0.4523230     1.1907380    -0.1883680
  C       -0.5090170    -1.2093150     0.1506230
  C       -1.8475330     1.2224820    -0.1660350
  C       -1.9015700    -1.1704770     0.1807190
  C       -2.5738810     0.0455010     0.0269260
  C        1.6935226    -0.1305192    -0.0437560
  H        0.1072720     2.1036640    -0.3785230
  H        0.0332720    -2.1453590     0.2524960
  H       -2.3684780     2.1664290    -0.3073730
  H       -2.4655310    -2.0892580     0.3223660
  H       -3.6606990     0.0738880     0.0465090
  H        1.9473050     1.6788240     0.9202200
  H        3.3908630     0.8938600     0.4225490
units angstrom
no_reorient  #important for SAPT in psi4, default
symmetry c1  #important for SAPT in psi4, default
}

set PROPERTIES_ORIGIN ["COM"]
properties('MP2/aug-cc-pvtz', properties = ['dipole'])
--------------------------------------------------------------------------

    Molecular point group: c1
  Charge       = 0
  Multiplicity = 1
  Basis Set: AUG-CC-PVTZ
    Blend: AUG-CC-PVTZ
  Basis Set: (AUG-CC-PVTZ AUX)
    Blend: AUG-CC-PVTZ-JKFIT

    Orbital Energies [Eh]
    ---------------------

    Doubly Occupied:

       1A    -20.523741     2A    -15.587027     3A    -11.361197
       4A    -11.259492     5A    -11.255929     6A    -11.255733
       7A    -11.251771     8A    -11.251205     9A    -11.248583
      10A     -1.370838    11A     -1.209155    12A     -1.165990
      13A     -1.043958    14A     -1.029903    15A     -0.883883
      16A     -0.842585    17A     -0.787696    18A     -0.740362
      19A     -0.695584    20A     -0.672877    21A     -0.640947
      22A     -0.619421    23A     -0.602709    24A     -0.595935
      25A     -0.570262    26A     -0.524858    27A     -0.508749
      28A     -0.507746    29A     -0.436376    30A     -0.417174
      31A     -0.353562    32A     -0.349544

  @DF-RHF Final Energy:  -398.62763022708839

   => Energetics <=

    Nuclear Repulsion Energy =            404.0772507696690354
    One-Electron Energy =               -1342.2801728760121023
    Two-Electron Energy =                 539.5752918792546780
    Total Energy =                       -398.6276302270883889
  Basis Set: (AUG-CC-PVTZ AUX)
    Blend: AUG-CC-PVTZ-RI
    Molecular point group: c1

    Geometry (in Angstrom), charge = 0, multiplicity = 1:

       Center              X                  Y                   Z               Mass
    ------------   -----------------  -----------------  -----------------  -----------------
         O            2.273596575965    -1.142920179926    -0.365323136128    15.994914619570
         N            2.369621575965     1.038216820074     0.309839863872    14.003074004430
         C            0.198024575965    -0.005183179926    -0.010744136128    12.000000000000
         C           -0.475029424035     1.212506820074    -0.177945136128    12.000000000000
         C           -0.531723424035    -1.187546179926     0.161045863872    12.000000000000
         C           -1.870239424035     1.244250820074    -0.155612136128    12.000000000000
         C           -1.924276424035    -1.148708179926     0.191141863872    12.000000000000
         C           -2.596587424035     0.067269820074     0.037348863872    12.000000000000
         C            1.670816175965    -0.108750379926    -0.033333136128    12.000000000000
         H            0.084565575965     2.125432820074    -0.368100136128     1.007825032230
         H            0.010565575965    -2.123590179926     0.262918863872     1.007825032230
         H           -2.391184424035     2.188197820074    -0.296950136128     1.007825032230
         H           -2.488237424035    -2.067489179926     0.332788863872     1.007825032230
         H           -3.683405424035     0.095656820074     0.056931863872     1.007825032230
         H            1.924598575965     1.700592820074     0.930642863872     1.007825032230
         H            3.368156575965     0.915628820074     0.432971863872     1.007825032230

  Basis Set: AUG-CC-PVTZ
    Blend: AUG-CC-PVTZ
  Basis Set: (AUG-CC-PVTZ AUX)
    Blend: AUG-CC-PVTZ-JKFIT
	 Reference Energy          =    -398.6276302270883889 [Eh]
	 Singles Energy            =      -0.0000000000000000 [Eh]
	 Same-Spin Energy          =      -0.4251023876281588 [Eh]
	 Opposite-Spin Energy      =      -1.3032789317942997 [Eh]
	 Correlation Energy        =      -1.7283813194224584 [Eh]
	 Total Energy              =    -400.3560115465108424 [Eh]

	 ================> DF-SCS-MP2 Energies <==================
	-----------------------------------------------------------
	 SCS Same-Spin Scale       =       0.3333333333333333 [-]
	 SCS Opposite-Spin Scale   =       1.2000000000000000 [-]
	 SCS Same-Spin Energy      =      -0.1417007958760529 [Eh]
	 SCS Opposite-Spin Energy  =      -1.5639347181531595 [Eh]
	 SCS Correlation Energy    =      -1.7056355140292125 [Eh]
	 SCS Total Energy          =    -400.3332657411176001 [Eh]
	-----------------------------------------------------------

  Dipole Moment: [D]
     X:    -1.7038      Y:     2.6875      Z:     1.6472     Total:     3.5831

*** Psi4 exiting successfully. Buy a developer a beer!
