                               Psi4 1.3.2 release

  ==> Input File <==

--------------------------------------------------------------------------
#psi4
#
memory 32 gb

molecule  {
0 1
  O        2.2963030    -1.1646890    -0.3757460
  N        2.3923280     1.0164480     0.2994170
  C        0.2207310    -0.0269520    -0.0211670
  C       -0.4523230     1.1907380    -0.1883680
  C       -0.5090170    -1.2093150     0.1506230
  C       -1.8475330     1.2224820    -0.1660350
  C       -1.9015700    -1.1704770     0.1807190
  C       -2.5738810     0.0455010     0.0269260
  C        1.6766819    -0.1173352    -0.0167546
  H        0.1072720     2.1036640    -0.3785230
  H        0.0332720    -2.1453590     0.2524960
  H       -2.3684780     2.1664290    -0.3073730
  H       -2.4655310    -2.0892580     0.3223660
  H       -3.6606990     0.0738880     0.0465090
  H        1.9473050     1.6788240     0.9202200
  H        3.3908630     0.8938600     0.4225490
units angstrom
no_reorient  #important for SAPT in psi4, default
symmetry c1  #important for SAPT in psi4, default
}

set PROPERTIES_ORIGIN ["COM"]
properties('MP2/aug-cc-pvtz', properties = ['dipole'])
--------------------------------------------------------------------------

    Molecular point group: c1
  Charge       = 0
  Multiplicity = 1
  Basis Set: AUG-CC-PVTZ
    Blend: AUG-CC-PVTZ
  Basis Set: (AUG-CC-PVTZ AUX)
    Blend: AUG-CC-PVTZ-JKFIT

    Orbital Energies [Eh]
    ---------------------

    Doubly Occupied:

       1A    -20.518960     2A    -15.590041     3A    -11.361540
       4A    -11.260943     5A    -11.257367     6A    -11.256096
       7A    -11.253125     8A    -11.252108     9A    -11.249413
      10A     -1.355310    11A     -1.210166    12A     -1.167706
      13A     -1.046943    14A     -1.031011    15A     -0.887905
      16A     -0.843912    17A     -0.789246    18A     -0.740835
      19A     -0.698194    20A     -0.674323    21A     -0.641769
      22A     -0.618222    23A     -0.603196    24A     -0.589201
      25A     -0.567779    26A     -0.524913    27A     -0.508536
      28A     -0.508306    29A     -0.432657    30A     -0.414696
      31A     -0.354467    32A     -0.350094

  @DF-RHF Final Energy:  -398.62280883242181

   => Energetics <=

    Nuclear Repulsion Energy =            404.0965295910769441
    One-Electron Energy =               -1342.3207190064524639
    Two-Electron Energy =                 539.6013805829537660
    Total Energy =                       -398.6228088324218106
  Basis Set: (AUG-CC-PVTZ AUX)
    Blend: AUG-CC-PVTZ-RI
    Molecular point group: c1

    Geometry (in Angstrom), charge = 0, multiplicity = 1:

       Center              X                  Y                   Z               Mass
    ------------   -----------------  -----------------  -----------------  -----------------
         O            2.275266000054    -1.144227114151    -0.367999793725    15.994914619570
         N            2.371291000054     1.036909885849     0.307163206275    14.003074004430
         C            0.199694000054    -0.006490114151    -0.013420793725    12.000000000000
         C           -0.473359999946     1.211199885849    -0.180621793725    12.000000000000
         C           -0.530053999946    -1.188853114151     0.158369206275    12.000000000000
         C           -1.868569999946     1.242943885849    -0.158288793725    12.000000000000
         C           -1.922606999946    -1.150015114151     0.188465206275    12.000000000000
         C           -2.594917999946     0.065962885849     0.034672206275    12.000000000000
         C            1.655644900054    -0.096873314151    -0.009008393725    12.000000000000
         H            0.086235000054     2.124125885849    -0.370776793725     1.007825032230
         H            0.012235000054    -2.124897114151     0.260242206275     1.007825032230
         H           -2.389514999946     2.186890885849    -0.299626793725     1.007825032230
         H           -2.486567999946    -2.068796114151     0.330112206275     1.007825032230
         H           -3.681735999946     0.094349885849     0.054255206275     1.007825032230
         H            1.926268000054     1.699285885849     0.927966206275     1.007825032230
         H            3.369826000054     0.914321885849     0.430295206275     1.007825032230

  Basis Set: AUG-CC-PVTZ
    Blend: AUG-CC-PVTZ
  Basis Set: (AUG-CC-PVTZ AUX)
    Blend: AUG-CC-PVTZ-JKFIT
	 Reference Energy          =    -398.6228088324218106 [Eh]
	 Singles Energy            =      -0.0000000000000000 [Eh]
	 Same-Spin Energy          =      -0.4258207746205117 [Eh]
	 Opposite-Spin Energy      =      -1.3047234970519290 [Eh]
	 Correlation Energy        =      -1.7305442716724406 [Eh]
	 Total Energy              =    -400.3533531040942535 [Eh]

	 ================> DF-SCS-MP2 Energies <==================
	-----------------------------------------------------------
	 SCS Same-Spin Scale       =       0.3333333333333333 [-]
	 SCS Opposite-Spin Scale   =       1.2000000000000000 [-]
	 SCS Same-Spin Energy      =      -0.1419402582068372 [Eh]
	 SCS Opposite-Spin Energy  =      -1.5656681964623147 [Eh]
	 SCS Correlation Energy    =      -1.7076084546691519 [Eh]
	 SCS Total Energy          =    -400.3304172870909383 [Eh]
	-----------------------------------------------------------

  Dipole Moment: [D]
     X:    -1.7970      Y:     2.8121      Z:     1.7095     Total:     3.7496

*** Psi4 exiting successfully. Buy a developer a beer!
