                               Psi4 1.3.2 release

  ==> Input File <==

--------------------------------------------------------------------------
#psi4
#
memory 32 gb

molecule  {
0 1
  O        2.2963030    -1.1646890    -0.3757460
  N        2.3923280     1.0164480     0.2994170
  C        0.2207310    -0.0269520    -0.0211670
  C       -0.4736623     1.1790178    -0.1860353
  C       -0.5090170    -1.2093150     0.1506230
  C       -1.8475330     1.2224820    -0.1660350
  C       -1.9015700    -1.1704770     0.1807190
  C       -2.5738810     0.0455010     0.0269260
  C        1.7134710    -0.1319220    -0.0440620
  H        0.1072720     2.1036640    -0.3785230
  H        0.0332720    -2.1453590     0.2524960
  H       -2.3684780     2.1664290    -0.3073730
  H       -2.4655310    -2.0892580     0.3223660
  H       -3.6606990     0.0738880     0.0465090
  H        1.9473050     1.6788240     0.9202200
  H        3.3908630     0.8938600     0.4225490
units angstrom
no_reorient  #important for SAPT in psi4, default
symmetry c1  #important for SAPT in psi4, default
}

set PROPERTIES_ORIGIN ["COM"]
properties('MP2/aug-cc-pvtz', properties = ['dipole'])
--------------------------------------------------------------------------

    Molecular point group: c1
  Charge       = 0
  Multiplicity = 1
  Basis Set: AUG-CC-PVTZ
    Blend: AUG-CC-PVTZ
  Basis Set: (AUG-CC-PVTZ AUX)
    Blend: AUG-CC-PVTZ-JKFIT

    Orbital Energies [Eh]
    ---------------------

    Doubly Occupied:

       1A    -20.525387     2A    -15.588266     3A    -11.361476
       4A    -11.257120     5A    -11.254900     6A    -11.254405
       7A    -11.250240     8A    -11.247641     9A    -11.247068
      10A     -1.378209    11A     -1.213657    12A     -1.166591
      13A     -1.040526    14A     -1.030354    15A     -0.880911
      16A     -0.839046    17A     -0.789816    18A     -0.742175
      19A     -0.695019    20A     -0.672441    21A     -0.638977
      22A     -0.620281    23A     -0.602783    24A     -0.595938
      25A     -0.572464    26A     -0.525137    27A     -0.510388
      28A     -0.502934    29A     -0.437439    30A     -0.419890
      31A     -0.352698    32A     -0.349366

  @DF-RHF Final Energy:  -398.62881761972017

   => Energetics <=

    Nuclear Repulsion Energy =            404.2335209934115028
    One-Electron Energy =               -1342.5975899738127737
    Two-Electron Energy =                 539.7352513606811044
    Total Energy =                       -398.6288176197201665
  Basis Set: (AUG-CC-PVTZ AUX)
    Blend: AUG-CC-PVTZ-RI
    Molecular point group: c1

    Geometry (in Angstrom), charge = 0, multiplicity = 1:

       Center              X                  Y                   Z               Mass
    ------------   -----------------  -----------------  -----------------  -----------------
         O            2.273734456336    -1.141619292652    -0.365524043560    15.994914619570
         N            2.369759456336     1.039517707348     0.309638956440    14.003074004430
         C            0.198162456336    -0.003882292652    -0.010945043560    12.000000000000
         C           -0.496230843664     1.202087507348    -0.175813343560    12.000000000000
         C           -0.531585543664    -1.186245292652     0.160844956440    12.000000000000
         C           -1.870101543664     1.245551707348    -0.155813043560    12.000000000000
         C           -1.924138543664    -1.147407292652     0.190940956440    12.000000000000
         C           -2.596449543664     0.068570707348     0.037147956440    12.000000000000
         C            1.690902456336    -0.108852292652    -0.033840043560    12.000000000000
         H            0.084703456336     2.126733707348    -0.368301043560     1.007825032230
         H            0.010703456336    -2.122289292652     0.262717956440     1.007825032230
         H           -2.391046543664     2.189498707348    -0.297151043560     1.007825032230
         H           -2.488099543664    -2.066188292652     0.332587956440     1.007825032230
         H           -3.683267543664     0.096957707348     0.056730956440     1.007825032230
         H            1.924736456336     1.701893707348     0.930441956440     1.007825032230
         H            3.368294456336     0.916929707348     0.432770956440     1.007825032230

  Basis Set: AUG-CC-PVTZ
    Blend: AUG-CC-PVTZ
  Basis Set: (AUG-CC-PVTZ AUX)
    Blend: AUG-CC-PVTZ-JKFIT
	 Reference Energy          =    -398.6288176197201665 [Eh]
	 Singles Energy            =      -0.0000000000000000 [Eh]
	 Same-Spin Energy          =      -0.4247783110977890 [Eh]
	 Opposite-Spin Energy      =      -1.3024374675518260 [Eh]
	 Correlation Energy        =      -1.7272157786496150 [Eh]
	 Total Energy              =    -400.3560333983697888 [Eh]

	 ================> DF-SCS-MP2 Energies <==================
	-----------------------------------------------------------
	 SCS Same-Spin Scale       =       0.3333333333333333 [-]
	 SCS Opposite-Spin Scale   =       1.2000000000000000 [-]
	 SCS Same-Spin Energy      =      -0.1415927703659297 [Eh]
	 SCS Opposite-Spin Energy  =      -1.5629249610621911 [Eh]
	 SCS Correlation Energy    =      -1.7045177314281208 [Eh]
	 SCS Total Energy          =    -400.3333353511482642 [Eh]
	-----------------------------------------------------------

  Dipole Moment: [D]
     X:    -1.5458      Y:     2.6874      Z:     1.6533     Total:     3.5136

*** Psi4 exiting successfully. Buy a developer a beer!
