                               Psi4 1.3.2 release

  ==> Input File <==

--------------------------------------------------------------------------
#psi4
#
memory 32 gb

molecule  {
0 1
  O        2.2963030    -1.1646890    -0.3757460
  N        2.3923280     1.0164480     0.2994170
  C        0.2207310    -0.0269520    -0.0211670
  C       -0.4523230     1.1907380    -0.1883680
  C       -0.5090170    -1.2093150     0.1506230
  C       -1.8475330     1.2224820    -0.1660350
  C       -1.9015700    -1.1704770     0.1807190
  C       -2.5738810     0.0455010     0.0269260
  C        1.6407647    -0.1013672     0.0109380
  H        0.1072720     2.1036640    -0.3785230
  H        0.0332720    -2.1453590     0.2524960
  H       -2.3684780     2.1664290    -0.3073730
  H       -2.4655310    -2.0892580     0.3223660
  H       -3.6606990     0.0738880     0.0465090
  H        1.9473050     1.6788240     0.9202200
  H        3.3908630     0.8938600     0.4225490
units angstrom
no_reorient  #important for SAPT in psi4, default
symmetry c1  #important for SAPT in psi4, default
}

set PROPERTIES_ORIGIN ["COM"]
properties('MP2/aug-cc-pvtz', properties = ['dipole'])
--------------------------------------------------------------------------

    Molecular point group: c1
  Charge       = 0
  Multiplicity = 1
  Basis Set: AUG-CC-PVTZ
    Blend: AUG-CC-PVTZ
  Basis Set: (AUG-CC-PVTZ AUX)
    Blend: AUG-CC-PVTZ-JKFIT

    Orbital Energies [Eh]
    ---------------------

    Doubly Occupied:

       1A    -20.512591     2A    -15.592162     3A    -11.362088
       4A    -11.264061     5A    -11.260582     6A    -11.256779
       7A    -11.255488     8A    -11.254024     9A    -11.251252
      10A     -1.335152    11A     -1.205240    12A     -1.170953
      13A     -1.053433    14A     -1.033426    15A     -0.895593
      16A     -0.846774    17A     -0.790135    18A     -0.739411
      19A     -0.700809    20A     -0.677860    21A     -0.644296
      22A     -0.618815    23A     -0.605109    24A     -0.577117
      25A     -0.564893    26A     -0.526595    27A     -0.510038
      28A     -0.507053    29A     -0.426649    30A     -0.408877
      31A     -0.356340    32A     -0.351432

  @DF-RHF Final Energy:  -398.61041772500477

   => Energetics <=

    Nuclear Repulsion Energy =            404.2034018469007037
    One-Electron Energy =               -1342.5175858494840213
    Two-Electron Energy =                 539.7037662775785520
    Total Energy =                       -398.6104177250047087
  Basis Set: (AUG-CC-PVTZ AUX)
    Blend: AUG-CC-PVTZ-RI
    Molecular point group: c1

    Geometry (in Angstrom), charge = 0, multiplicity = 1:

       Center              X                  Y                   Z               Mass
    ------------   -----------------  -----------------  -----------------  -----------------
         O            2.278826483815    -1.145810027204    -0.370744970203    15.994914619570
         N            2.374851483815     1.035326972796     0.304418029797    14.003074004430
         C            0.203254483815    -0.008073027204    -0.016165970203    12.000000000000
         C           -0.469799516185     1.209616972796    -0.183366970203    12.000000000000
         C           -0.526493516185    -1.190436027204     0.155624029797    12.000000000000
         C           -1.865009516185     1.241360972796    -0.161033970203    12.000000000000
         C           -1.919046516185    -1.151598027204     0.185720029797    12.000000000000
         C           -2.591357516185     0.064379972796     0.031927029797    12.000000000000
         C            1.623288183815    -0.082488227204     0.015939029797    12.000000000000
         H            0.089795483815     2.122542972796    -0.373521970203     1.007825032230
         H            0.015795483815    -2.126480027204     0.257497029797     1.007825032230
         H           -2.385954516185     2.185307972796    -0.302371970203     1.007825032230
         H           -2.483007516185    -2.070379027204     0.327367029797     1.007825032230
         H           -3.678175516185     0.092766972796     0.051510029797     1.007825032230
         H            1.929828483815     1.697702972796     0.925221029797     1.007825032230
         H            3.373386483815     0.912738972796     0.427550029797     1.007825032230

  Basis Set: AUG-CC-PVTZ
    Blend: AUG-CC-PVTZ
  Basis Set: (AUG-CC-PVTZ AUX)
    Blend: AUG-CC-PVTZ-JKFIT
	 Reference Energy          =    -398.6104177250047655 [Eh]
	 Singles Energy            =      -0.0000000000000000 [Eh]
	 Same-Spin Energy          =      -0.4270635632315727 [Eh]
	 Opposite-Spin Energy      =      -1.3072735863636038 [Eh]
	 Correlation Energy        =      -1.7343371495951765 [Eh]
	 Total Energy              =    -400.3447548745999143 [Eh]

	 ================> DF-SCS-MP2 Energies <==================
	-----------------------------------------------------------
	 SCS Same-Spin Scale       =       0.3333333333333333 [-]
	 SCS Opposite-Spin Scale   =       1.2000000000000000 [-]
	 SCS Same-Spin Energy      =      -0.1423545210771909 [Eh]
	 SCS Opposite-Spin Energy  =      -1.5687283036363244 [Eh]
	 SCS Correlation Energy    =      -1.7110828247135152 [Eh]
	 SCS Total Energy          =    -400.3215005497182801 [Eh]
	-----------------------------------------------------------

  Dipole Moment: [D]
     X:    -2.0210      Y:     2.9241      Z:     1.7611     Total:     3.9669

*** Psi4 exiting successfully. Buy a developer a beer!
