                               Psi4 1.3.2 release

  ==> Input File <==

--------------------------------------------------------------------------
#psi4
#
memory 32 gb

molecule  {
0 1
  O        2.2963030    -1.1646890    -0.3757460
  N        2.3923280     1.0164480     0.2994170
  C        0.2207310    -0.0269520    -0.0211670
  C       -0.4523230     1.1907380    -0.1883680
  C       -0.5090170    -1.2093150     0.1506230
  C       -1.8475330     1.2224820    -0.1660350
  C       -1.9015700    -1.1704770     0.1807190
  C       -2.5738810     0.0455010     0.0269260
  C        1.7510872    -0.1451096    -0.0709509
  H        0.1072720     2.1036640    -0.3785230
  H        0.0332720    -2.1453590     0.2524960
  H       -2.3684780     2.1664290    -0.3073730
  H       -2.4655310    -2.0892580     0.3223660
  H       -3.6606990     0.0738880     0.0465090
  H        1.9473050     1.6788240     0.9202200
  H        3.3908630     0.8938600     0.4225490
units angstrom
no_reorient  #important for SAPT in psi4, default
symmetry c1  #important for SAPT in psi4, default
}

set PROPERTIES_ORIGIN ["COM"]
properties('MP2/aug-cc-pvtz', properties = ['dipole'])
--------------------------------------------------------------------------

    Molecular point group: c1
  Charge       = 0
  Multiplicity = 1
  Basis Set: AUG-CC-PVTZ
    Blend: AUG-CC-PVTZ
  Basis Set: (AUG-CC-PVTZ AUX)
    Blend: AUG-CC-PVTZ-JKFIT

    Orbital Energies [Eh]
    ---------------------

    Doubly Occupied:

       1A    -20.531264     2A    -15.586618     3A    -11.360201
       4A    -11.254969     5A    -11.253798     6A    -11.251176
       7A    -11.248060     8A    -11.247178     9A    -11.245516
      10A     -1.402517    11A     -1.216148    12A     -1.161296
      13A     -1.034670    14A     -1.026051    15A     -0.872171
      16A     -0.838115    17A     -0.788403    18A     -0.743435
      19A     -0.693073    20A     -0.672126    21A     -0.638854
      22A     -0.625205    23A     -0.602982    24A     -0.598516
      25A     -0.578451    26A     -0.524204    27A     -0.508376
      28A     -0.504401    29A     -0.439136    30A     -0.422827
      31A     -0.349741    32A     -0.346329

  @DF-RHF Final Energy:  -398.62987240526729

   => Energetics <=

    Nuclear Repulsion Energy =            403.9211052477081125
    One-Electron Energy =               -1341.9703479872687240
    Two-Electron Energy =                 539.4193703342933759
    Total Energy =                       -398.6298724052672924
  Basis Set: (AUG-CC-PVTZ AUX)
    Blend: AUG-CC-PVTZ-RI
    Molecular point group: c1

    Geometry (in Angstrom), charge = 0, multiplicity = 1:

       Center              X                  Y                   Z               Mass
    ------------   -----------------  -----------------  -----------------  -----------------
         O            2.267890178374    -1.141473828811    -0.362627296813    15.994914619570
         N            2.363915178374     1.039663171189     0.312535703187    14.003074004430
         C            0.192318178374    -0.003736828811    -0.008048296813    12.000000000000
         C           -0.480735821626     1.213953171189    -0.175249296813    12.000000000000
         C           -0.537429821626    -1.186099828811     0.163741703187    12.000000000000
         C           -1.875945821626     1.245697171189    -0.152916296813    12.000000000000
         C           -1.929982821626    -1.147261828811     0.193837703187    12.000000000000
         C           -2.602293821626     0.068716171189     0.040044703187    12.000000000000
         C            1.722674378374    -0.121894428811    -0.057832196813    12.000000000000
         H            0.078859178374     2.126879171189    -0.365404296813     1.007825032230
         H            0.004859178374    -2.122143828811     0.265614703187     1.007825032230
         H           -2.396890821626     2.189644171189    -0.294254296813     1.007825032230
         H           -2.493943821626    -2.066042828811     0.335484703187     1.007825032230
         H           -3.689111821626     0.097103171189     0.059627703187     1.007825032230
         H            1.918892178374     1.702039171189     0.933338703187     1.007825032230
         H            3.362450178374     0.917075171189     0.435667703187     1.007825032230

  Basis Set: AUG-CC-PVTZ
    Blend: AUG-CC-PVTZ
  Basis Set: (AUG-CC-PVTZ AUX)
    Blend: AUG-CC-PVTZ-JKFIT
	 Reference Energy          =    -398.6298724052672924 [Eh]
	 Singles Energy            =      -0.0000000000000000 [Eh]
	 Same-Spin Energy          =      -0.4238858823986927 [Eh]
	 Opposite-Spin Energy      =      -1.3006427469955593 [Eh]
	 Correlation Energy        =      -1.7245286293942521 [Eh]
	 Total Energy              =    -400.3544010346615210 [Eh]

	 ================> DF-SCS-MP2 Energies <==================
	-----------------------------------------------------------
	 SCS Same-Spin Scale       =       0.3333333333333333 [-]
	 SCS Opposite-Spin Scale   =       1.2000000000000000 [-]
	 SCS Same-Spin Energy      =      -0.1412952941328976 [Eh]
	 SCS Opposite-Spin Energy  =      -1.5607712963946712 [Eh]
	 SCS Correlation Energy    =      -1.7020665905275687 [Eh]
	 SCS Total Energy          =    -400.3319389957948715 [Eh]
	-----------------------------------------------------------

  Dipole Moment: [D]
     X:    -1.2824      Y:     2.5678      Z:     1.5854     Total:     3.2789

*** Psi4 exiting successfully. Buy a developer a beer!
