                               Psi4 1.3.2 release

  ==> Input File <==

--------------------------------------------------------------------------
#psi4
#
memory 32 gb

molecule  {
0 1
  O        2.2963030    -1.1646890    -0.3757460
  N        2.4742855     0.9681168     0.2855654
  C        0.2207310    -0.0269520    -0.0211670
  C       -0.4523230     1.1907380    -0.1883680
  C       -0.5090170    -1.2093150     0.1506230
  C       -1.8475330     1.2224820    -0.1660350
  C       -1.9015700    -1.1704770     0.1807190
  C       -2.5738810     0.0455010     0.0269260
  C        1.7134710    -0.1319220    -0.0440620
  H        0.1072720     2.1036640    -0.3785230
  H        0.0332720    -2.1453590     0.2524960
  H       -2.3684780     2.1664290    -0.3073730
  H       -2.4655310    -2.0892580     0.3223660
  H       -3.6606990     0.0738880     0.0465090
  H        1.9473050     1.6788240     0.9202200
  H        3.3908630     0.8938600     0.4225490
units angstrom
no_reorient  #important for SAPT in psi4, default
symmetry c1  #important for SAPT in psi4, default
}

set PROPERTIES_ORIGIN ["COM"]
properties('MP2/aug-cc-pvtz', properties = ['dipole'])
--------------------------------------------------------------------------

    Molecular point group: c1
  Charge       = 0
  Multiplicity = 1
  Basis Set: AUG-CC-PVTZ
    Blend: AUG-CC-PVTZ
  Basis Set: (AUG-CC-PVTZ AUX)
    Blend: AUG-CC-PVTZ-JKFIT

    Orbital Energies [Eh]
    ---------------------

    Doubly Occupied:

       1A    -20.520091     2A    -15.585081     3A    -11.359653
       4A    -11.260255     5A    -11.259036     6A    -11.255928
       7A    -11.252292     8A    -11.251636     9A    -11.249137
      10A     -1.377435    11A     -1.209360    12A     -1.166990
      13A     -1.043636    14A     -1.030317    15A     -0.884957
      16A     -0.843272    17A     -0.794430    18A     -0.729941
      19A     -0.700610    20A     -0.675858    21A     -0.641934
      22A     -0.622077    23A     -0.602803    24A     -0.592074
      25A     -0.573031    26A     -0.525247    27A     -0.510191
      28A     -0.508107    29A     -0.433367    30A     -0.415759
      31A     -0.354058    32A     -0.349872

  @DF-RHF Final Energy:  -398.61635470324649

   => Energetics <=

    Nuclear Repulsion Energy =            403.5885417591966871
    One-Electron Energy =               -1341.2529227607478788
    Two-Electron Energy =                 539.0480262983047623
    Total Energy =                       -398.6163547032464294
  Basis Set: (AUG-CC-PVTZ AUX)
    Blend: AUG-CC-PVTZ-RI
    Molecular point group: c1

    Geometry (in Angstrom), charge = 0, multiplicity = 1:

       Center              X                  Y                   Z               Mass
    ------------   -----------------  -----------------  -----------------  -----------------
         O            2.262138450651    -1.137190290345    -0.363690484600    15.994914619570
         N            2.440120950651     0.995615509655     0.297620915400    14.003074004430
         C            0.186566450651     0.000546709655    -0.009111484600    12.000000000000
         C           -0.486487549349     1.218236709655    -0.176312484600    12.000000000000
         C           -0.543181549349    -1.181816290345     0.162678515400    12.000000000000
         C           -1.881697549349     1.249980709655    -0.153979484600    12.000000000000
         C           -1.935734549349    -1.142978290345     0.192774515400    12.000000000000
         C           -2.608045549349     0.072999709655     0.038981515400    12.000000000000
         C            1.679306450651    -0.104423290345    -0.032006484600    12.000000000000
         H            0.073107450651     2.131162709655    -0.366467484600     1.007825032230
         H           -0.000892549349    -2.117860290345     0.264551515400     1.007825032230
         H           -2.402642549349     2.193927709655    -0.295317484600     1.007825032230
         H           -2.499695549349    -2.061759290345     0.334421515400     1.007825032230
         H           -3.694863549349     0.101386709655     0.058564515400     1.007825032230
         H            1.913140450651     1.706322709655     0.932275515400     1.007825032230
         H            3.356698450651     0.921358709655     0.434604515400     1.007825032230

  Basis Set: AUG-CC-PVTZ
    Blend: AUG-CC-PVTZ
  Basis Set: (AUG-CC-PVTZ AUX)
    Blend: AUG-CC-PVTZ-JKFIT
	 Reference Energy          =    -398.6163547032464862 [Eh]
	 Singles Energy            =      -0.0000000000000000 [Eh]
	 Same-Spin Energy          =      -0.4245014829845235 [Eh]
	 Opposite-Spin Energy      =      -1.3024253992973311 [Eh]
	 Correlation Energy        =      -1.7269268822818546 [Eh]
	 Total Energy              =    -400.3432815855283593 [Eh]

	 ================> DF-SCS-MP2 Energies <==================
	-----------------------------------------------------------
	 SCS Same-Spin Scale       =       0.3333333333333333 [-]
	 SCS Opposite-Spin Scale   =       1.2000000000000000 [-]
	 SCS Same-Spin Energy      =      -0.1415004943281745 [Eh]
	 SCS Opposite-Spin Energy  =      -1.5629104791567974 [Eh]
	 SCS Correlation Energy    =      -1.7044109734849719 [Eh]
	 SCS Total Energy          =    -400.3207656767314688 [Eh]
	-----------------------------------------------------------

  Dipole Moment: [D]
     X:    -1.7550      Y:     2.7147      Z:     1.6370     Total:     3.6235

*** Psi4 exiting successfully. Buy a developer a beer!
