                               Psi4 1.3.2 release

  ==> Input File <==

--------------------------------------------------------------------------
#psi4
#
memory 32 gb

molecule  {
0 1
  O        2.2963030    -1.1646890    -0.3757460
  N        2.3923280     1.0164480     0.2994170
  C        0.2207310    -0.0269520    -0.0211670
  C       -0.5770583     1.1149819    -0.1736335
  C       -0.5090170    -1.2093150     0.1506230
  C       -1.8475330     1.2224820    -0.1660350
  C       -1.9015700    -1.1704770     0.1807190
  C       -2.5738810     0.0455010     0.0269260
  C        1.7134710    -0.1319220    -0.0440620
  H        0.1072720     2.1036640    -0.3785230
  H        0.0332720    -2.1453590     0.2524960
  H       -2.3684780     2.1664290    -0.3073730
  H       -2.4655310    -2.0892580     0.3223660
  H       -3.6606990     0.0738880     0.0465090
  H        1.9473050     1.6788240     0.9202200
  H        3.3908630     0.8938600     0.4225490
units angstrom
no_reorient  #important for SAPT in psi4, default
symmetry c1  #important for SAPT in psi4, default
}

set PROPERTIES_ORIGIN ["COM"]
properties('MP2/aug-cc-pvtz', properties = ['dipole'])
--------------------------------------------------------------------------

    Molecular point group: c1
  Charge       = 0
  Multiplicity = 1
  Basis Set: AUG-CC-PVTZ
    Blend: AUG-CC-PVTZ
  Basis Set: (AUG-CC-PVTZ AUX)
    Blend: AUG-CC-PVTZ-JKFIT

    Orbital Energies [Eh]
    ---------------------

    Doubly Occupied:

       1A    -20.526641     2A    -15.588573     3A    -11.364788
       4A    -11.255977     5A    -11.254498     6A    -11.253354
       7A    -11.251359     8A    -11.245256     9A    -11.235082
      10A     -1.379301    11A     -1.213843    12A     -1.179801
      13A     -1.048807    14A     -1.032623    15A     -0.885464
      16A     -0.830257    17A     -0.796683    18A     -0.742738
      19A     -0.693872    20A     -0.677400    21A     -0.641881
      22A     -0.617189    23A     -0.606088    24A     -0.588818
      25A     -0.570800    26A     -0.530674    27A     -0.520361
      28A     -0.476272    29A     -0.440159    30A     -0.420292
      31A     -0.363922    32A     -0.347260

  @DF-RHF Final Energy:  -398.60119847711888

   => Energetics <=

    Nuclear Repulsion Energy =            405.5451739194504057
    One-Electron Energy =               -1345.1326807921504951
    Two-Electron Energy =                 540.9863083955810907
    Total Energy =                       -398.6011984771189418
  Basis Set: (AUG-CC-PVTZ AUX)
    Blend: AUG-CC-PVTZ-RI
    Molecular point group: c1

    Geometry (in Angstrom), charge = 0, multiplicity = 1:

       Center              X                  Y                   Z               Mass
    ------------   -----------------  -----------------  -----------------  -----------------
         O            2.283984135571    -1.135271392980    -0.366753438043    15.994914619570
         N            2.380009135571     1.045865607020     0.308409561957    14.003074004430
         C            0.208412135571     0.002465607020    -0.012174438043    12.000000000000
         C           -0.589377164429     1.144399507020    -0.164640938043    12.000000000000
         C           -0.521335864429    -1.179897392980     0.159615561957    12.000000000000
         C           -1.859851864429     1.251899607020    -0.157042438043    12.000000000000
         C           -1.913888864429    -1.141059392980     0.189711561957    12.000000000000
         C           -2.586199864429     0.074918607020     0.035918561957    12.000000000000
         C            1.701152135571    -0.102504392980    -0.035069438043    12.000000000000
         H            0.094953135571     2.133081607020    -0.369530438043     1.007825032230
         H            0.020953135571    -2.115941392980     0.261488561957     1.007825032230
         H           -2.380796864429     2.195846607020    -0.298380438043     1.007825032230
         H           -2.477849864429    -2.059840392980     0.331358561957     1.007825032230
         H           -3.673017864429     0.103305607020     0.055501561957     1.007825032230
         H            1.934986135571     1.708241607020     0.929212561957     1.007825032230
         H            3.378544135571     0.923277607020     0.431541561957     1.007825032230

  Basis Set: AUG-CC-PVTZ
    Blend: AUG-CC-PVTZ
  Basis Set: (AUG-CC-PVTZ AUX)
    Blend: AUG-CC-PVTZ-JKFIT
	 Reference Energy          =    -398.6011984771188850 [Eh]
	 Singles Energy            =      -0.0000000000000000 [Eh]
	 Same-Spin Energy          =      -0.4251904207291528 [Eh]
	 Opposite-Spin Energy      =      -1.3033892053292981 [Eh]
	 Correlation Energy        =      -1.7285796260584509 [Eh]
	 Total Energy              =    -400.3297781031773184 [Eh]

	 ================> DF-SCS-MP2 Energies <==================
	-----------------------------------------------------------
	 SCS Same-Spin Scale       =       0.3333333333333333 [-]
	 SCS Opposite-Spin Scale   =       1.2000000000000000 [-]
	 SCS Same-Spin Energy      =      -0.1417301402430509 [Eh]
	 SCS Opposite-Spin Energy  =      -1.5640670463951578 [Eh]
	 SCS Correlation Energy    =      -1.7057971866382087 [Eh]
	 SCS Total Energy          =    -400.3069956637571067 [Eh]
	-----------------------------------------------------------

  Dipole Moment: [D]
     X:    -1.5449      Y:     2.6160      Z:     1.6743     Total:     3.4689

*** Psi4 exiting successfully. Buy a developer a beer!
