                               Psi4 1.3.2 release

  ==> Input File <==

--------------------------------------------------------------------------
#psi4
#
memory 32 gb

molecule  {
0 1
  O        2.3151446    -1.1549009    -0.3724186
  N        2.3923280     1.0164480     0.2994170
  C        0.2207310    -0.0269520    -0.0211670
  C       -0.4523230     1.1907380    -0.1883680
  C       -0.5090170    -1.2093150     0.1506230
  C       -1.8475330     1.2224820    -0.1660350
  C       -1.9015700    -1.1704770     0.1807190
  C       -2.5738810     0.0455010     0.0269260
  C        1.7134710    -0.1319220    -0.0440620
  H        0.1072720     2.1036640    -0.3785230
  H        0.0332720    -2.1453590     0.2524960
  H       -2.3684780     2.1664290    -0.3073730
  H       -2.4655310    -2.0892580     0.3223660
  H       -3.6606990     0.0738880     0.0465090
  H        1.9473050     1.6788240     0.9202200
  H        3.3908630     0.8938600     0.4225490
units angstrom
no_reorient  #important for SAPT in psi4, default
symmetry c1  #important for SAPT in psi4, default
}

set PROPERTIES_ORIGIN ["COM"]
properties('MP2/aug-cc-pvtz', properties = ['dipole'])
--------------------------------------------------------------------------

    Molecular point group: c1
  Charge       = 0
  Multiplicity = 1
  Basis Set: AUG-CC-PVTZ
    Blend: AUG-CC-PVTZ
  Basis Set: (AUG-CC-PVTZ AUX)
    Blend: AUG-CC-PVTZ-JKFIT

    Orbital Energies [Eh]
    ---------------------

    Doubly Occupied:

       1A    -20.524733     2A    -15.586840     3A    -11.360592
       4A    -11.258479     5A    -11.256307     6A    -11.254804
       7A    -11.250831     8A    -11.250621     9A    -11.248040
      10A     -1.377961    11A     -1.212199    12A     -1.165017
      13A     -1.041332    14A     -1.029115    15A     -0.880431
      16A     -0.841559    17A     -0.788486    18A     -0.741881
      19A     -0.695439    20A     -0.671892    21A     -0.640232
      22A     -0.620644    23A     -0.602211    24A     -0.597077
      25A     -0.572337    26A     -0.524567    27A     -0.509234
      28A     -0.507160    29A     -0.436701    30A     -0.418590
      31A     -0.352829    32A     -0.349002

  @DF-RHF Final Energy:  -398.62939660577581

   => Energetics <=

    Nuclear Repulsion Energy =            403.8869906859479784
    One-Electron Energy =               -1341.8984869728374179
    Two-Electron Energy =                 539.3820996811136865
    Total Energy =                       -398.6293966057758098
  Basis Set: (AUG-CC-PVTZ AUX)
    Blend: AUG-CC-PVTZ-RI
    Molecular point group: c1

    Geometry (in Angstrom), charge = 0, multiplicity = 1:

       Center              X                  Y                   Z               Mass
    ------------   -----------------  -----------------  -----------------  -----------------
         O            2.287971110810    -1.134286338775    -0.362405057463    15.994914619570
         N            2.365154510810     1.037062561225     0.309430542537    14.003074004430
         C            0.193557510810    -0.006337438775    -0.011153457463    12.000000000000
         C           -0.479496489190     1.211352561225    -0.178354457463    12.000000000000
         C           -0.536190489190    -1.188700438775     0.160636542537    12.000000000000
         C           -1.874706489190     1.243096561225    -0.156021457463    12.000000000000
         C           -1.928743489190    -1.149862438775     0.190732542537    12.000000000000
         C           -2.601054489190     0.066115561225     0.036939542537    12.000000000000
         C            1.686297510810    -0.111307438775    -0.034048457463    12.000000000000
         H            0.080098510810     2.124278561225    -0.368509457463     1.007825032230
         H            0.006098510810    -2.124744438775     0.262509542537     1.007825032230
         H           -2.395651489190     2.187043561225    -0.297359457463     1.007825032230
         H           -2.492704489190    -2.068643438775     0.332379542537     1.007825032230
         H           -3.687872489190     0.094502561225     0.056522542537     1.007825032230
         H            1.920131510810     1.699438561225     0.930233542537     1.007825032230
         H            3.363689510810     0.914474561225     0.432562542537     1.007825032230

  Basis Set: AUG-CC-PVTZ
    Blend: AUG-CC-PVTZ
  Basis Set: (AUG-CC-PVTZ AUX)
    Blend: AUG-CC-PVTZ-JKFIT
	 Reference Energy          =    -398.6293966057758098 [Eh]
	 Singles Energy            =      -0.0000000000000000 [Eh]
	 Same-Spin Energy          =      -0.4247228456713553 [Eh]
	 Opposite-Spin Energy      =      -1.3024651335738613 [Eh]
	 Correlation Energy        =      -1.7271879792452167 [Eh]
	 Total Energy              =    -400.3565845850210394 [Eh]

	 ================> DF-SCS-MP2 Energies <==================
	-----------------------------------------------------------
	 SCS Same-Spin Scale       =       0.3333333333333333 [-]
	 SCS Opposite-Spin Scale   =       1.2000000000000000 [-]
	 SCS Same-Spin Energy      =      -0.1415742818904518 [Eh]
	 SCS Opposite-Spin Energy  =      -1.5629581602886335 [Eh]
	 SCS Correlation Energy    =      -1.7045324421790853 [Eh]
	 SCS Total Energy          =    -400.3339290479548822 [Eh]
	-----------------------------------------------------------

  Dipole Moment: [D]
     X:    -1.6255      Y:     2.6743      Z:     1.6429     Total:     3.5346

*** Psi4 exiting successfully. Buy a developer a beer!
