                               Psi4 1.3.2 release

  ==> Input File <==

--------------------------------------------------------------------------
#psi4
#
memory 32 gb

molecule  {
0 1
  O        2.2963030    -1.1646890    -0.3757460
  N        2.3923280     1.0164480     0.2994170
  C        0.2207310    -0.0269520    -0.0211670
  C       -0.4523230     1.1907380    -0.1883680
  C       -0.5090170    -1.2093150     0.1506230
  C       -1.8475330     1.2224820    -0.1660350
  C       -1.9015700    -1.1704770     0.1807190
  C       -2.5738810     0.0455010     0.0269260
  C        1.6137290    -0.1249081    -0.0425322
  H        0.1072720     2.1036640    -0.3785230
  H        0.0332720    -2.1453590     0.2524960
  H       -2.3684780     2.1664290    -0.3073730
  H       -2.4655310    -2.0892580     0.3223660
  H       -3.6606990     0.0738880     0.0465090
  H        1.9473050     1.6788240     0.9202200
  H        3.3908630     0.8938600     0.4225490
units angstrom
no_reorient  #important for SAPT in psi4, default
symmetry c1  #important for SAPT in psi4, default
}

set PROPERTIES_ORIGIN ["COM"]
properties('MP2/aug-cc-pvtz', properties = ['dipole'])
--------------------------------------------------------------------------

    Molecular point group: c1
  Charge       = 0
  Multiplicity = 1
  Basis Set: AUG-CC-PVTZ
    Blend: AUG-CC-PVTZ
  Basis Set: (AUG-CC-PVTZ AUX)
    Blend: AUG-CC-PVTZ-JKFIT

    Orbital Energies [Eh]
    ---------------------

    Doubly Occupied:

       1A    -20.517833     2A    -15.582417     3A    -11.362499
       4A    -11.266707     5A    -11.263254     6A    -11.259174
       7A    -11.255614     8A    -11.254651     9A    -11.252892
      10A     -1.342479    11A     -1.193412    12A     -1.170360
      13A     -1.058443    14A     -1.035485    15A     -0.900135
      16A     -0.849069    17A     -0.785941    18A     -0.732389
      19A     -0.693809    20A     -0.677997    21A     -0.646290
      22A     -0.618846    23A     -0.607012    24A     -0.585458
      25A     -0.563663    26A     -0.529811    27A     -0.512146
      28A     -0.506073    29A     -0.431120    30A     -0.406327
      31A     -0.358488    32A     -0.354219

  @DF-RHF Final Energy:  -398.60907240288651

   => Energetics <=

    Nuclear Repulsion Energy =            404.4281704429408819
    One-Electron Energy =               -1342.9264592701365473
    Two-Electron Energy =                 539.8892164243090974
    Total Energy =                       -398.6090724028865679
  Basis Set: (AUG-CC-PVTZ AUX)
    Blend: AUG-CC-PVTZ-RI
    Molecular point group: c1

    Geometry (in Angstrom), charge = 0, multiplicity = 1:

       Center              X                  Y                   Z               Mass
    ------------   -----------------  -----------------  -----------------  -----------------
         O            2.281506541582    -1.143476410101    -0.365444451821    15.994914619570
         N            2.377531541582     1.037660589899     0.309718548179    14.003074004430
         C            0.205934541582    -0.005739410101    -0.010865451821    12.000000000000
         C           -0.467119458418     1.211950589899    -0.178066451821    12.000000000000
         C           -0.523813458418    -1.188102410101     0.160924548179    12.000000000000
         C           -1.862329458418     1.243694589899    -0.155733451821    12.000000000000
         C           -1.916366458418    -1.149264410101     0.191020548179    12.000000000000
         C           -2.588677458418     0.066713589899     0.037227548179    12.000000000000
         C            1.598932541582    -0.103695510101    -0.032230651821    12.000000000000
         H            0.092475541582     2.124876589899    -0.368221451821     1.007825032230
         H            0.018475541582    -2.124146410101     0.262797548179     1.007825032230
         H           -2.383274458418     2.187641589899    -0.297071451821     1.007825032230
         H           -2.480327458418    -2.068045410101     0.332667548179     1.007825032230
         H           -3.675495458418     0.095100589899     0.056810548179     1.007825032230
         H            1.932508541582     1.700036589899     0.930521548179     1.007825032230
         H            3.376066541582     0.915072589899     0.432850548179     1.007825032230

  Basis Set: AUG-CC-PVTZ
    Blend: AUG-CC-PVTZ
  Basis Set: (AUG-CC-PVTZ AUX)
    Blend: AUG-CC-PVTZ-JKFIT
	 Reference Energy          =    -398.6090724028865111 [Eh]
	 Singles Energy            =      -0.0000000000000000 [Eh]
	 Same-Spin Energy          =      -0.4269314344020457 [Eh]
	 Opposite-Spin Energy      =      -1.3071932562089648 [Eh]
	 Correlation Energy        =      -1.7341246906110106 [Eh]
	 Total Energy              =    -400.3431970934975084 [Eh]

	 ================> DF-SCS-MP2 Energies <==================
	-----------------------------------------------------------
	 SCS Same-Spin Scale       =       0.3333333333333333 [-]
	 SCS Opposite-Spin Scale   =       1.2000000000000000 [-]
	 SCS Same-Spin Energy      =      -0.1423104781340152 [Eh]
	 SCS Opposite-Spin Energy  =      -1.5686319074507578 [Eh]
	 SCS Correlation Energy    =      -1.7109423855847730 [Eh]
	 SCS Total Energy          =    -400.3200147884712692 [Eh]
	-----------------------------------------------------------

  Dipole Moment: [D]
     X:    -2.3128      Y:     2.6512      Z:     1.6293     Total:     3.8772

*** Psi4 exiting successfully. Buy a developer a beer!
