                               Psi4 1.3.2 release

  ==> Input File <==

--------------------------------------------------------------------------
#psi4
#
memory 32 gb

molecule  {
0 1
  O        2.3338030    -1.1448013    -0.3689912
  N        2.3923280     1.0164480     0.2994170
  C        0.2207310    -0.0269520    -0.0211670
  C       -0.4523230     1.1907380    -0.1883680
  C       -0.5090170    -1.2093150     0.1506230
  C       -1.8475330     1.2224820    -0.1660350
  C       -1.9015700    -1.1704770     0.1807190
  C       -2.5738810     0.0455010     0.0269260
  C        1.7134710    -0.1319220    -0.0440620
  H        0.1072720     2.1036640    -0.3785230
  H        0.0332720    -2.1453590     0.2524960
  H       -2.3684780     2.1664290    -0.3073730
  H       -2.4655310    -2.0892580     0.3223660
  H       -3.6606990     0.0738880     0.0465090
  H        1.9473050     1.6788240     0.9202200
  H        3.3908630     0.8938600     0.4225490
units angstrom
no_reorient  #important for SAPT in psi4, default
symmetry c1  #important for SAPT in psi4, default
}

set PROPERTIES_ORIGIN ["COM"]
properties('MP2/aug-cc-pvtz', properties = ['dipole'])
--------------------------------------------------------------------------

    Molecular point group: c1
  Charge       = 0
  Multiplicity = 1
  Basis Set: AUG-CC-PVTZ
    Blend: AUG-CC-PVTZ
  Basis Set: (AUG-CC-PVTZ AUX)
    Blend: AUG-CC-PVTZ-JKFIT

    Orbital Energies [Eh]
    ---------------------

    Doubly Occupied:

       1A    -20.524319     2A    -15.585518     3A    -11.360371
       4A    -11.259121     5A    -11.257141     6A    -11.255355
       7A    -11.251522     8A    -11.251106     9A    -11.248544
      10A     -1.377970    11A     -1.210759    12A     -1.165515
      13A     -1.041973    14A     -1.029657    15A     -0.880817
      16A     -0.842077    17A     -0.788352    18A     -0.741553
      19A     -0.695272    20A     -0.671737    21A     -0.640700
      22A     -0.620622    23A     -0.602569    24A     -0.597150
      25A     -0.572248    26A     -0.525112    27A     -0.509683
      28A     -0.507708    29A     -0.436542    30A     -0.417494
      31A     -0.353387    32A     -0.349635

  @DF-RHF Final Energy:  -398.62919324383824

   => Energetics <=

    Nuclear Repulsion Energy =            403.7775120351883515
    One-Electron Energy =               -1341.6703496539892058
    Two-Electron Energy =                 539.2636443749626096
    Total Energy =                       -398.6291932438382446
  Basis Set: (AUG-CC-PVTZ AUX)
    Blend: AUG-CC-PVTZ-RI
    Molecular point group: c1

    Geometry (in Angstrom), charge = 0, multiplicity = 1:

       Center              X                  Y                   Z               Mass
    ------------   -----------------  -----------------  -----------------  -----------------
         O            2.304164143598    -1.125521216688    -0.359430525854    15.994914619570
         N            2.362689143598     1.035728083312     0.308977674146    14.003074004430
         C            0.191092143598    -0.007671916688    -0.011606325854    12.000000000000
         C           -0.481961856402     1.210018083312    -0.178807325854    12.000000000000
         C           -0.538655856402    -1.190034916688     0.160183674146    12.000000000000
         C           -1.877171856402     1.241762083312    -0.156474325854    12.000000000000
         C           -1.931208856402    -1.151196916688     0.190279674146    12.000000000000
         C           -2.603519856402     0.064781083312     0.036486674146    12.000000000000
         C            1.683832143598    -0.112641916688    -0.034501325854    12.000000000000
         H            0.077633143598     2.122944083312    -0.368962325854     1.007825032230
         H            0.003633143598    -2.126078916688     0.262056674146     1.007825032230
         H           -2.398116856402     2.185709083312    -0.297812325854     1.007825032230
         H           -2.495169856402    -2.069977916688     0.331926674146     1.007825032230
         H           -3.690337856402     0.093168083312     0.056069674146     1.007825032230
         H            1.917666143598     1.698104083312     0.929780674146     1.007825032230
         H            3.361224143598     0.913140083312     0.432109674146     1.007825032230

  Basis Set: AUG-CC-PVTZ
    Blend: AUG-CC-PVTZ
  Basis Set: (AUG-CC-PVTZ AUX)
    Blend: AUG-CC-PVTZ-JKFIT
	 Reference Energy          =    -398.6291932438382446 [Eh]
	 Singles Energy            =      -0.0000000000000000 [Eh]
	 Same-Spin Energy          =      -0.4247006370420359 [Eh]
	 Opposite-Spin Energy      =      -1.3024503587198559 [Eh]
	 Correlation Energy        =      -1.7271509957618918 [Eh]
	 Total Energy              =    -400.3563442396001619 [Eh]

	 ================> DF-SCS-MP2 Energies <==================
	-----------------------------------------------------------
	 SCS Same-Spin Scale       =       0.3333333333333333 [-]
	 SCS Opposite-Spin Scale   =       1.2000000000000000 [-]
	 SCS Same-Spin Energy      =      -0.1415668790140119 [Eh]
	 SCS Opposite-Spin Energy  =      -1.5629404304638270 [Eh]
	 SCS Correlation Energy    =      -1.7045073094778389 [Eh]
	 SCS Total Energy          =    -400.3337005533160777 [Eh]
	-----------------------------------------------------------

  Dipole Moment: [D]
     X:    -1.6991      Y:     2.6547      Z:     1.6348     Total:     3.5506

*** Psi4 exiting successfully. Buy a developer a beer!
