                               Psi4 1.3.2 release

  ==> Input File <==

--------------------------------------------------------------------------
#psi4
#
memory 32 gb

molecule  {
0 1
  O        2.2963030    -1.1646890    -0.3757460
  N        2.2633197     1.0783885     0.3170379
  C        0.2207310    -0.0269520    -0.0211670
  C       -0.4523230     1.1907380    -0.1883680
  C       -0.5090170    -1.2093150     0.1506230
  C       -1.8475330     1.2224820    -0.1660350
  C       -1.9015700    -1.1704770     0.1807190
  C       -2.5738810     0.0455010     0.0269260
  C        1.7134710    -0.1319220    -0.0440620
  H        0.1072720     2.1036640    -0.3785230
  H        0.0332720    -2.1453590     0.2524960
  H       -2.3684780     2.1664290    -0.3073730
  H       -2.4655310    -2.0892580     0.3223660
  H       -3.6606990     0.0738880     0.0465090
  H        1.9473050     1.6788240     0.9202200
  H        3.3908630     0.8938600     0.4225490
units angstrom
no_reorient  #important for SAPT in psi4, default
symmetry c1  #important for SAPT in psi4, default
}

set PROPERTIES_ORIGIN ["COM"]
properties('MP2/aug-cc-pvtz', properties = ['dipole'])
--------------------------------------------------------------------------

    Molecular point group: c1
  Charge       = 0
  Multiplicity = 1
  Basis Set: AUG-CC-PVTZ
    Blend: AUG-CC-PVTZ
  Basis Set: (AUG-CC-PVTZ AUX)
    Blend: AUG-CC-PVTZ-JKFIT

    Orbital Energies [Eh]
    ---------------------

    Doubly Occupied:

       1A    -20.534155     2A    -15.592535     3A    -11.366404
       4A    -11.254948     5A    -11.252189     6A    -11.250686
       7A    -11.248227     8A    -11.247451     9A    -11.245522
      10A     -1.381187    11A     -1.226411    12A     -1.161699
      13A     -1.037633    14A     -1.026410    15A     -0.882614
      16A     -0.838936    17A     -0.807809    18A     -0.747114
      19A     -0.684949    20A     -0.662089    21A     -0.634025
      22A     -0.621745    23A     -0.599561    24A     -0.594775
      25A     -0.567237    26A     -0.522412    27A     -0.507131
      28A     -0.504644    29A     -0.441962    30A     -0.425785
      31A     -0.349948    32A     -0.346507

  @DF-RHF Final Energy:  -398.59732158936941

   => Energetics <=

    Nuclear Repulsion Energy =            404.8964497629913240
    One-Electron Energy =               -1343.8581374097989283
    Two-Electron Energy =                 540.3643660574382466
    Total Energy =                       -398.5973215893693578
  Basis Set: (AUG-CC-PVTZ AUX)
    Blend: AUG-CC-PVTZ-RI
    Molecular point group: c1

    Geometry (in Angstrom), charge = 0, multiplicity = 1:

       Center              X                  Y                   Z               Mass
    ------------   -----------------  -----------------  -----------------  -----------------
         O            2.286542434632    -1.149946238468    -0.367331142876    15.994914619570
         N            2.253559134632     1.093131261532     0.325452757124    14.003074004430
         C            0.210970434632    -0.012209238468    -0.012752142876    12.000000000000
         C           -0.462083565368     1.205480761532    -0.179953142876    12.000000000000
         C           -0.518777565368    -1.194572238468     0.159037857124    12.000000000000
         C           -1.857293565368     1.237224761532    -0.157620142876    12.000000000000
         C           -1.911330565368    -1.155734238468     0.189133857124    12.000000000000
         C           -2.583641565368     0.060243761532     0.035340857124    12.000000000000
         C            1.703710434632    -0.117179238468    -0.035647142876    12.000000000000
         H            0.097511434632     2.118406761532    -0.370108142876     1.007825032230
         H            0.023511434632    -2.130616238468     0.260910857124     1.007825032230
         H           -2.378238565368     2.181171761532    -0.298958142876     1.007825032230
         H           -2.475291565368    -2.074515238468     0.330780857124     1.007825032230
         H           -3.670459565368     0.088630761532     0.054923857124     1.007825032230
         H            1.937544434632     1.693566761532     0.928634857124     1.007825032230
         H            3.381102434632     0.908602761532     0.430963857124     1.007825032230

  Basis Set: AUG-CC-PVTZ
    Blend: AUG-CC-PVTZ
  Basis Set: (AUG-CC-PVTZ AUX)
    Blend: AUG-CC-PVTZ-JKFIT
	 Reference Energy          =    -398.5973215893694146 [Eh]
	 Singles Energy            =      -0.0000000000000000 [Eh]
	 Same-Spin Energy          =      -0.4259177758509194 [Eh]
	 Opposite-Spin Energy      =      -1.3051313909656208 [Eh]
	 Correlation Energy        =      -1.7310491668165402 [Eh]
	 Total Energy              =    -400.3283707561859615 [Eh]

	 ================> DF-SCS-MP2 Energies <==================
	-----------------------------------------------------------
	 SCS Same-Spin Scale       =       0.3333333333333333 [-]
	 SCS Opposite-Spin Scale   =       1.2000000000000000 [-]
	 SCS Same-Spin Energy      =      -0.1419725919503065 [Eh]
	 SCS Opposite-Spin Energy  =      -1.5661576691587449 [Eh]
	 SCS Correlation Energy    =      -1.7081302611090514 [Eh]
	 SCS Total Energy          =    -400.3054518504784483 [Eh]
	-----------------------------------------------------------

  Dipole Moment: [D]
     X:    -1.3098      Y:     2.5987      Z:     1.6450     Total:     3.3429

*** Psi4 exiting successfully. Buy a developer a beer!
