                               Psi4 1.4a3.dev225

  ==> Input File <==

--------------------------------------------------------------------------
#psi4
#
memory 32 gb

molecule  {
0 1
  O        2.2963030    -1.1646890    -0.3757460
  N        2.3923280     1.0164480     0.2994170
  C        0.2207310    -0.0269520    -0.0211670
  C       -0.4523230     1.1907380    -0.1883680
  C       -0.5090170    -1.2093150     0.1506230
  C       -1.8475330     1.2224820    -0.1660350
  C       -1.9015700    -1.1704770     0.1807190
  C       -2.5738810     0.0455010     0.0269260
  C        1.7633420    -0.1354289    -0.0448269
  H        0.1072720     2.1036640    -0.3785230
  H        0.0332720    -2.1453590     0.2524960
  H       -2.3684780     2.1664290    -0.3073730
  H       -2.4655310    -2.0892580     0.3223660
  H       -3.6606990     0.0738880     0.0465090
  H        1.9473050     1.6788240     0.9202200
  H        3.3908630     0.8938600     0.4225490
units angstrom
no_reorient  #important for SAPT in psi4, default
symmetry c1  #important for SAPT in psi4, default
}

set PROPERTIES_ORIGIN ["COM"]
properties('MP2/aug-cc-pvtz', properties = ['dipole'])
--------------------------------------------------------------------------

    Molecular point group: c1
  Charge       = 0
  Multiplicity = 1
  Basis Set: AUG-CC-PVTZ
    Blend: AUG-CC-PVTZ
  Basis Set: (AUG-CC-PVTZ AUX)
    Blend: AUG-CC-PVTZ-JKFIT

    Orbital Energies [Eh]
    ---------------------

    Doubly Occupied:

       1A    -20.528712     2A    -15.591054     3A    -11.360137
       4A    -11.254616     5A    -11.253156     6A    -11.250220
       7A    -11.247433     8A    -11.246217     9A    -11.244782
      10A     -1.395966    11A     -1.225159    12A     -1.160625
      13A     -1.033031    14A     -1.025246    15A     -0.871034
      16A     -0.837222    17A     -0.791827    18A     -0.746316
      19A     -0.695157    20A     -0.671341    21A     -0.637218
      22A     -0.624159    23A     -0.600690    24A     -0.597854
      25A     -0.577883    26A     -0.522713    27A     -0.507990
      28A     -0.503610    29A     -0.437430    30A     -0.424085
      31A     -0.348960    32A     -0.345271

  @DF-RHF Final Energy:  -398.62924533445874

   => Energetics <=

    Nuclear Repulsion Energy =            403.8341985648449395
    One-Electron Energy =               -1341.8126592440660261
    Two-Electron Energy =                 539.3492153447623423
    Total Energy =                       -398.6292453344588012
  Basis Set: (AUG-CC-PVTZ AUX)
    Blend: AUG-CC-PVTZ-RI
    Molecular point group: c1

    Geometry (in Angstrom), charge = 0, multiplicity = 1:

       Center              X                  Y                   Z               Mass
    ------------   -----------------  -----------------  -----------------  -----------------
         O            2.266675356049    -1.142433479763    -0.365216977461    15.994914619570
         N            2.362700356049     1.038703520237     0.309946022539    14.003074004430
         C            0.191103356049    -0.004696479763    -0.010637977461    12.000000000000
         C           -0.481950643951     1.212993520237    -0.177838977461    12.000000000000
         C           -0.538644643951    -1.187059479763     0.161152022539    12.000000000000
         C           -1.877160643951     1.244737520237    -0.155505977461    12.000000000000
         C           -1.931197643951    -1.148221479763     0.191248022539    12.000000000000
         C           -2.603508643951     0.067756520237     0.037455022539    12.000000000000
         C            1.733714356049    -0.113173379763    -0.034297877461    12.000000000000
         H            0.077644356049     2.125919520237    -0.367993977461     1.007825032230
         H            0.003644356049    -2.123103479763     0.263025022539     1.007825032230
         H           -2.398105643951     2.188684520237    -0.296843977461     1.007825032230
         H           -2.495158643951    -2.067002479763     0.332895022539     1.007825032230
         H           -3.690326643951     0.096143520237     0.057038022539     1.007825032230
         H            1.917677356049     1.701079520237     0.930749022539     1.007825032230
         H            3.361235356049     0.916115520237     0.433078022539     1.007825032230

  Basis Set: AUG-CC-PVTZ
    Blend: AUG-CC-PVTZ
  Basis Set: (AUG-CC-PVTZ AUX)
    Blend: AUG-CC-PVTZ-JKFIT
	 Reference Energy          =    -398.6292453344587443 [Eh]
	 Singles Energy            =      -0.0000000000000000 [Eh]
	 Same-Spin Energy          =      -0.4240771759349821 [Eh]
	 Opposite-Spin Energy      =      -1.3008977522685385 [Eh]
	 Correlation Energy        =      -1.7249749282035207 [Eh]
	 Total Energy              =    -400.3542202626622384 [Eh]

	 ================> DF-SCS-MP2 Energies <==================
	-----------------------------------------------------------
	 SCS Same-Spin Scale       =       0.3333333333333333 [-]
	 SCS Opposite-Spin Scale   =       1.2000000000000000 [-]
	 SCS Same-Spin Energy      =      -0.1413590586449940 [Eh]
	 SCS Opposite-Spin Energy  =      -1.5610773027222462 [Eh]
	 SCS Correlation Energy    =      -1.7024363613672402 [Eh]
	 SCS Total Energy          =    -400.3316816958259778 [Eh]
	-----------------------------------------------------------

  Dipole Moment: [D]
     X:    -1.1648      Y:     2.6996      Z:     1.6574     Total:     3.3751

*** Psi4 exiting successfully. Buy a developer a beer!
