                               Psi4 1.3.2 release

  ==> Input File <==

--------------------------------------------------------------------------
#psi4
#
memory 32 gb

molecule  {
0 1
  O        2.4064908    -1.1013494    -0.3543026
  N        2.3923280     1.0164480     0.2994170
  C        0.2207310    -0.0269520    -0.0211670
  C       -0.4523230     1.1907380    -0.1883680
  C       -0.5090170    -1.2093150     0.1506230
  C       -1.8475330     1.2224820    -0.1660350
  C       -1.9015700    -1.1704770     0.1807190
  C       -2.5738810     0.0455010     0.0269260
  C        1.7134710    -0.1319220    -0.0440620
  H        0.1072720     2.1036640    -0.3785230
  H        0.0332720    -2.1453590     0.2524960
  H       -2.3684780     2.1664290    -0.3073730
  H       -2.4655310    -2.0892580     0.3223660
  H       -3.6606990     0.0738880     0.0465090
  H        1.9473050     1.6788240     0.9202200
  H        3.3908630     0.8938600     0.4225490
units angstrom
no_reorient  #important for SAPT in psi4, default
symmetry c1  #important for SAPT in psi4, default
}

set PROPERTIES_ORIGIN ["COM"]
properties('MP2/aug-cc-pvtz', properties = ['dipole'])
--------------------------------------------------------------------------

    Molecular point group: c1
  Charge       = 0
  Multiplicity = 1
  Basis Set: AUG-CC-PVTZ
    Blend: AUG-CC-PVTZ
  Basis Set: (AUG-CC-PVTZ AUX)
    Blend: AUG-CC-PVTZ-JKFIT

    Orbital Energies [Eh]
    ---------------------

    Doubly Occupied:

       1A    -20.522524     2A    -15.580129     3A    -11.359579
       4A    -11.261677     5A    -11.260368     6A    -11.257478
       7A    -11.254202     8A    -11.252968     9A    -11.250476
      10A     -1.378399    11A     -1.204872    12A     -1.167283
      13A     -1.044440    14A     -1.031746    15A     -0.882370
      16A     -0.844089    17A     -0.787874    18A     -0.740219
      19A     -0.694636    20A     -0.671038    21A     -0.642489
      22A     -0.620353    23A     -0.604126    24A     -0.597320
      25A     -0.571963    26A     -0.527153    27A     -0.511443
      28A     -0.509802    29A     -0.435436    30A     -0.412800
      31A     -0.355591    32A     -0.351997

  @DF-RHF Final Energy:  -398.62656718666460

   => Energetics <=

    Nuclear Repulsion Energy =            403.4033796416486553
    One-Electron Energy =               -1340.8862221938120456
    Two-Electron Energy =                 538.8562753654988455
    Total Energy =                       -398.6265671866646016
  Basis Set: (AUG-CC-PVTZ AUX)
    Blend: AUG-CC-PVTZ-RI
    Molecular point group: c1

    Geometry (in Angstrom), charge = 0, multiplicity = 1:

       Center              X                  Y                   Z               Mass
    ------------   -----------------  -----------------  -----------------  -----------------
         O            2.367247576726    -1.087810692667    -0.346682756409    15.994914619570
         N            2.353084776726     1.029986707333     0.307036843591    14.003074004430
         C            0.181487776726    -0.013413292667    -0.013547156409    12.000000000000
         C           -0.491566223274     1.204276707333    -0.180748156409    12.000000000000
         C           -0.548260223274    -1.195776292667     0.158242843591    12.000000000000
         C           -1.886776223274     1.236020707333    -0.158415156409    12.000000000000
         C           -1.940813223274    -1.156938292667     0.188338843591    12.000000000000
         C           -2.613124223274     0.059039707333     0.034545843591    12.000000000000
         C            1.674227776726    -0.118383292667    -0.036442156409    12.000000000000
         H            0.068028776726     2.117202707333    -0.370903156409     1.007825032230
         H           -0.005971223274    -2.131820292667     0.260115843591     1.007825032230
         H           -2.407721223274     2.179967707333    -0.299753156409     1.007825032230
         H           -2.504774223274    -2.075719292667     0.329985843591     1.007825032230
         H           -3.699942223274     0.087426707333     0.054128843591     1.007825032230
         H            1.908061776726     1.692362707333     0.927839843591     1.007825032230
         H            3.351619776726     0.907398707333     0.430168843591     1.007825032230

  Basis Set: AUG-CC-PVTZ
    Blend: AUG-CC-PVTZ
  Basis Set: (AUG-CC-PVTZ AUX)
    Blend: AUG-CC-PVTZ-JKFIT
	 Reference Energy          =    -398.6265671866646016 [Eh]
	 Singles Energy            =      -0.0000000000000000 [Eh]
	 Same-Spin Energy          =      -0.4246802898042086 [Eh]
	 Opposite-Spin Energy      =      -1.3025258020403085 [Eh]
	 Correlation Energy        =      -1.7272060918445171 [Eh]
	 Total Energy              =    -400.3537732785090952 [Eh]

	 ================> DF-SCS-MP2 Energies <==================
	-----------------------------------------------------------
	 SCS Same-Spin Scale       =       0.3333333333333333 [-]
	 SCS Opposite-Spin Scale   =       1.2000000000000000 [-]
	 SCS Same-Spin Energy      =      -0.1415600966014029 [Eh]
	 SCS Opposite-Spin Energy  =      -1.5630309624483703 [Eh]
	 SCS Correlation Energy    =      -1.7045910590497730 [Eh]
	 SCS Total Energy          =    -400.3311582457143913 [Eh]
	-----------------------------------------------------------

  Dipole Moment: [D]
     X:    -1.9857      Y:     2.5664      Z:     1.5986     Total:     3.6173

*** Psi4 exiting successfully. Buy a developer a beer!
