                               Psi4 1.3.2 release

  ==> Input File <==

--------------------------------------------------------------------------
#psi4
#
memory 32 gb

molecule  {
0 1
  O        2.2963030    -1.1646890    -0.3757460
  N        2.3923280     1.0164480     0.2994170
  C        0.3046300     0.0215107    -0.0345613
  C       -0.4523230     1.1907380    -0.1883680
  C       -0.5090170    -1.2093150     0.1506230
  C       -1.8475330     1.2224820    -0.1660350
  C       -1.9015700    -1.1704770     0.1807190
  C       -2.5738810     0.0455010     0.0269260
  C        1.7134710    -0.1319220    -0.0440620
  H        0.1072720     2.1036640    -0.3785230
  H        0.0332720    -2.1453590     0.2524960
  H       -2.3684780     2.1664290    -0.3073730
  H       -2.4655310    -2.0892580     0.3223660
  H       -3.6606990     0.0738880     0.0465090
  H        1.9473050     1.6788240     0.9202200
  H        3.3908630     0.8938600     0.4225490
units angstrom
no_reorient  #important for SAPT in psi4, default
symmetry c1  #important for SAPT in psi4, default
}

set PROPERTIES_ORIGIN ["COM"]
properties('MP2/aug-cc-pvtz', properties = ['dipole'])
--------------------------------------------------------------------------

    Molecular point group: c1
  Charge       = 0
  Multiplicity = 1
  Basis Set: AUG-CC-PVTZ
    Blend: AUG-CC-PVTZ
  Basis Set: (AUG-CC-PVTZ AUX)
    Blend: AUG-CC-PVTZ-JKFIT

    Orbital Energies [Eh]
    ---------------------

    Doubly Occupied:

       1A    -20.523811     2A    -15.585195     3A    -11.355892
       4A    -11.262779     5A    -11.261496     6A    -11.259356
       7A    -11.257313     8A    -11.251191     9A    -11.248120
      10A     -1.378922    11A     -1.214784    12A     -1.158743
      13A     -1.046019    14A     -1.025116    15A     -0.895890
      16A     -0.837102    17A     -0.787855    18A     -0.741014
      19A     -0.695708    20A     -0.680116    21A     -0.640040
      22A     -0.617604    23A     -0.602229    24A     -0.594797
      25A     -0.573840    26A     -0.530771    27A     -0.504190
      28A     -0.494310    29A     -0.440732    30A     -0.419529
      31A     -0.356804    32A     -0.341383

  @DF-RHF Final Energy:  -398.61570236084606

   => Energetics <=

    Nuclear Repulsion Energy =            403.8666164330091419
    One-Electron Energy =               -1341.7993327179569860
    Two-Electron Energy =                 539.3170139241018433
    Total Energy =                       -398.6157023608460577
  Basis Set: (AUG-CC-PVTZ AUX)
    Blend: AUG-CC-PVTZ-RI
    Molecular point group: c1

    Geometry (in Angstrom), charge = 0, multiplicity = 1:

       Center              X                  Y                   Z               Mass
    ------------   -----------------  -----------------  -----------------  -----------------
         O            2.263302149300    -1.147585243177    -0.363965020916    15.994914619570
         N            2.359327149300     1.033551756823     0.311197979084    14.003074004430
         C            0.271629149300     0.038614456823    -0.022780320916    12.000000000000
         C           -0.485323850700     1.207841756823    -0.176587020916    12.000000000000
         C           -0.542017850700    -1.192211243177     0.162403979084    12.000000000000
         C           -1.880533850700     1.239585756823    -0.154254020916    12.000000000000
         C           -1.934570850700    -1.153373243177     0.192499979084    12.000000000000
         C           -2.606881850700     0.062604756823     0.038706979084    12.000000000000
         C            1.680470149300    -0.114818243177    -0.032281020916    12.000000000000
         H            0.074271149300     2.120767756823    -0.366742020916     1.007825032230
         H            0.000271149300    -2.128255243177     0.264276979084     1.007825032230
         H           -2.401478850700     2.183532756823    -0.295592020916     1.007825032230
         H           -2.498531850700    -2.072154243177     0.334146979084     1.007825032230
         H           -3.693699850700     0.090991756823     0.058289979084     1.007825032230
         H            1.914304149300     1.695927756823     0.932000979084     1.007825032230
         H            3.357862149300     0.910963756823     0.434329979084     1.007825032230

  Basis Set: AUG-CC-PVTZ
    Blend: AUG-CC-PVTZ
  Basis Set: (AUG-CC-PVTZ AUX)
    Blend: AUG-CC-PVTZ-JKFIT
	 Reference Energy          =    -398.6157023608460577 [Eh]
	 Singles Energy            =      -0.0000000000000000 [Eh]
	 Same-Spin Energy          =      -0.4256272983665068 [Eh]
	 Opposite-Spin Energy      =      -1.3045913594267544 [Eh]
	 Correlation Energy        =      -1.7302186577932612 [Eh]
	 Total Energy              =    -400.3459210186393307 [Eh]

	 ================> DF-SCS-MP2 Energies <==================
	-----------------------------------------------------------
	 SCS Same-Spin Scale       =       0.3333333333333333 [-]
	 SCS Opposite-Spin Scale   =       1.2000000000000000 [-]
	 SCS Same-Spin Energy      =      -0.1418757661221689 [Eh]
	 SCS Opposite-Spin Energy  =      -1.5655096313121053 [Eh]
	 SCS Correlation Energy    =      -1.7073853974342743 [Eh]
	 SCS Total Energy          =    -400.3230877582803373 [Eh]
	-----------------------------------------------------------

  Dipole Moment: [D]
     X:    -1.7226      Y:     2.6830      Z:     1.6444     Total:     3.5875

*** Psi4 exiting successfully. Buy a developer a beer!
