                               Psi4 1.3.2 release

  ==> Input File <==

--------------------------------------------------------------------------
#psi4
#
memory 32 gb

molecule  {
0 1
  O        2.2963030    -1.1646890    -0.3757460
  N        2.3923280     1.0164480     0.2994170
  C        0.2207310    -0.0269520    -0.0211670
  C       -0.4090359     1.2130622    -0.1928798
  C       -0.5090170    -1.2093150     0.1506230
  C       -1.8475330     1.2224820    -0.1660350
  C       -1.9015700    -1.1704770     0.1807190
  C       -2.5738810     0.0455010     0.0269260
  C        1.7134710    -0.1319220    -0.0440620
  H        0.1072720     2.1036640    -0.3785230
  H        0.0332720    -2.1453590     0.2524960
  H       -2.3684780     2.1664290    -0.3073730
  H       -2.4655310    -2.0892580     0.3223660
  H       -3.6606990     0.0738880     0.0465090
  H        1.9473050     1.6788240     0.9202200
  H        3.3908630     0.8938600     0.4225490
units angstrom
no_reorient  #important for SAPT in psi4, default
symmetry c1  #important for SAPT in psi4, default
}

set PROPERTIES_ORIGIN ["COM"]
properties('MP2/aug-cc-pvtz', properties = ['dipole'])
--------------------------------------------------------------------------

    Molecular point group: c1
  Charge       = 0
  Multiplicity = 1
  Basis Set: AUG-CC-PVTZ
    Blend: AUG-CC-PVTZ
  Basis Set: (AUG-CC-PVTZ AUX)
    Blend: AUG-CC-PVTZ-JKFIT

    Orbital Energies [Eh]
    ---------------------

    Doubly Occupied:

       1A    -20.524620     2A    -15.587880     3A    -11.359533
       4A    -11.259351     5A    -11.256875     6A    -11.255373
       7A    -11.253616     8A    -11.250056     9A    -11.248450
      10A     -1.377557    11A     -1.213569    12A     -1.160807
      13A     -1.041766    14A     -1.024744    15A     -0.878529
      16A     -0.845141    17A     -0.786471    18A     -0.742469
      19A     -0.697258    20A     -0.671929    21A     -0.643096
      22A     -0.620604    23A     -0.600109    24A     -0.597812
      25A     -0.572095    26A     -0.522555    27A     -0.511466
      28A     -0.505878    29A     -0.435514    30A     -0.419032
      31A     -0.353515    32A     -0.344592

  @DF-RHF Final Energy:  -398.62579201494145

   => Energetics <=

    Nuclear Repulsion Energy =            403.5749864393952180
    One-Electron Energy =               -1341.2770287863265821
    Two-Electron Energy =                 539.0762503319899679
    Total Energy =                       -398.6257920149414531
  Basis Set: (AUG-CC-PVTZ AUX)
    Blend: AUG-CC-PVTZ-RI
    Molecular point group: c1

    Geometry (in Angstrom), charge = 0, multiplicity = 1:

       Center              X                  Y                   Z               Mass
    ------------   -----------------  -----------------  -----------------  -----------------
         O            2.267328020205    -1.144994125139    -0.364845546041    15.994914619570
         N            2.363353020205     1.036142874861     0.310317453959    14.003074004430
         C            0.191756020205    -0.007257125139    -0.010266546041    12.000000000000
         C           -0.438010879795     1.232757074861    -0.181979346041    12.000000000000
         C           -0.537991979795    -1.189620125139     0.161523453959    12.000000000000
         C           -1.876507979795     1.242176874861    -0.155134546041    12.000000000000
         C           -1.930544979795    -1.150782125139     0.191619453959    12.000000000000
         C           -2.602855979795     0.065195874861     0.037826453959    12.000000000000
         C            1.684496020205    -0.112227125139    -0.033161546041    12.000000000000
         H            0.078297020205     2.123358874861    -0.367622546041     1.007825032230
         H            0.004297020205    -2.125664125139     0.263396453959     1.007825032230
         H           -2.397452979795     2.186123874861    -0.296472546041     1.007825032230
         H           -2.494505979795    -2.069563125139     0.333266453959     1.007825032230
         H           -3.689673979795     0.093582874861     0.057409453959     1.007825032230
         H            1.918330020205     1.698518874861     0.931120453959     1.007825032230
         H            3.361888020205     0.913554874861     0.433449453959     1.007825032230

  Basis Set: AUG-CC-PVTZ
    Blend: AUG-CC-PVTZ
  Basis Set: (AUG-CC-PVTZ AUX)
    Blend: AUG-CC-PVTZ-JKFIT
	 Reference Energy          =    -398.6257920149414531 [Eh]
	 Singles Energy            =      -0.0000000000000000 [Eh]
	 Same-Spin Energy          =      -0.4247528847445410 [Eh]
	 Opposite-Spin Energy      =      -1.3028761527206563 [Eh]
	 Correlation Energy        =      -1.7276290374651972 [Eh]
	 Total Energy              =    -400.3534210524066452 [Eh]

	 ================> DF-SCS-MP2 Energies <==================
	-----------------------------------------------------------
	 SCS Same-Spin Scale       =       0.3333333333333333 [-]
	 SCS Opposite-Spin Scale   =       1.2000000000000000 [-]
	 SCS Same-Spin Energy      =      -0.1415842949148470 [Eh]
	 SCS Opposite-Spin Energy  =      -1.5634513832647874 [Eh]
	 SCS Correlation Energy    =      -1.7050356781796343 [Eh]
	 SCS Total Energy          =    -400.3308276931210798 [Eh]
	-----------------------------------------------------------

  Dipole Moment: [D]
     X:    -1.5652      Y:     2.6961      Z:     1.6467     Total:     3.5257

*** Psi4 exiting successfully. Buy a developer a beer!
