                               Psi4 1.3.2 release

  ==> Input File <==

--------------------------------------------------------------------------
#psi4
#
memory 32 gb

molecule  {
0 1
  O        2.2963030    -1.1646890    -0.3757460
  N        2.4337455     0.9929676     0.2926964
  C        0.2207310    -0.0269520    -0.0211670
  C       -0.4523230     1.1907380    -0.1883680
  C       -0.5090170    -1.2093150     0.1506230
  C       -1.8475330     1.2224820    -0.1660350
  C       -1.9015700    -1.1704770     0.1807190
  C       -2.5738810     0.0455010     0.0269260
  C        1.7134710    -0.1319220    -0.0440620
  H        0.1072720     2.1036640    -0.3785230
  H        0.0332720    -2.1453590     0.2524960
  H       -2.3684780     2.1664290    -0.3073730
  H       -2.4655310    -2.0892580     0.3223660
  H       -3.6606990     0.0738880     0.0465090
  H        1.9473050     1.6788240     0.9202200
  H        3.3908630     0.8938600     0.4225490
units angstrom
no_reorient  #important for SAPT in psi4, default
symmetry c1  #important for SAPT in psi4, default
}

set PROPERTIES_ORIGIN ["COM"]
properties('MP2/aug-cc-pvtz', properties = ['dipole'])
--------------------------------------------------------------------------

    Molecular point group: c1
  Charge       = 0
  Multiplicity = 1
  Basis Set: AUG-CC-PVTZ
    Blend: AUG-CC-PVTZ
  Basis Set: (AUG-CC-PVTZ AUX)
    Blend: AUG-CC-PVTZ-JKFIT

    Orbital Energies [Eh]
    ---------------------

    Doubly Occupied:

       1A    -20.522498     2A    -15.586628     3A    -11.359965
       4A    -11.258958     5A    -11.257264     6A    -11.255059
       7A    -11.251177     8A    -11.250864     9A    -11.248308
      10A     -1.377535    11A     -1.210996    12A     -1.165690
      13A     -1.042091    14A     -1.029414    15A     -0.881978
      16A     -0.842087    17A     -0.789743    18A     -0.735311
      19A     -0.699862    20A     -0.674391    21A     -0.640966
      22A     -0.621189    23A     -0.602274    24A     -0.595245
      25A     -0.572810    26A     -0.524613    27A     -0.509455
      28A     -0.507340    29A     -0.435115    30A     -0.417649
      31A     -0.353142    32A     -0.349086

  @DF-RHF Final Energy:  -398.62659299235924

   => Energetics <=

    Nuclear Repulsion Energy =            403.7770909827452783
    One-Electron Energy =               -1341.6699562480396253
    Two-Electron Energy =                 539.2662722729352254
    Total Energy =                       -398.6265929923591784
  Basis Set: (AUG-CC-PVTZ AUX)
    Blend: AUG-CC-PVTZ-RI
    Molecular point group: c1

    Geometry (in Angstrom), charge = 0, multiplicity = 1:

       Center              X                  Y                   Z               Mass
    ------------   -----------------  -----------------  -----------------  -----------------
         O            2.266828014128    -1.140064967308    -0.364515380435    15.994914619570
         N            2.404270514128     1.017591632692     0.303927019565    14.003074004430
         C            0.191256014128    -0.002327967308    -0.009936380435    12.000000000000
         C           -0.481797985872     1.215362032692    -0.177137380435    12.000000000000
         C           -0.538491985872    -1.184690967308     0.161853619565    12.000000000000
         C           -1.877007985872     1.247106032692    -0.154804380435    12.000000000000
         C           -1.931044985872    -1.145852967308     0.191949619565    12.000000000000
         C           -2.603355985872     0.070125032692     0.038156619565    12.000000000000
         C            1.683996014128    -0.107297967308    -0.032831380435    12.000000000000
         H            0.077797014128     2.128288032692    -0.367292380435     1.007825032230
         H            0.003797014128    -2.120734967308     0.263726619565     1.007825032230
         H           -2.397952985872     2.191053032692    -0.296142380435     1.007825032230
         H           -2.495005985872    -2.064633967308     0.333596619565     1.007825032230
         H           -3.690173985872     0.098512032692     0.057739619565     1.007825032230
         H            1.917830014128     1.703448032692     0.931450619565     1.007825032230
         H            3.361388014128     0.918484032692     0.433779619565     1.007825032230

  Basis Set: AUG-CC-PVTZ
    Blend: AUG-CC-PVTZ
  Basis Set: (AUG-CC-PVTZ AUX)
    Blend: AUG-CC-PVTZ-JKFIT
	 Reference Energy          =    -398.6265929923592353 [Eh]
	 Singles Energy            =      -0.0000000000000000 [Eh]
	 Same-Spin Energy          =      -0.4245743001279397 [Eh]
	 Opposite-Spin Energy      =      -1.3022882810997900 [Eh]
	 Correlation Energy        =      -1.7268625812277296 [Eh]
	 Total Energy              =    -400.3534555735869844 [Eh]

	 ================> DF-SCS-MP2 Energies <==================
	-----------------------------------------------------------
	 SCS Same-Spin Scale       =       0.3333333333333333 [-]
	 SCS Opposite-Spin Scale   =       1.2000000000000000 [-]
	 SCS Same-Spin Energy      =      -0.1415247667093132 [Eh]
	 SCS Opposite-Spin Energy  =      -1.5627459373197479 [Eh]
	 SCS Correlation Energy    =      -1.7042707040290610 [Eh]
	 SCS Total Energy          =    -400.3308636963882918 [Eh]
	-----------------------------------------------------------

  Dipole Moment: [D]
     X:    -1.6497      Y:     2.7084      Z:     1.6459     Total:     3.5730

*** Psi4 exiting successfully. Buy a developer a beer!
