                               Psi4 1.3.2 release

  ==> Input File <==

--------------------------------------------------------------------------
#psi4
#
memory 32 gb

molecule  {
0 1
  O        2.2963030    -1.1646890    -0.3757460
  N        2.3923280     1.0164480     0.2994170
  C        0.2207310    -0.0269520    -0.0211670
  C       -0.4523230     1.1907380    -0.1883680
  C       -0.5090170    -1.2093150     0.1506230
  C       -1.8475330     1.2224820    -0.1660350
  C       -1.9015700    -1.1704770     0.1807190
  C       -2.5738810     0.0455010     0.0269260
  C        1.7894847    -0.1568821    -0.0973886
  H        0.1072720     2.1036640    -0.3785230
  H        0.0332720    -2.1453590     0.2524960
  H       -2.3684780     2.1664290    -0.3073730
  H       -2.4655310    -2.0892580     0.3223660
  H       -3.6606990     0.0738880     0.0465090
  H        1.9473050     1.6788240     0.9202200
  H        3.3908630     0.8938600     0.4225490
units angstrom
no_reorient  #important for SAPT in psi4, default
symmetry c1  #important for SAPT in psi4, default
}

set PROPERTIES_ORIGIN ["COM"]
properties('MP2/aug-cc-pvtz', properties = ['dipole'])
--------------------------------------------------------------------------

    Molecular point group: c1
  Charge       = 0
  Multiplicity = 1
  Basis Set: AUG-CC-PVTZ
    Blend: AUG-CC-PVTZ
  Basis Set: (AUG-CC-PVTZ AUX)
    Blend: AUG-CC-PVTZ-JKFIT

    Orbital Energies [Eh]
    ---------------------

    Doubly Occupied:

       1A    -20.537533     2A    -15.585583     3A    -11.359959
       4A    -11.252494     5A    -11.250747     6A    -11.248115
       7A    -11.245837     8A    -11.244401     9A    -11.243191
      10A     -1.428265    11A     -1.218191    12A     -1.158043
      13A     -1.028891    14A     -1.023428    15A     -0.864438
      16A     -0.835112    17A     -0.788731    18A     -0.744462
      19A     -0.690599    20A     -0.675911    21A     -0.639659
      22A     -0.627613    23A     -0.606332    24A     -0.598226
      25A     -0.584221    26A     -0.525327    27A     -0.507165
      28A     -0.501970    29A     -0.440702    30A     -0.422734
      31A     -0.346943    32A     -0.344029

  @DF-RHF Final Energy:  -398.62391697342440

   => Energetics <=

    Nuclear Repulsion Energy =            403.8481668976745027
    One-Electron Energy =               -1341.8064583488810513
    Two-Electron Energy =                 539.3343744777822621
    Total Energy =                       -398.6239169734243433
  Basis Set: (AUG-CC-PVTZ AUX)
    Blend: AUG-CC-PVTZ-RI
    Molecular point group: c1

    Geometry (in Angstrom), charge = 0, multiplicity = 1:

       Center              X                  Y                   Z               Mass
    ------------   -----------------  -----------------  -----------------  -----------------
         O            2.264083821663    -1.140306817043    -0.360006518981    15.994914619570
         N            2.360108821663     1.040830182957     0.315156481019    14.003074004430
         C            0.188511821663    -0.002569817043    -0.005427518981    12.000000000000
         C           -0.484542178337     1.215120182957    -0.172628518981    12.000000000000
         C           -0.541236178337    -1.184932817043     0.166362481019    12.000000000000
         C           -1.879752178337     1.246864182957    -0.150295518981    12.000000000000
         C           -1.933789178337    -1.146094817043     0.196458481019    12.000000000000
         C           -2.606100178337     0.069883182957     0.042665481019    12.000000000000
         C            1.757265521663    -0.132499917043    -0.081649118981    12.000000000000
         H            0.075052821663     2.128046182957    -0.362783518981     1.007825032230
         H            0.001052821663    -2.120976817043     0.268235481019     1.007825032230
         H           -2.400697178337     2.190811182957    -0.291633518981     1.007825032230
         H           -2.497750178337    -2.064875817043     0.338105481019     1.007825032230
         H           -3.692918178337     0.098270182957     0.062248481019     1.007825032230
         H            1.915085821663     1.703206182957     0.935959481019     1.007825032230
         H            3.358643821663     0.918242182957     0.438288481019     1.007825032230

  Basis Set: AUG-CC-PVTZ
    Blend: AUG-CC-PVTZ
  Basis Set: (AUG-CC-PVTZ AUX)
    Blend: AUG-CC-PVTZ-JKFIT
	 Reference Energy          =    -398.6239169734244001 [Eh]
	 Singles Energy            =      -0.0000000000000000 [Eh]
	 Same-Spin Energy          =      -0.4232386935762539 [Eh]
	 Opposite-Spin Energy      =      -1.2992103753980198 [Eh]
	 Correlation Energy        =      -1.7224490689742737 [Eh]
	 Total Energy              =    -400.3463660423986994 [Eh]

	 ================> DF-SCS-MP2 Energies <==================
	-----------------------------------------------------------
	 SCS Same-Spin Scale       =       0.3333333333333333 [-]
	 SCS Opposite-Spin Scale   =       1.2000000000000000 [-]
	 SCS Same-Spin Energy      =      -0.1410795645254180 [Eh]
	 SCS Opposite-Spin Energy  =      -1.5590524504776238 [Eh]
	 SCS Correlation Energy    =      -1.7001320150030417 [Eh]
	 SCS Total Energy          =    -400.3240489884274211 [Eh]
	-----------------------------------------------------------

  Dipole Moment: [D]
     X:    -0.9886      Y:     2.4389      Z:     1.5152     Total:     3.0367

*** Psi4 exiting successfully. Buy a developer a beer!
