                               Psi4 1.4a3.dev225

  ==> Input File <==

--------------------------------------------------------------------------
#psi4
#
memory 32 gb

molecule  {
0 1
  O        2.2963030    -1.1646890    -0.3757460
  N        2.3923280     1.0164480     0.2994170
  C        0.2207310    -0.0269520    -0.0211670
  C       -0.4523230     1.1907380    -0.1883680
  C       -0.5090170    -1.2093150     0.1506230
  C       -1.8475330     1.2224820    -0.1660350
  C       -1.9015700    -1.1704770     0.1807190
  C       -2.5738810     0.0455010     0.0269260
  C        1.7334194    -0.1333248    -0.0443680
  H        0.1072720     2.1036640    -0.3785230
  H        0.0332720    -2.1453590     0.2524960
  H       -2.3684780     2.1664290    -0.3073730
  H       -2.4655310    -2.0892580     0.3223660
  H       -3.6606990     0.0738880     0.0465090
  H        1.9473050     1.6788240     0.9202200
  H        3.3908630     0.8938600     0.4225490
units angstrom
no_reorient  #important for SAPT in psi4, default
symmetry c1  #important for SAPT in psi4, default
}

set PROPERTIES_ORIGIN ["COM"]
properties('MP2/aug-cc-pvtz', properties = ['dipole'])
--------------------------------------------------------------------------

    Molecular point group: c1
  Charge       = 0
  Multiplicity = 1
  Basis Set: AUG-CC-PVTZ
    Blend: AUG-CC-PVTZ
  Basis Set: (AUG-CC-PVTZ AUX)
    Blend: AUG-CC-PVTZ-JKFIT

    Orbital Energies [Eh]
    ---------------------

    Doubly Occupied:

       1A    -20.526537     2A    -15.589290     3A    -11.360491
       4A    -11.256301     5A    -11.254920     6A    -11.252608
       7A    -11.249061     8A    -11.248522     9A    -11.246457
      10A     -1.385165    11A     -1.218185    12A     -1.162968
      13A     -1.037533    14A     -1.027235    15A     -0.876334
      16A     -0.839504    17A     -0.789758    18A     -0.743941
      19A     -0.695508    20A     -0.671490    21A     -0.638653
      22A     -0.622091    23A     -0.601182    24A     -0.597569
      25A     -0.574666    26A     -0.523343    27A     -0.508610
      28A     -0.505424    29A     -0.437028    30A     -0.421853
      31A     -0.350954    32A     -0.347139

  @DF-RHF Final Energy:  -398.63013245862930

   => Energetics <=

    Nuclear Repulsion Energy =            403.9327258516908614
    One-Electron Energy =               -1342.0050739124703796
    Two-Electron Energy =                 539.4422156021502133
    Total Energy =                       -398.6301324586293049
  Basis Set: (AUG-CC-PVTZ AUX)
    Blend: AUG-CC-PVTZ-RI
    Molecular point group: c1

    Geometry (in Angstrom), charge = 0, multiplicity = 1:

       Center              X                  Y                   Z               Mass
    ------------   -----------------  -----------------  -----------------  -----------------
         O            2.269641593156    -1.142642059882    -0.365262468368    15.994914619570
         N            2.365666593156     1.038494940118     0.309900531632    14.003074004430
         C            0.194069593156    -0.004905059882    -0.010683468368    12.000000000000
         C           -0.478984406844     1.212784940118    -0.177884468368    12.000000000000
         C           -0.535678406844    -1.187268059882     0.161106531632    12.000000000000
         C           -1.874194406844     1.244528940118    -0.155551468368    12.000000000000
         C           -1.928231406844    -1.148430059882     0.191202531632    12.000000000000
         C           -2.600542406844     0.067547940118     0.037409531632    12.000000000000
         C            1.706757993156    -0.111277859882    -0.033884468368    12.000000000000
         H            0.080610593156     2.125710940118    -0.368039468368     1.007825032230
         H            0.006610593156    -2.123312059882     0.262979531632     1.007825032230
         H           -2.395139406844     2.188475940118    -0.296889468368     1.007825032230
         H           -2.492192406844    -2.067211059882     0.332849531632     1.007825032230
         H           -3.687360406844     0.095934940118     0.056992531632     1.007825032230
         H            1.920643593156     1.700870940118     0.930703531632     1.007825032230
         H            3.364201593156     0.915906940118     0.433032531632     1.007825032230

  Basis Set: AUG-CC-PVTZ
    Blend: AUG-CC-PVTZ
  Basis Set: (AUG-CC-PVTZ AUX)
    Blend: AUG-CC-PVTZ-JKFIT
	 Reference Energy          =    -398.6301324586293049 [Eh]
	 Singles Energy            =      -0.0000000000000000 [Eh]
	 Same-Spin Energy          =      -0.4244471878026526 [Eh]
	 Opposite-Spin Energy      =      -1.3017912353739112 [Eh]
	 Correlation Energy        =      -1.7262384231765637 [Eh]
	 Total Energy              =    -400.3563708818058444 [Eh]

	 ================> DF-SCS-MP2 Energies <==================
	-----------------------------------------------------------
	 SCS Same-Spin Scale       =       0.3333333333333333 [-]
	 SCS Opposite-Spin Scale   =       1.2000000000000000 [-]
	 SCS Same-Spin Energy      =      -0.1414823959342175 [Eh]
	 SCS Opposite-Spin Energy  =      -1.5621494824486934 [Eh]
	 SCS Correlation Energy    =      -1.7036318783829110 [Eh]
	 SCS Total Energy          =    -400.3337643370122123 [Eh]
	-----------------------------------------------------------

  Dipole Moment: [D]
     X:    -1.3977      Y:     2.6967      Z:     1.6537     Total:     3.4584

*** Psi4 exiting successfully. Buy a developer a beer!
