                               Psi4 1.3.2 release

  ==> Input File <==

--------------------------------------------------------------------------
#psi4
#
memory 32 gb

molecule  {
0 1
  O        2.1797501    -1.2178380    -0.3900177
  N        2.3923280     1.0164480     0.2994170
  C        0.2207310    -0.0269520    -0.0211670
  C       -0.4523230     1.1907380    -0.1883680
  C       -0.5090170    -1.2093150     0.1506230
  C       -1.8475330     1.2224820    -0.1660350
  C       -1.9015700    -1.1704770     0.1807190
  C       -2.5738810     0.0455010     0.0269260
  C        1.7134710    -0.1319220    -0.0440620
  H        0.1072720     2.1036640    -0.3785230
  H        0.0332720    -2.1453590     0.2524960
  H       -2.3684780     2.1664290    -0.3073730
  H       -2.4655310    -2.0892580     0.3223660
  H       -3.6606990     0.0738880     0.0465090
  H        1.9473050     1.6788240     0.9202200
  H        3.3908630     0.8938600     0.4225490
units angstrom
no_reorient  #important for SAPT in psi4, default
symmetry c1  #important for SAPT in psi4, default
}

set PROPERTIES_ORIGIN ["COM"]
properties('MP2/aug-cc-pvtz', properties = ['dipole'])
--------------------------------------------------------------------------

    Molecular point group: c1
  Charge       = 0
  Multiplicity = 1
  Basis Set: AUG-CC-PVTZ
    Blend: AUG-CC-PVTZ
  Basis Set: (AUG-CC-PVTZ AUX)
    Blend: AUG-CC-PVTZ-JKFIT

    Orbital Energies [Eh]
    ---------------------

    Doubly Occupied:

       1A    -20.527254     2A    -15.595773     3A    -11.362397
       4A    -11.253778     5A    -11.250736     6A    -11.250375
       7A    -11.247026     8A    -11.245784     9A    -11.244212
      10A     -1.378984    11A     -1.221797    12A     -1.161062
      13A     -1.036577    14A     -1.025092    15A     -0.877775
      16A     -0.837793    17A     -0.789546    18A     -0.744095
      19A     -0.696594    20A     -0.672879    21A     -0.636698
      22A     -0.620445    23A     -0.600559    24A     -0.595812
      25A     -0.573000    26A     -0.520298    27A     -0.505962
      28A     -0.503073    29A     -0.436977    30A     -0.425014
      31A     -0.348843    32A     -0.344061

  @DF-RHF Final Energy:  -398.62578263634373

   => Energetics <=

    Nuclear Repulsion Energy =            404.8362897360663055
    One-Electron Energy =               -1343.8635989542322022
    Two-Electron Energy =                 540.4015265818221678
    Total Energy =                       -398.6257826363437289
  Basis Set: (AUG-CC-PVTZ AUX)
    Blend: AUG-CC-PVTZ-RI
    Molecular point group: c1

    Geometry (in Angstrom), charge = 0, multiplicity = 1:

       Center              X                  Y                   Z               Mass
    ------------   -----------------  -----------------  -----------------  -----------------
         O            2.170466524254    -1.188907449045    -0.377678757423    15.994914619570
         N            2.383044424254     1.045378550955     0.311755942577    14.003074004430
         C            0.211447424254     0.001978550955    -0.008828057423    12.000000000000
         C           -0.461606575746     1.219668550955    -0.176029057423    12.000000000000
         C           -0.518300575746    -1.180384449045     0.162961942577    12.000000000000
         C           -1.856816575746     1.251412550955    -0.153696057423    12.000000000000
         C           -1.910853575746    -1.141546449045     0.193057942577    12.000000000000
         C           -2.583164575746     0.074431550955     0.039264942577    12.000000000000
         C            1.704187424254    -0.102991449045    -0.031723057423    12.000000000000
         H            0.097988424254     2.132594550955    -0.366184057423     1.007825032230
         H            0.023988424254    -2.116428449045     0.264834942577     1.007825032230
         H           -2.377761575746     2.195359550955    -0.295034057423     1.007825032230
         H           -2.474814575746    -2.060327449045     0.334704942577     1.007825032230
         H           -3.669982575746     0.102818550955     0.058847942577     1.007825032230
         H            1.938021424254     1.707754550955     0.932558942577     1.007825032230
         H            3.381579424254     0.922790550955     0.434887942577     1.007825032230

  Basis Set: AUG-CC-PVTZ
    Blend: AUG-CC-PVTZ
  Basis Set: (AUG-CC-PVTZ AUX)
    Blend: AUG-CC-PVTZ-JKFIT
	 Reference Energy          =    -398.6257826363437289 [Eh]
	 Singles Energy            =      -0.0000000000000000 [Eh]
	 Same-Spin Energy          =      -0.4250747498534496 [Eh]
	 Opposite-Spin Energy      =      -1.3029454383323191 [Eh]
	 Correlation Energy        =      -1.7280201881857686 [Eh]
	 Total Energy              =    -400.3538028245295095 [Eh]

	 ================> DF-SCS-MP2 Energies <==================
	-----------------------------------------------------------
	 SCS Same-Spin Scale       =       0.3333333333333333 [-]
	 SCS Opposite-Spin Scale   =       1.2000000000000000 [-]
	 SCS Same-Spin Energy      =      -0.1416915832844832 [Eh]
	 SCS Opposite-Spin Energy  =      -1.5635345259987830 [Eh]
	 SCS Correlation Energy    =      -1.7052261092832661 [Eh]
	 SCS Total Energy          =    -400.3310087456270026 [Eh]
	-----------------------------------------------------------

  Dipole Moment: [D]
     X:    -1.0914      Y:     2.7841      Z:     1.6834     Total:     3.4317

*** Psi4 exiting successfully. Buy a developer a beer!
