                               Psi4 1.3.2 release

  ==> Input File <==

--------------------------------------------------------------------------
#psi4
#
memory 32 gb

molecule  {
0 1
  O       -2.1484710    -1.7769200    -0.0056360
  N       -0.1180990    -0.7430760    -0.2511680
  C        0.6158204     0.4155634    -0.2654595
  C        2.1818620     0.0407190    -0.5352160
  C        0.2064650     1.5802430    -0.0751780
  C        2.8433400    -0.6629840     0.6549670
  C       -1.5021630    -0.7229610    -0.0075890
  C       -1.1865830     1.7077900     0.1829230
  C       -2.0093520     0.6149060     0.2198470
  H        2.2852110    -0.5739760    -1.4389020
  H        2.6915310     0.9874470    -0.7394040
  H        0.2447490    -1.6791740    -0.4204020
  H        0.8548030     2.4492830    -0.1032540
  H        3.9041830    -0.8397700     0.4571160
  H        2.3740450    -1.6291400     0.8604190
  H        2.7566000    -0.0487500     1.5548580
  H       -1.6048580     2.6974250     0.3552120
  H       -3.0731340     0.7034120     0.4140280
units angstrom
no_reorient  #important for SAPT in psi4, default
symmetry c1  #important for SAPT in psi4, default
}

set PROPERTIES_ORIGIN ["COM"]
properties('MP2/aug-cc-pvtz', properties = ['dipole'])
--------------------------------------------------------------------------

    Molecular point group: c1
  Charge       = 0
  Multiplicity = 1
  Basis Set: AUG-CC-PVTZ
    Blend: AUG-CC-PVTZ
  Basis Set: (AUG-CC-PVTZ AUX)
    Blend: AUG-CC-PVTZ-JKFIT

    Orbital Energies [Eh]
    ---------------------

    Doubly Occupied:

       1A    -20.508468     2A    -15.615238     3A    -11.349602
       4A    -11.298932     5A    -11.272644     6A    -11.260372
       7A    -11.237679     8A    -11.236818     9A    -11.223608
      10A     -1.367752    11A     -1.272369    12A     -1.119259
      13A     -1.069931    14A     -1.015124    15A     -0.891189
      16A     -0.869725    17A     -0.825637    18A     -0.748020
      19A     -0.698808    20A     -0.661966    21A     -0.628950
      22A     -0.623746    23A     -0.610241    24A     -0.598159
      25A     -0.564106    26A     -0.561728    27A     -0.535207
      28A     -0.512715    29A     -0.488826    30A     -0.480214
      31A     -0.421953    32A     -0.416452    33A     -0.325051

  @DF-RHF Final Energy:  -399.75971707100962

   => Energetics <=

    Nuclear Repulsion Energy =            427.5320465181080181
    One-Electron Energy =               -1389.9625504352734424
    Two-Electron Energy =                 562.6707868461558064
    Total Energy =                       -399.7597170710096179
  Basis Set: (AUG-CC-PVTZ AUX)
    Blend: AUG-CC-PVTZ-RI
    Molecular point group: c1

    Geometry (in Angstrom), charge = 0, multiplicity = 1:

       Center              X                  Y                   Z               Mass
    ------------   -----------------  -----------------  -----------------  -----------------
         O           -2.053313221546    -1.768268018304    -0.001014883530    15.994914619570
         N           -0.022941221546    -0.734424018304    -0.246546883530    14.003074004430
         C            0.710978178454     0.424215381696    -0.260838383530    12.000000000000
         C            2.277019778454     0.049370981696    -0.530594883530    12.000000000000
         C            0.301622778454     1.588894981696    -0.070556883530    12.000000000000
         C            2.938497778454    -0.654332018304     0.659588116470    12.000000000000
         C           -1.407005221546    -0.714309018304    -0.002967883530    12.000000000000
         C           -1.091425221546     1.716441981696     0.187544116470    12.000000000000
         C           -1.914194221546     0.623557981696     0.224468116470    12.000000000000
         H            2.380368778454    -0.565324018304    -1.434280883530     1.007825032230
         H            2.786688778454     0.996098981696    -0.734782883530     1.007825032230
         H            0.339906778454    -1.670522018304    -0.415780883530     1.007825032230
         H            0.949960778454     2.457934981696    -0.098632883530     1.007825032230
         H            3.999340778454    -0.831118018304     0.461737116470     1.007825032230
         H            2.469202778454    -1.620488018304     0.865040116470     1.007825032230
         H            2.851757778454    -0.040098018304     1.559479116470     1.007825032230
         H           -1.509700221546     2.706076981696     0.359833116470     1.007825032230
         H           -2.977976221546     0.712063981696     0.418649116470     1.007825032230

  Basis Set: AUG-CC-PVTZ
    Blend: AUG-CC-PVTZ
  Basis Set: (AUG-CC-PVTZ AUX)
    Blend: AUG-CC-PVTZ-JKFIT
	 Reference Energy          =    -399.7597170710096179 [Eh]
	 Singles Energy            =      -0.0000000000000000 [Eh]
	 Same-Spin Energy          =      -0.4201477502399575 [Eh]
	 Opposite-Spin Energy      =      -1.3353794028431416 [Eh]
	 Correlation Energy        =      -1.7555271530830991 [Eh]
	 Total Energy              =    -401.5152442240927257 [Eh]

	 ================> DF-SCS-MP2 Energies <==================
	-----------------------------------------------------------
	 SCS Same-Spin Scale       =       0.3333333333333333 [-]
	 SCS Opposite-Spin Scale   =       1.2000000000000000 [-]
	 SCS Same-Spin Energy      =      -0.1400492500799858 [Eh]
	 SCS Opposite-Spin Energy  =      -1.6024552834117698 [Eh]
	 SCS Correlation Energy    =      -1.7425045334917557 [Eh]
	 SCS Total Energy          =    -401.5022216045013579 [Eh]
	-----------------------------------------------------------

  Dipole Moment: [D]
     X:     3.7799      Y:     2.7018      Z:    -0.2310     Total:     4.6520

*** Psi4 exiting successfully. Buy a developer a beer!
