                               Psi4 1.4a3.dev225

  ==> Input File <==

--------------------------------------------------------------------------
#psi4
#
memory 32 gb

molecule  {
0 1
  O       -2.1484710    -1.7769200    -0.0056360
  N       -0.1180990    -0.7430760    -0.2511680
  C        0.7299860     0.3339780    -0.2958210
  C        2.2012150     0.0368100    -0.5384070
  C        0.2064650     1.5802430    -0.0751780
  C        2.8433400    -0.6629840     0.6549670
  C       -1.5021630    -0.7229610    -0.0075890
  C       -1.1865830     1.7077900     0.1829230
  C       -2.0093520     0.6149060     0.2198470
  H        2.2852110    -0.5739760    -1.4389020
  H        2.6915310     0.9874470    -0.7394040
  H        0.2447490    -1.6791740    -0.4204020
  H        0.8548030     2.4492830    -0.1032540
  H        3.9041830    -0.8397700     0.4571160
  H        2.3740450    -1.6291400     0.8604190
  H        2.7566000    -0.0487500     1.5548580
  H       -1.6048580     2.6974250     0.3552120
  H       -3.0731340     0.7034120     0.4140280
units angstrom
no_reorient  #important for SAPT in psi4, default
symmetry c1  #important for SAPT in psi4, default
}

set PROPERTIES_ORIGIN ["COM"]
properties('MP2/aug-cc-pvtz', properties = ['dipole'])
--------------------------------------------------------------------------

    Molecular point group: c1
  Charge       = 0
  Multiplicity = 1
  Basis Set: AUG-CC-PVTZ
    Blend: AUG-CC-PVTZ
  Basis Set: (AUG-CC-PVTZ AUX)
    Blend: AUG-CC-PVTZ-JKFIT

    Orbital Energies [Eh]
    ---------------------

    Doubly Occupied:

       1A    -20.506674     2A    -15.620140     3A    -11.350979
       4A    -11.315441     5A    -11.270413     6A    -11.261611
       7A    -11.241795     8A    -11.234844     9A    -11.233812
      10A     -1.366782    11A     -1.271752    12A     -1.102217
      13A     -1.086530    14A     -1.005115    15A     -0.901407
      16A     -0.866711    17A     -0.834203    18A     -0.737164
      19A     -0.692023    20A     -0.661352    21A     -0.636654
      22A     -0.627881    23A     -0.611647    24A     -0.598715
      25A     -0.562930    26A     -0.552842    27A     -0.543716
      28A     -0.523948    29A     -0.510027    30A     -0.469895
      31A     -0.420545    32A     -0.419886    33A     -0.307522

  @DF-RHF Final Energy:  -399.78332959411404

   => Energetics <=

    Nuclear Repulsion Energy =            426.3317285883995851
    One-Electron Energy =               -1387.5357711833134999
    Two-Electron Energy =                 561.4207130007999922
    Total Energy =                       -399.7833295941139795
  Basis Set: (AUG-CC-PVTZ AUX)
    Blend: AUG-CC-PVTZ-RI
    Molecular point group: c1

    Geometry (in Angstrom), charge = 0, multiplicity = 1:

       Center              X                  Y                   Z               Mass
    ------------   -----------------  -----------------  -----------------  -----------------
         O           -2.066332185137    -1.759931737959     0.002256711408    15.994914619570
         N           -0.035960185137    -0.726087737959    -0.243275288592    14.003074004430
         C            0.812124814863     0.350966262041    -0.287928288592    12.000000000000
         C            2.283353814863     0.053798262041    -0.530514288592    12.000000000000
         C            0.288603814863     1.597231262041    -0.067285288592    12.000000000000
         C            2.925478814863    -0.645995737959     0.662859711408    12.000000000000
         C           -1.420024185137    -0.705972737959     0.000303711408    12.000000000000
         C           -1.104444185137     1.724778262041     0.190815711408    12.000000000000
         C           -1.927213185137     0.631894262041     0.227739711408    12.000000000000
         H            2.367349814863    -0.556987737959    -1.431009288592     1.007825032230
         H            2.773669814863     1.004435262041    -0.731511288592     1.007825032230
         H            0.326887814863    -1.662185737959    -0.412509288592     1.007825032230
         H            0.936941814863     2.466271262041    -0.095361288592     1.007825032230
         H            3.986321814863    -0.822781737959     0.465008711408     1.007825032230
         H            2.456183814863    -1.612151737959     0.868311711408     1.007825032230
         H            2.838738814863    -0.031761737959     1.562750711408     1.007825032230
         H           -1.522719185137     2.714413262041     0.363104711408     1.007825032230
         H           -2.990995185137     0.720400262041     0.421920711408     1.007825032230

  Basis Set: AUG-CC-PVTZ
    Blend: AUG-CC-PVTZ
  Basis Set: (AUG-CC-PVTZ AUX)
    Blend: AUG-CC-PVTZ-JKFIT
	 Reference Energy          =    -399.7833295941140364 [Eh]
	 Singles Energy            =      -0.0000000000000000 [Eh]
	 Same-Spin Energy          =      -0.4220872710242510 [Eh]
	 Opposite-Spin Energy      =      -1.3370527535559820 [Eh]
	 Correlation Energy        =      -1.7591400245802329 [Eh]
	 Total Energy              =    -401.5424696186942697 [Eh]

	 ================> DF-SCS-MP2 Energies <==================
	-----------------------------------------------------------
	 SCS Same-Spin Scale       =       0.3333333333333333 [-]
	 SCS Opposite-Spin Scale   =       1.2000000000000000 [-]
	 SCS Same-Spin Energy      =      -0.1406957570080836 [Eh]
	 SCS Opposite-Spin Energy  =      -1.6044633042671783 [Eh]
	 SCS Correlation Energy    =      -1.7451590612752619 [Eh]
	 SCS Total Energy          =    -401.5284886553893102 [Eh]
	-----------------------------------------------------------

  Dipole Moment: [D]
     X:     4.1001      Y:     2.5743      Z:    -0.2742     Total:     4.8490

*** Psi4 exiting successfully. Buy a developer a beer!
