                               Psi4 1.3.2 release

  ==> Input File <==

--------------------------------------------------------------------------
#psi4
#
memory 32 gb

molecule  {
0 1
  O       -2.1484710    -1.7769200    -0.0056360
  N       -0.1180990    -0.7430760    -0.2511680
  C        0.7299860     0.3339780    -0.2958210
  C        2.0850972     0.0602642    -0.5192608
  C        0.2064650     1.5802430    -0.0751780
  C        2.8433400    -0.6629840     0.6549670
  C       -1.5021630    -0.7229610    -0.0075890
  C       -1.1865830     1.7077900     0.1829230
  C       -2.0093520     0.6149060     0.2198470
  H        2.2852110    -0.5739760    -1.4389020
  H        2.6915310     0.9874470    -0.7394040
  H        0.2447490    -1.6791740    -0.4204020
  H        0.8548030     2.4492830    -0.1032540
  H        3.9041830    -0.8397700     0.4571160
  H        2.3740450    -1.6291400     0.8604190
  H        2.7566000    -0.0487500     1.5548580
  H       -1.6048580     2.6974250     0.3552120
  H       -3.0731340     0.7034120     0.4140280
units angstrom
no_reorient  #important for SAPT in psi4, default
symmetry c1  #important for SAPT in psi4, default
}

set PROPERTIES_ORIGIN ["COM"]
properties('MP2/aug-cc-pvtz', properties = ['dipole'])
--------------------------------------------------------------------------

    Molecular point group: c1
  Charge       = 0
  Multiplicity = 1
  Basis Set: AUG-CC-PVTZ
    Blend: AUG-CC-PVTZ
  Basis Set: (AUG-CC-PVTZ AUX)
    Blend: AUG-CC-PVTZ-JKFIT

    Orbital Energies [Eh]
    ---------------------

    Doubly Occupied:

       1A    -20.507314     2A    -15.619600     3A    -11.351554
       4A    -11.310644     5A    -11.270884     6A    -11.261699
       7A    -11.245502     8A    -11.236264     9A    -11.234938
      10A     -1.367628    11A     -1.276289    12A     -1.104499
      13A     -1.094206    14A     -1.000677    15A     -0.910686
      16A     -0.868876    17A     -0.830495    18A     -0.737272
      19A     -0.694840    20A     -0.670793    21A     -0.640348
      22A     -0.622019    23A     -0.609129    24A     -0.601339
      25A     -0.566724    26A     -0.554218    27A     -0.535383
      28A     -0.529075    29A     -0.503310    30A     -0.463478
      31A     -0.422027    32A     -0.420486    33A     -0.307269

  @DF-RHF Final Energy:  -399.77113527873797

   => Energetics <=

    Nuclear Repulsion Energy =            428.0761781088556290
    One-Electron Energy =               -1390.9556976895810294
    Two-Electron Energy =                 563.1083843019873711
    Total Energy =                       -399.7711352787380292
  Basis Set: (AUG-CC-PVTZ AUX)
    Blend: AUG-CC-PVTZ-RI
    Molecular point group: c1

    Geometry (in Angstrom), charge = 0, multiplicity = 1:

       Center              X                  Y                   Z               Mass
    ------------   -----------------  -----------------  -----------------  -----------------
         O           -2.055009916850    -1.762218680571     0.000389827837    15.994914619570
         N           -0.024637916850    -0.728374680571    -0.245142172163    14.003074004430
         C            0.823447083150     0.348679319429    -0.289795172163    12.000000000000
         C            2.178558283150     0.074965519429    -0.513234972163    12.000000000000
         C            0.299926083150     1.594944319429    -0.069152172163    12.000000000000
         C            2.936801083150    -0.648282680571     0.660992827837    12.000000000000
         C           -1.408701916850    -0.708259680571    -0.001563172163    12.000000000000
         C           -1.093121916850     1.722491319429     0.188948827837    12.000000000000
         C           -1.915890916850     0.629607319429     0.225872827837    12.000000000000
         H            2.378672083150    -0.559274680571    -1.432876172163     1.007825032230
         H            2.784992083150     1.002148319429    -0.733378172163     1.007825032230
         H            0.338210083150    -1.664472680571    -0.414376172163     1.007825032230
         H            0.948264083150     2.463984319429    -0.097228172163     1.007825032230
         H            3.997644083150    -0.825068680571     0.463141827837     1.007825032230
         H            2.467506083150    -1.614438680571     0.866444827837     1.007825032230
         H            2.850061083150    -0.034048680571     1.560883827837     1.007825032230
         H           -1.511396916850     2.712126319429     0.361237827837     1.007825032230
         H           -2.979672916850     0.718113319429     0.420053827837     1.007825032230

  Basis Set: AUG-CC-PVTZ
    Blend: AUG-CC-PVTZ
  Basis Set: (AUG-CC-PVTZ AUX)
    Blend: AUG-CC-PVTZ-JKFIT
	 Reference Energy          =    -399.7711352787379724 [Eh]
	 Singles Energy            =      -0.0000000000000000 [Eh]
	 Same-Spin Energy          =      -0.4233938018484623 [Eh]
	 Opposite-Spin Energy      =      -1.3387425671578170 [Eh]
	 Correlation Energy        =      -1.7621363690062792 [Eh]
	 Total Energy              =    -401.5332716477442432 [Eh]

	 ================> DF-SCS-MP2 Energies <==================
	-----------------------------------------------------------
	 SCS Same-Spin Scale       =       0.3333333333333333 [-]
	 SCS Opposite-Spin Scale   =       1.2000000000000000 [-]
	 SCS Same-Spin Energy      =      -0.1411312672828208 [Eh]
	 SCS Opposite-Spin Energy  =      -1.6064910805893804 [Eh]
	 SCS Correlation Energy    =      -1.7476223478722011 [Eh]
	 SCS Total Energy          =    -401.5187576266101814 [Eh]
	-----------------------------------------------------------

  Dipole Moment: [D]
     X:     4.0701      Y:     2.5968      Z:    -0.2630     Total:     4.8351

*** Psi4 exiting successfully. Buy a developer a beer!
