                               Psi4 1.3.2 release

  ==> Input File <==

--------------------------------------------------------------------------
#psi4
#
memory 32 gb

molecule  {
0 1
  O       -2.1484710    -1.7769200    -0.0056360
  N       -0.1180990    -0.7430760    -0.2511680
  C        0.7299860     0.3339780    -0.2958210
  C        2.3753915     0.0016287    -0.5671264
  C        0.2064650     1.5802430    -0.0751780
  C        2.8433400    -0.6629840     0.6549670
  C       -1.5021630    -0.7229610    -0.0075890
  C       -1.1865830     1.7077900     0.1829230
  C       -2.0093520     0.6149060     0.2198470
  H        2.2852110    -0.5739760    -1.4389020
  H        2.6915310     0.9874470    -0.7394040
  H        0.2447490    -1.6791740    -0.4204020
  H        0.8548030     2.4492830    -0.1032540
  H        3.9041830    -0.8397700     0.4571160
  H        2.3740450    -1.6291400     0.8604190
  H        2.7566000    -0.0487500     1.5548580
  H       -1.6048580     2.6974250     0.3552120
  H       -3.0731340     0.7034120     0.4140280
units angstrom
no_reorient  #important for SAPT in psi4, default
symmetry c1  #important for SAPT in psi4, default
}

set PROPERTIES_ORIGIN ["COM"]
properties('MP2/aug-cc-pvtz', properties = ['dipole'])
--------------------------------------------------------------------------

    Molecular point group: c1
  Charge       = 0
  Multiplicity = 1
  Basis Set: AUG-CC-PVTZ
    Blend: AUG-CC-PVTZ
  Basis Set: (AUG-CC-PVTZ AUX)
    Blend: AUG-CC-PVTZ-JKFIT

    Orbital Energies [Eh]
    ---------------------

    Doubly Occupied:

       1A    -20.504714     2A    -15.619023     3A    -11.348837
       4A    -11.315215     5A    -11.268802     6A    -11.268526
       7A    -11.241272     8A    -11.231652     9A    -11.231079
      10A     -1.364567    11A     -1.265943    12A     -1.099038
      13A     -1.085577    14A     -1.007795    15A     -0.892973
      16A     -0.864213    17A     -0.836843    18A     -0.735224
      19A     -0.689430    20A     -0.657270    21A     -0.643141
      22A     -0.626792    23A     -0.609629    24A     -0.597844
      25A     -0.575874    26A     -0.552879    27A     -0.549611
      28A     -0.533063    29A     -0.476616    30A     -0.469708
      31A     -0.417743    32A     -0.414220    33A     -0.305477

  @DF-RHF Final Energy:  -399.75419557160933

   => Energetics <=

    Nuclear Repulsion Energy =            423.9459094897974865
    One-Electron Energy =               -1382.7990311944311088
    Two-Electron Energy =                 559.0989261330242925
    Total Energy =                       -399.7541955716093298
  Basis Set: (AUG-CC-PVTZ AUX)
    Blend: AUG-CC-PVTZ-RI
    Molecular point group: c1

    Geometry (in Angstrom), charge = 0, multiplicity = 1:

       Center              X                  Y                   Z               Mass
    ------------   -----------------  -----------------  -----------------  -----------------
         O           -2.083315568066    -1.756501324040     0.005057046515    15.994914619570
         N           -0.052943568066    -0.722657324040    -0.240474953485    14.003074004430
         C            0.795141431934     0.354396675960    -0.285127953485    12.000000000000
         C            2.440546931934     0.022047375960    -0.556433353485    12.000000000000
         C            0.271620431934     1.600661675960    -0.064484953485    12.000000000000
         C            2.908495431934    -0.642565324040     0.665660046515    12.000000000000
         C           -1.437007568066    -0.702542324040     0.003104046515    12.000000000000
         C           -1.121427568066     1.728208675960     0.193616046515    12.000000000000
         C           -1.944196568066     0.635324675960     0.230540046515    12.000000000000
         H            2.350366431934    -0.553557324040    -1.428208953485     1.007825032230
         H            2.756686431934     1.007865675960    -0.728710953485     1.007825032230
         H            0.309904431934    -1.658755324040    -0.409708953485     1.007825032230
         H            0.919958431934     2.469701675960    -0.092560953485     1.007825032230
         H            3.969338431934    -0.819351324040     0.467809046515     1.007825032230
         H            2.439200431934    -1.608721324040     0.871112046515     1.007825032230
         H            2.821755431934    -0.028331324040     1.565551046515     1.007825032230
         H           -1.539702568066     2.717843675960     0.365905046515     1.007825032230
         H           -3.007978568066     0.723830675960     0.424721046515     1.007825032230

  Basis Set: AUG-CC-PVTZ
    Blend: AUG-CC-PVTZ
  Basis Set: (AUG-CC-PVTZ AUX)
    Blend: AUG-CC-PVTZ-JKFIT
	 Reference Energy          =    -399.7541955716093298 [Eh]
	 Singles Energy            =      -0.0000000000000000 [Eh]
	 Same-Spin Energy          =      -0.4224542512808658 [Eh]
	 Opposite-Spin Energy      =      -1.3384403572267312 [Eh]
	 Correlation Energy        =      -1.7608946085075969 [Eh]
	 Total Energy              =    -401.5150901801169425 [Eh]

	 ================> DF-SCS-MP2 Energies <==================
	-----------------------------------------------------------
	 SCS Same-Spin Scale       =       0.3333333333333333 [-]
	 SCS Opposite-Spin Scale   =       1.2000000000000000 [-]
	 SCS Same-Spin Energy      =      -0.1408180837602886 [Eh]
	 SCS Opposite-Spin Energy  =      -1.6061284286720774 [Eh]
	 SCS Correlation Energy    =      -1.7469465124323660 [Eh]
	 SCS Total Energy          =    -401.5011420840417031 [Eh]
	-----------------------------------------------------------

  Dipole Moment: [D]
     X:     4.2102      Y:     2.5273      Z:    -0.2612     Total:     4.9175

*** Psi4 exiting successfully. Buy a developer a beer!
