                               Psi4 1.3.2 release

  ==> Input File <==

--------------------------------------------------------------------------
#psi4
#
memory 32 gb

molecule  {
0 1
  O       -2.1484710    -1.7769200    -0.0056360
  N       -0.0806292    -0.7718392    -0.2589623
  C        0.7299860     0.3339780    -0.2958210
  C        2.1818620     0.0407190    -0.5352160
  C        0.2064650     1.5802430    -0.0751780
  C        2.8433400    -0.6629840     0.6549670
  C       -1.5021630    -0.7229610    -0.0075890
  C       -1.1865830     1.7077900     0.1829230
  C       -2.0093520     0.6149060     0.2198470
  H        2.2852110    -0.5739760    -1.4389020
  H        2.6915310     0.9874470    -0.7394040
  H        0.2447490    -1.6791740    -0.4204020
  H        0.8548030     2.4492830    -0.1032540
  H        3.9041830    -0.8397700     0.4571160
  H        2.3740450    -1.6291400     0.8604190
  H        2.7566000    -0.0487500     1.5548580
  H       -1.6048580     2.6974250     0.3552120
  H       -3.0731340     0.7034120     0.4140280
units angstrom
no_reorient  #important for SAPT in psi4, default
symmetry c1  #important for SAPT in psi4, default
}

set PROPERTIES_ORIGIN ["COM"]
properties('MP2/aug-cc-pvtz', properties = ['dipole'])
--------------------------------------------------------------------------

    Molecular point group: c1
  Charge       = 0
  Multiplicity = 1
  Basis Set: AUG-CC-PVTZ
    Blend: AUG-CC-PVTZ
  Basis Set: (AUG-CC-PVTZ AUX)
    Blend: AUG-CC-PVTZ-JKFIT

    Orbital Energies [Eh]
    ---------------------

    Doubly Occupied:

       1A    -20.511131     2A    -15.616165     3A    -11.355595
       4A    -11.315430     5A    -11.272275     6A    -11.259054
       7A    -11.241108     8A    -11.234617     9A    -11.234430
      10A     -1.366335    11A     -1.270926    12A     -1.104742
      13A     -1.084324    14A     -1.002479    15A     -0.903568
      16A     -0.868270    17A     -0.826815    18A     -0.743953
      19A     -0.692152    20A     -0.665427    21A     -0.637700
      22A     -0.625343    23A     -0.610431    24A     -0.596112
      25A     -0.563282    26A     -0.555690    27A     -0.540577
      28A     -0.522279    29A     -0.510929    30A     -0.470667
      31A     -0.421636    32A     -0.421363    33A     -0.306912

  @DF-RHF Final Energy:  -399.78081183566758

   => Energetics <=

    Nuclear Repulsion Energy =            426.0107078927318298
    One-Electron Energy =               -1386.8796003766965441
    Two-Electron Energy =                 561.0880806482971366
    Total Energy =                       -399.7808118356675777
  Basis Set: (AUG-CC-PVTZ AUX)
    Blend: AUG-CC-PVTZ-RI
    Molecular point group: c1

    Geometry (in Angstrom), charge = 0, multiplicity = 1:

       Center              X                  Y                   Z               Mass
    ------------   -----------------  -----------------  -----------------  -----------------
         O           -2.068708557539    -1.757040133144     0.002832425009    15.994914619570
         N           -0.000866757539    -0.751959333144    -0.250493874991    14.003074004430
         C            0.809748442461     0.353857866856    -0.287352574991    12.000000000000
         C            2.261624442461     0.060598866856    -0.526747574991    12.000000000000
         C            0.286227442461     1.600122866856    -0.066709574991    12.000000000000
         C            2.923102442461    -0.643104133144     0.663435425009    12.000000000000
         C           -1.422400557539    -0.703081133144     0.000879425009    12.000000000000
         C           -1.106820557539     1.727669866856     0.191391425009    12.000000000000
         C           -1.929589557539     0.634785866856     0.228315425009    12.000000000000
         H            2.364973442461    -0.554096133144    -1.430433574991     1.007825032230
         H            2.771293442461     1.007326866856    -0.730935574991     1.007825032230
         H            0.324511442461    -1.659294133144    -0.411933574991     1.007825032230
         H            0.934565442461     2.469162866856    -0.094785574991     1.007825032230
         H            3.983945442461    -0.819890133144     0.465584425009     1.007825032230
         H            2.453807442461    -1.609260133144     0.868887425009     1.007825032230
         H            2.836362442461    -0.028870133144     1.563326425009     1.007825032230
         H           -1.525095557539     2.717304866856     0.363680425009     1.007825032230
         H           -2.993371557539     0.723291866856     0.422496425009     1.007825032230

  Basis Set: AUG-CC-PVTZ
    Blend: AUG-CC-PVTZ
  Basis Set: (AUG-CC-PVTZ AUX)
    Blend: AUG-CC-PVTZ-JKFIT
	 Reference Energy          =    -399.7808118356675777 [Eh]
	 Singles Energy            =      -0.0000000000000000 [Eh]
	 Same-Spin Energy          =      -0.4218456582071013 [Eh]
	 Opposite-Spin Energy      =      -1.3369945042902698 [Eh]
	 Correlation Energy        =      -1.7588401624973711 [Eh]
	 Total Energy              =    -401.5396519981649703 [Eh]

	 ================> DF-SCS-MP2 Energies <==================
	-----------------------------------------------------------
	 SCS Same-Spin Scale       =       0.3333333333333333 [-]
	 SCS Opposite-Spin Scale   =       1.2000000000000000 [-]
	 SCS Same-Spin Energy      =      -0.1406152194023671 [Eh]
	 SCS Opposite-Spin Energy  =      -1.6043934051483237 [Eh]
	 SCS Correlation Energy    =      -1.7450086245506908 [Eh]
	 SCS Total Energy          =    -401.5258204602182559 [Eh]
	-----------------------------------------------------------

  Dipole Moment: [D]
     X:     3.9073      Y:     2.5319      Z:    -0.2550     Total:     4.6629

*** Psi4 exiting successfully. Buy a developer a beer!
