                               Psi4 1.3.2 release

  ==> Input File <==

--------------------------------------------------------------------------
#psi4
#
memory 32 gb

molecule  {
0 1
  O       -2.1484710    -1.7769200    -0.0056360
  N       -0.1180990    -0.7430760    -0.2511680
  C        0.8013098     0.2728021    -0.3141476
  C        2.1818620     0.0407190    -0.5352160
  C        0.2064650     1.5802430    -0.0751780
  C        2.8433400    -0.6629840     0.6549670
  C       -1.5021630    -0.7229610    -0.0075890
  C       -1.1865830     1.7077900     0.1829230
  C       -2.0093520     0.6149060     0.2198470
  H        2.2852110    -0.5739760    -1.4389020
  H        2.6915310     0.9874470    -0.7394040
  H        0.2447490    -1.6791740    -0.4204020
  H        0.8548030     2.4492830    -0.1032540
  H        3.9041830    -0.8397700     0.4571160
  H        2.3740450    -1.6291400     0.8604190
  H        2.7566000    -0.0487500     1.5548580
  H       -1.6048580     2.6974250     0.3552120
  H       -3.0731340     0.7034120     0.4140280
units angstrom
no_reorient  #important for SAPT in psi4, default
symmetry c1  #important for SAPT in psi4, default
}

set PROPERTIES_ORIGIN ["COM"]
properties('MP2/aug-cc-pvtz', properties = ['dipole'])
--------------------------------------------------------------------------

    Molecular point group: c1
  Charge       = 0
  Multiplicity = 1
  Basis Set: AUG-CC-PVTZ
    Blend: AUG-CC-PVTZ
  Basis Set: (AUG-CC-PVTZ AUX)
    Blend: AUG-CC-PVTZ-JKFIT

    Orbital Energies [Eh]
    ---------------------

    Doubly Occupied:

       1A    -20.505345     2A    -15.624928     3A    -11.351802
       4A    -11.326533     5A    -11.268728     6A    -11.261512
       7A    -11.247025     8A    -11.241221     9A    -11.230363
      10A     -1.366438    11A     -1.274311    12A     -1.105250
      13A     -1.094734    14A     -0.996292    15A     -0.912557
      16A     -0.861810    17A     -0.839019    18A     -0.731094
      19A     -0.692730    20A     -0.669709    21A     -0.642842
      22A     -0.629455    23A     -0.610892    24A     -0.598499
      25A     -0.565446    26A     -0.547483    27A     -0.543751
      28A     -0.536613    29A     -0.508237    30A     -0.463717
      31A     -0.421735    32A     -0.418582    33A     -0.295172

  @DF-RHF Final Energy:  -399.76585194460728

   => Energetics <=

    Nuclear Repulsion Energy =            426.2240062151765301
    One-Electron Energy =               -1387.2120671040108846
    Two-Electron Energy =                 561.2222089442269635
    Total Energy =                       -399.7658519446073342
  Basis Set: (AUG-CC-PVTZ AUX)
    Blend: AUG-CC-PVTZ-RI
    Molecular point group: c1

    Geometry (in Angstrom), charge = 0, multiplicity = 1:

       Center              X                  Y                   Z               Mass
    ------------   -----------------  -----------------  -----------------  -----------------
         O           -2.071399688489    -1.754347829154     0.003732534442    15.994914619570
         N           -0.041027688489    -0.720503829154    -0.241799465558    14.003074004430
         C            0.878381111511     0.295374270846    -0.304779065558    12.000000000000
         C            2.258933311511     0.063291170846    -0.525847465558    12.000000000000
         C            0.283536311511     1.602815170846    -0.065809465558    12.000000000000
         C            2.920411311511    -0.640411829154     0.664335534442    12.000000000000
         C           -1.425091688489    -0.700388829154     0.001779534442    12.000000000000
         C           -1.109511688489     1.730362170846     0.192291534442    12.000000000000
         C           -1.932280688489     0.637478170846     0.229215534442    12.000000000000
         H            2.362282311511    -0.551403829154    -1.429533465558     1.007825032230
         H            2.768602311511     1.010019170846    -0.730035465558     1.007825032230
         H            0.321820311511    -1.656601829154    -0.411033465558     1.007825032230
         H            0.931874311511     2.471855170846    -0.093885465558     1.007825032230
         H            3.981254311511    -0.817197829154     0.466484534442     1.007825032230
         H            2.451116311511    -1.606567829154     0.869787534442     1.007825032230
         H            2.833671311511    -0.026177829154     1.564226534442     1.007825032230
         H           -1.527786688489     2.719997170846     0.364580534442     1.007825032230
         H           -2.996062688489     0.725984170846     0.423396534442     1.007825032230

  Basis Set: AUG-CC-PVTZ
    Blend: AUG-CC-PVTZ
  Basis Set: (AUG-CC-PVTZ AUX)
    Blend: AUG-CC-PVTZ-JKFIT
	 Reference Energy          =    -399.7658519446072773 [Eh]
	 Singles Energy            =      -0.0000000000000000 [Eh]
	 Same-Spin Energy          =      -0.4247553960963903 [Eh]
	 Opposite-Spin Energy      =      -1.3403092795424665 [Eh]
	 Correlation Energy        =      -1.7650646756388568 [Eh]
	 Total Energy              =    -401.5309166202461597 [Eh]

	 ================> DF-SCS-MP2 Energies <==================
	-----------------------------------------------------------
	 SCS Same-Spin Scale       =       0.3333333333333333 [-]
	 SCS Opposite-Spin Scale   =       1.2000000000000000 [-]
	 SCS Same-Spin Energy      =      -0.1415851320321301 [Eh]
	 SCS Opposite-Spin Energy  =      -1.6083711354509598 [Eh]
	 SCS Correlation Energy    =      -1.7499562674830900 [Eh]
	 SCS Total Energy          =    -401.5158082120903487 [Eh]
	-----------------------------------------------------------

  Dipole Moment: [D]
     X:     4.3043      Y:     2.5036      Z:    -0.2987     Total:     4.9884

*** Psi4 exiting successfully. Buy a developer a beer!
