                               Psi4 1.3.2 release

  ==> Input File <==

--------------------------------------------------------------------------
#psi4
#
memory 32 gb

molecule  {
0 1
  O       -2.1484710    -1.7769200    -0.0056360
  N       -0.1180990    -0.7430760    -0.2511680
  C        0.7482179     0.2671331    -0.1548793
  C        2.1818620     0.0407190    -0.5352160
  C        0.2064650     1.5802430    -0.0751780
  C        2.8433400    -0.6629840     0.6549670
  C       -1.5021630    -0.7229610    -0.0075890
  C       -1.1865830     1.7077900     0.1829230
  C       -2.0093520     0.6149060     0.2198470
  H        2.2852110    -0.5739760    -1.4389020
  H        2.6915310     0.9874470    -0.7394040
  H        0.2447490    -1.6791740    -0.4204020
  H        0.8548030     2.4492830    -0.1032540
  H        3.9041830    -0.8397700     0.4571160
  H        2.3740450    -1.6291400     0.8604190
  H        2.7566000    -0.0487500     1.5548580
  H       -1.6048580     2.6974250     0.3552120
  H       -3.0731340     0.7034120     0.4140280
units angstrom
no_reorient  #important for SAPT in psi4, default
symmetry c1  #important for SAPT in psi4, default
}

set PROPERTIES_ORIGIN ["COM"]
properties('MP2/aug-cc-pvtz', properties = ['dipole'])
--------------------------------------------------------------------------

    Molecular point group: c1
  Charge       = 0
  Multiplicity = 1
  Basis Set: AUG-CC-PVTZ
    Blend: AUG-CC-PVTZ
  Basis Set: (AUG-CC-PVTZ AUX)
    Blend: AUG-CC-PVTZ-JKFIT

    Orbital Energies [Eh]
    ---------------------

    Doubly Occupied:

       1A    -20.506747     2A    -15.627025     3A    -11.351770
       4A    -11.321307     5A    -11.268666     6A    -11.263363
       7A    -11.241945     8A    -11.237774     9A    -11.230530
      10A     -1.370204    11A     -1.284505    12A     -1.099013
      13A     -1.090227    14A     -0.998710    15A     -0.900208
      16A     -0.865215    17A     -0.843342    18A     -0.738746
      19A     -0.691940    20A     -0.665367    21A     -0.643016
      22A     -0.626362    23A     -0.611955    24A     -0.602624
      25A     -0.558836    26A     -0.551898    27A     -0.543849
      28A     -0.525915    29A     -0.505878    30A     -0.470025
      31A     -0.421620    32A     -0.419978    33A     -0.298482

  @DF-RHF Final Energy:  -399.77036483284758

   => Energetics <=

    Nuclear Repulsion Energy =            426.9123050598252007
    One-Electron Energy =               -1388.6112575960605682
    Two-Electron Energy =                 561.9285877033877341
    Total Energy =                       -399.7703648328475765
  Basis Set: (AUG-CC-PVTZ AUX)
    Blend: AUG-CC-PVTZ-RI
    Molecular point group: c1

    Geometry (in Angstrom), charge = 0, multiplicity = 1:

       Center              X                  Y                   Z               Mass
    ------------   -----------------  -----------------  -----------------  -----------------
         O           -2.066222870329    -1.753795063438    -0.011797198486    15.994914619570
         N           -0.035850870329    -0.719951063438    -0.257329198486    14.003074004430
         C            0.830466029671     0.290258036562    -0.161040498486    12.000000000000
         C            2.264110129671     0.063843936562    -0.541377198486    12.000000000000
         C            0.288713129671     1.603367936562    -0.081339198486    12.000000000000
         C            2.925588129671    -0.639859063438     0.648805801514    12.000000000000
         C           -1.419914870329    -0.699836063438    -0.013750198486    12.000000000000
         C           -1.104334870329     1.730914936562     0.176761801514    12.000000000000
         C           -1.927103870329     0.638030936562     0.213685801514    12.000000000000
         H            2.367459129671    -0.550851063438    -1.445063198486     1.007825032230
         H            2.773779129671     1.010571936562    -0.745565198486     1.007825032230
         H            0.326997129671    -1.656049063438    -0.426563198486     1.007825032230
         H            0.937051129671     2.472407936562    -0.109415198486     1.007825032230
         H            3.986431129671    -0.816645063438     0.450954801514     1.007825032230
         H            2.456293129671    -1.606015063438     0.854257801514     1.007825032230
         H            2.838848129671    -0.025625063438     1.548696801514     1.007825032230
         H           -1.522609870329     2.720549936562     0.349050801514     1.007825032230
         H           -2.990885870329     0.726536936562     0.407866801514     1.007825032230

  Basis Set: AUG-CC-PVTZ
    Blend: AUG-CC-PVTZ
  Basis Set: (AUG-CC-PVTZ AUX)
    Blend: AUG-CC-PVTZ-JKFIT
	 Reference Energy          =    -399.7703648328475765 [Eh]
	 Singles Energy            =      -0.0000000000000000 [Eh]
	 Same-Spin Energy          =      -0.4236198196901801 [Eh]
	 Opposite-Spin Energy      =      -1.3388870250928371 [Eh]
	 Correlation Energy        =      -1.7625068447830172 [Eh]
	 Total Energy              =    -401.5328716776305669 [Eh]

	 ================> DF-SCS-MP2 Energies <==================
	-----------------------------------------------------------
	 SCS Same-Spin Scale       =       0.3333333333333333 [-]
	 SCS Opposite-Spin Scale   =       1.2000000000000000 [-]
	 SCS Same-Spin Energy      =      -0.1412066065633934 [Eh]
	 SCS Opposite-Spin Energy  =      -1.6066644301114044 [Eh]
	 SCS Correlation Energy    =      -1.7478710366747978 [Eh]
	 SCS Total Energy          =    -401.5182358695223570 [Eh]
	-----------------------------------------------------------

  Dipole Moment: [D]
     X:     4.1233      Y:     2.4960      Z:    -0.3275     Total:     4.8311

*** Psi4 exiting successfully. Buy a developer a beer!
