                               Psi4 1.3.2 release

  ==> Input File <==

--------------------------------------------------------------------------
#psi4
#
memory 32 gb

molecule  {
0 1
  O       -2.1484710    -1.7769200    -0.0056360
  N       -0.1545355    -0.7130005    -0.2434281
  C        0.7299860     0.3339780    -0.2958210
  C        2.1818620     0.0407190    -0.5352160
  C        0.2064650     1.5802430    -0.0751780
  C        2.8433400    -0.6629840     0.6549670
  C       -1.5021630    -0.7229610    -0.0075890
  C       -1.1865830     1.7077900     0.1829230
  C       -2.0093520     0.6149060     0.2198470
  H        2.2852110    -0.5739760    -1.4389020
  H        2.6915310     0.9874470    -0.7394040
  H        0.2447490    -1.6791740    -0.4204020
  H        0.8548030     2.4492830    -0.1032540
  H        3.9041830    -0.8397700     0.4571160
  H        2.3740450    -1.6291400     0.8604190
  H        2.7566000    -0.0487500     1.5548580
  H       -1.6048580     2.6974250     0.3552120
  H       -3.0731340     0.7034120     0.4140280
units angstrom
no_reorient  #important for SAPT in psi4, default
symmetry c1  #important for SAPT in psi4, default
}

set PROPERTIES_ORIGIN ["COM"]
properties('MP2/aug-cc-pvtz', properties = ['dipole'])
--------------------------------------------------------------------------

    Molecular point group: c1
  Charge       = 0
  Multiplicity = 1
  Basis Set: AUG-CC-PVTZ
    Blend: AUG-CC-PVTZ
  Basis Set: (AUG-CC-PVTZ AUX)
    Blend: AUG-CC-PVTZ-JKFIT

    Orbital Energies [Eh]
    ---------------------

    Doubly Occupied:

       1A    -20.502577     2A    -15.623867     3A    -11.346594
       4A    -11.314777     5A    -11.268808     6A    -11.263739
       7A    -11.243285     8A    -11.236047     9A    -11.233647
      10A     -1.368233    11A     -1.274389    12A     -1.101072
      13A     -1.090413    14A     -1.007125    15A     -0.902530
      16A     -0.866105    17A     -0.840459    18A     -0.730868
      19A     -0.692779    20A     -0.659708    21A     -0.636633
      22A     -0.627461    23A     -0.612340    24A     -0.602336
      25A     -0.563548    26A     -0.550108    27A     -0.541543
      28A     -0.526663    29A     -0.510644    30A     -0.467828
      31A     -0.419605    32A     -0.418613    33A     -0.308514

  @DF-RHF Final Energy:  -399.77964252527431

   => Energetics <=

    Nuclear Repulsion Energy =            427.2416033507304292
    One-Electron Energy =               -1389.3367746388837531
    Two-Electron Energy =                 562.3155287628790120
    Total Energy =                       -399.7796425252743120
  Basis Set: (AUG-CC-PVTZ AUX)
    Blend: AUG-CC-PVTZ-RI
    Molecular point group: c1

    Geometry (in Angstrom), charge = 0, multiplicity = 1:

       Center              X                  Y                   Z               Mass
    ------------   -----------------  -----------------  -----------------  -----------------
         O           -2.060299288618    -1.763734967702     0.001064899571    15.994914619570
         N           -0.066363788618    -0.699815467702    -0.236727200429    14.003074004430
         C            0.818157711382     0.347163032298    -0.289120100429    12.000000000000
         C            2.270033711382     0.053904032298    -0.528515100429    12.000000000000
         C            0.294636711382     1.593428032298    -0.068477100429    12.000000000000
         C            2.931511711382    -0.649798967702     0.661667899571    12.000000000000
         C           -1.413991288618    -0.709775967702    -0.000888100429    12.000000000000
         C           -1.098411288618     1.720975032298     0.189623899571    12.000000000000
         C           -1.921180288618     0.628091032298     0.226547899571    12.000000000000
         H            2.373382711382    -0.560790967702    -1.432201100429     1.007825032230
         H            2.779702711382     1.000632032298    -0.732703100429     1.007825032230
         H            0.332920711382    -1.665988967702    -0.413701100429     1.007825032230
         H            0.942974711382     2.462468032298    -0.096553100429     1.007825032230
         H            3.992354711382    -0.826584967702     0.463816899571     1.007825032230
         H            2.462216711382    -1.615954967702     0.867119899571     1.007825032230
         H            2.844771711382    -0.035564967702     1.561558899571     1.007825032230
         H           -1.516686288618     2.710610032298     0.361912899571     1.007825032230
         H           -2.984962288618     0.716597032298     0.420728899571     1.007825032230

  Basis Set: AUG-CC-PVTZ
    Blend: AUG-CC-PVTZ
  Basis Set: (AUG-CC-PVTZ AUX)
    Blend: AUG-CC-PVTZ-JKFIT
	 Reference Energy          =    -399.7796425252743120 [Eh]
	 Singles Energy            =      -0.0000000000000000 [Eh]
	 Same-Spin Energy          =      -0.4227427565115601 [Eh]
	 Opposite-Spin Energy      =      -1.3378007644842449 [Eh]
	 Correlation Energy        =      -1.7605435209958049 [Eh]
	 Total Energy              =    -401.5401860462700938 [Eh]

	 ================> DF-SCS-MP2 Energies <==================
	-----------------------------------------------------------
	 SCS Same-Spin Scale       =       0.3333333333333333 [-]
	 SCS Opposite-Spin Scale   =       1.2000000000000000 [-]
	 SCS Same-Spin Energy      =      -0.1409142521705200 [Eh]
	 SCS Opposite-Spin Energy  =      -1.6053609173810939 [Eh]
	 SCS Correlation Energy    =      -1.7462751695516139 [Eh]
	 SCS Total Energy          =    -401.5259176948259210 [Eh]
	-----------------------------------------------------------

  Dipole Moment: [D]
     X:     4.2706      Y:     2.6325      Z:    -0.2904     Total:     5.0252

*** Psi4 exiting successfully. Buy a developer a beer!
