                               Psi4 1.3.2 release

  ==> Input File <==

--------------------------------------------------------------------------
#psi4
#
memory 32 gb

molecule  {
0 1
  O       -2.1484710    -1.7769200    -0.0056360
  N       -0.1180990    -0.7430760    -0.2511680
  C        0.6153673     0.4158170    -0.2679514
  C        2.1818620     0.0407190    -0.5352160
  C        0.2064650     1.5802430    -0.0751780
  C        2.8433400    -0.6629840     0.6549670
  C       -1.5021630    -0.7229610    -0.0075890
  C       -1.1865830     1.7077900     0.1829230
  C       -2.0093520     0.6149060     0.2198470
  H        2.2852110    -0.5739760    -1.4389020
  H        2.6915310     0.9874470    -0.7394040
  H        0.2447490    -1.6791740    -0.4204020
  H        0.8548030     2.4492830    -0.1032540
  H        3.9041830    -0.8397700     0.4571160
  H        2.3740450    -1.6291400     0.8604190
  H        2.7566000    -0.0487500     1.5548580
  H       -1.6048580     2.6974250     0.3552120
  H       -3.0731340     0.7034120     0.4140280
units angstrom
no_reorient  #important for SAPT in psi4, default
symmetry c1  #important for SAPT in psi4, default
}

set PROPERTIES_ORIGIN ["COM"]
properties('MP2/aug-cc-pvtz', properties = ['dipole'])
--------------------------------------------------------------------------

    Molecular point group: c1
  Charge       = 0
  Multiplicity = 1
  Basis Set: AUG-CC-PVTZ
    Blend: AUG-CC-PVTZ
  Basis Set: (AUG-CC-PVTZ AUX)
    Blend: AUG-CC-PVTZ-JKFIT

    Orbital Energies [Eh]
    ---------------------

    Doubly Occupied:

       1A    -20.508470     2A    -15.615237     3A    -11.349603
       4A    -11.298931     5A    -11.272645     6A    -11.260369
       7A    -11.237684     8A    -11.236849     9A    -11.223613
      10A     -1.367754    11A     -1.272367    12A     -1.119261
      13A     -1.069909    14A     -1.015128    15A     -0.891207
      16A     -0.869742    17A     -0.825624    18A     -0.748017
      19A     -0.698808    20A     -0.661928    21A     -0.628944
      22A     -0.623744    23A     -0.610254    24A     -0.598111
      25A     -0.564116    26A     -0.561757    27A     -0.535209
      28A     -0.512715    29A     -0.488804    30A     -0.480224
      31A     -0.421954    32A     -0.416452    33A     -0.325056

  @DF-RHF Final Energy:  -399.75969999061613

   => Energetics <=

    Nuclear Repulsion Energy =            427.5270135852741760
    One-Electron Energy =               -1389.9524513194794508
    Two-Electron Energy =                 562.6657377435891476
    Total Energy =                       -399.7596999906161273
  Basis Set: (AUG-CC-PVTZ AUX)
    Blend: AUG-CC-PVTZ-RI
    Molecular point group: c1

    Geometry (in Angstrom), charge = 0, multiplicity = 1:

       Center              X                  Y                   Z               Mass
    ------------   -----------------  -----------------  -----------------  -----------------
         O           -2.053269041241    -1.768292746013    -0.000771906481    15.994914619570
         N           -0.022897041241    -0.734448746013    -0.246303906481    14.003074004430
         C            0.710569258759     0.424444253987    -0.263087306481    12.000000000000
         C            2.277063958759     0.049346253987    -0.530351906481    12.000000000000
         C            0.301666958759     1.588870253987    -0.070313906481    12.000000000000
         C            2.938541958759    -0.654356746013     0.659831093519    12.000000000000
         C           -1.406961041241    -0.714333746013    -0.002724906481    12.000000000000
         C           -1.091381041241     1.716417253987     0.187787093519    12.000000000000
         C           -1.914150041241     0.623533253987     0.224711093519    12.000000000000
         H            2.380412958759    -0.565348746013    -1.434037906481     1.007825032230
         H            2.786732958759     0.996074253987    -0.734539906481     1.007825032230
         H            0.339950958759    -1.670546746013    -0.415537906481     1.007825032230
         H            0.950004958759     2.457910253987    -0.098389906481     1.007825032230
         H            3.999384958759    -0.831142746013     0.461980093519     1.007825032230
         H            2.469246958759    -1.620512746013     0.865283093519     1.007825032230
         H            2.851801958759    -0.040122746013     1.559722093519     1.007825032230
         H           -1.509656041241     2.706052253987     0.360076093519     1.007825032230
         H           -2.977932041241     0.712039253987     0.418892093519     1.007825032230

  Basis Set: AUG-CC-PVTZ
    Blend: AUG-CC-PVTZ
  Basis Set: (AUG-CC-PVTZ AUX)
    Blend: AUG-CC-PVTZ-JKFIT
	 Reference Energy          =    -399.7596999906161273 [Eh]
	 Singles Energy            =      -0.0000000000000000 [Eh]
	 Same-Spin Energy          =      -0.4201479366360010 [Eh]
	 Opposite-Spin Energy      =      -1.3353789354832313 [Eh]
	 Correlation Energy        =      -1.7555268721192323 [Eh]
	 Total Energy              =    -401.5152268627353465 [Eh]

	 ================> DF-SCS-MP2 Energies <==================
	-----------------------------------------------------------
	 SCS Same-Spin Scale       =       0.3333333333333333 [-]
	 SCS Opposite-Spin Scale   =       1.2000000000000000 [-]
	 SCS Same-Spin Energy      =      -0.1400493122120003 [Eh]
	 SCS Opposite-Spin Energy  =      -1.6024547225798775 [Eh]
	 SCS Correlation Energy    =      -1.7425040347918779 [Eh]
	 SCS Total Energy          =    -401.5022040254079911 [Eh]
	-----------------------------------------------------------

  Dipole Moment: [D]
     X:     3.7798      Y:     2.7016      Z:    -0.2305     Total:     4.6517

*** Psi4 exiting successfully. Buy a developer a beer!
