                               Psi4 1.3.2 release

  ==> Input File <==

--------------------------------------------------------------------------
#psi4
#
memory 32 gb

molecule  {
0 1
  O       -2.1484710    -1.7769200    -0.0056360
  N       -0.1180990    -0.7430760    -0.2511680
  C        0.7661866     0.3040279    -0.3050171
  C        2.1818620     0.0407190    -0.5352160
  C        0.2064650     1.5802430    -0.0751780
  C        2.8433400    -0.6629840     0.6549670
  C       -1.5021630    -0.7229610    -0.0075890
  C       -1.1865830     1.7077900     0.1829230
  C       -2.0093520     0.6149060     0.2198470
  H        2.2852110    -0.5739760    -1.4389020
  H        2.6915310     0.9874470    -0.7394040
  H        0.2447490    -1.6791740    -0.4204020
  H        0.8548030     2.4492830    -0.1032540
  H        3.9041830    -0.8397700     0.4571160
  H        2.3740450    -1.6291400     0.8604190
  H        2.7566000    -0.0487500     1.5548580
  H       -1.6048580     2.6974250     0.3552120
  H       -3.0731340     0.7034120     0.4140280
units angstrom
no_reorient  #important for SAPT in psi4, default
symmetry c1  #important for SAPT in psi4, default
}

set PROPERTIES_ORIGIN ["COM"]
properties('MP2/aug-cc-pvtz', properties = ['dipole'])
--------------------------------------------------------------------------

    Molecular point group: c1
  Charge       = 0
  Multiplicity = 1
  Basis Set: AUG-CC-PVTZ
    Blend: AUG-CC-PVTZ
  Basis Set: (AUG-CC-PVTZ AUX)
    Blend: AUG-CC-PVTZ-JKFIT

    Orbital Energies [Eh]
    ---------------------

    Doubly Occupied:

       1A    -20.506132     2A    -15.622405     3A    -11.351520
       4A    -11.320707     5A    -11.269710     6A    -11.261440
       7A    -11.244464     8A    -11.238416     9A    -11.232359
      10A     -1.366712    11A     -1.273215    12A     -1.099033
      13A     -1.095090    14A     -1.000322    15A     -0.907611
      16A     -0.864592    17A     -0.836432    18A     -0.734075
      19A     -0.691924    20A     -0.665274    21A     -0.640801
      22A     -0.627797    23A     -0.611136    24A     -0.599074
      25A     -0.564172    26A     -0.549419    27A     -0.543013
      28A     -0.531001    29A     -0.511014    30A     -0.466287
      31A     -0.421468    32A     -0.419360    33A     -0.301417

  @DF-RHF Final Energy:  -399.77784444099956

   => Energetics <=

    Nuclear Repulsion Energy =            426.3954685070771120
    One-Electron Energy =               -1387.6118403348721131
    Two-Electron Energy =                 561.4385273867953856
    Total Energy =                       -399.7778444409996155
  Basis Set: (AUG-CC-PVTZ AUX)
    Blend: AUG-CC-PVTZ-RI
    Molecular point group: c1

    Geometry (in Angstrom), charge = 0, multiplicity = 1:

       Center              X                  Y                   Z               Mass
    ------------   -----------------  -----------------  -----------------  -----------------
         O           -2.067974939712    -1.757392555157     0.002842249140    15.994914619570
         N           -0.037602939712    -0.723548555157    -0.242689750860    14.003074004430
         C            0.846682660288     0.323555344843    -0.296538850860    12.000000000000
         C            2.262358060288     0.060246444843    -0.526737750860    12.000000000000
         C            0.286961060288     1.599770444843    -0.066699750860    12.000000000000
         C            2.923836060288    -0.643456555157     0.663445249140    12.000000000000
         C           -1.421666939712    -0.703433555157     0.000889249140    12.000000000000
         C           -1.106086939712     1.727317444843     0.191401249140    12.000000000000
         C           -1.928855939712     0.634433444843     0.228325249140    12.000000000000
         H            2.365707060288    -0.554448555157    -1.430423750860     1.007825032230
         H            2.772027060288     1.006974444843    -0.730925750860     1.007825032230
         H            0.325245060288    -1.659646555157    -0.411923750860     1.007825032230
         H            0.935299060288     2.468810444843    -0.094775750860     1.007825032230
         H            3.984679060288    -0.820242555157     0.465594249140     1.007825032230
         H            2.454541060288    -1.609612555157     0.868897249140     1.007825032230
         H            2.837096060288    -0.029222555157     1.563336249140     1.007825032230
         H           -1.524361939712     2.716952444843     0.363690249140     1.007825032230
         H           -2.992637939712     0.722939444843     0.422506249140     1.007825032230

  Basis Set: AUG-CC-PVTZ
    Blend: AUG-CC-PVTZ
  Basis Set: (AUG-CC-PVTZ AUX)
    Blend: AUG-CC-PVTZ-JKFIT
	 Reference Energy          =    -399.7778444409995586 [Eh]
	 Singles Energy            =      -0.0000000000000000 [Eh]
	 Same-Spin Energy          =      -0.4233795275238953 [Eh]
	 Opposite-Spin Energy      =      -1.3385682367534946 [Eh]
	 Correlation Energy        =      -1.7619477642773900 [Eh]
	 Total Energy              =    -401.5397922052769673 [Eh]

	 ================> DF-SCS-MP2 Energies <==================
	-----------------------------------------------------------
	 SCS Same-Spin Scale       =       0.3333333333333333 [-]
	 SCS Opposite-Spin Scale   =       1.2000000000000000 [-]
	 SCS Same-Spin Energy      =      -0.1411265091746318 [Eh]
	 SCS Opposite-Spin Energy  =      -1.6062818841041935 [Eh]
	 SCS Correlation Energy    =      -1.7474083932788251 [Eh]
	 SCS Total Energy          =    -401.5252528342783762 [Eh]
	-----------------------------------------------------------

  Dipole Moment: [D]
     X:     4.1970      Y:     2.5402      Z:    -0.2864     Total:     4.9142

*** Psi4 exiting successfully. Buy a developer a beer!
