                               Psi4 1.3.2 release

  ==> Input File <==

--------------------------------------------------------------------------
#psi4
#
memory 32 gb

molecule  {
0 1
  O       -2.1484710    -1.7769200    -0.0056360
  N       -0.1180990    -0.7430760    -0.2511680
  C        0.7434710     0.3612804    -0.2532118
  C        2.1818620     0.0407190    -0.5352160
  C        0.2064650     1.5802430    -0.0751780
  C        2.8433400    -0.6629840     0.6549670
  C       -1.5021630    -0.7229610    -0.0075890
  C       -1.1865830     1.7077900     0.1829230
  C       -2.0093520     0.6149060     0.2198470
  H        2.2852110    -0.5739760    -1.4389020
  H        2.6915310     0.9874470    -0.7394040
  H        0.2447490    -1.6791740    -0.4204020
  H        0.8548030     2.4492830    -0.1032540
  H        3.9041830    -0.8397700     0.4571160
  H        2.3740450    -1.6291400     0.8604190
  H        2.7566000    -0.0487500     1.5548580
  H       -1.6048580     2.6974250     0.3552120
  H       -3.0731340     0.7034120     0.4140280
units angstrom
no_reorient  #important for SAPT in psi4, default
symmetry c1  #important for SAPT in psi4, default
}

set PROPERTIES_ORIGIN ["COM"]
properties('MP2/aug-cc-pvtz', properties = ['dipole'])
--------------------------------------------------------------------------

    Molecular point group: c1
  Charge       = 0
  Multiplicity = 1
  Basis Set: AUG-CC-PVTZ
    Blend: AUG-CC-PVTZ
  Basis Set: (AUG-CC-PVTZ AUX)
    Blend: AUG-CC-PVTZ-JKFIT

    Orbital Energies [Eh]
    ---------------------

    Doubly Occupied:

       1A    -20.506734     2A    -15.615737     3A    -11.350419
       4A    -11.312054     5A    -11.271536     6A    -11.260502
       7A    -11.240951     8A    -11.236479     9A    -11.234695
      10A     -1.365017    11A     -1.263979    12A     -1.104435
      13A     -1.087328    14A     -1.007348    15A     -0.901918
      16A     -0.867329    17A     -0.826949    18A     -0.736109
      19A     -0.692860    20A     -0.664732    21A     -0.634278
      22A     -0.625292    23A     -0.610937    24A     -0.598063
      25A     -0.562596    26A     -0.552783    27A     -0.541253
      28A     -0.521293    29A     -0.513929    30A     -0.468559
      31A     -0.420318    32A     -0.418454    33A     -0.312864

  @DF-RHF Final Energy:  -399.78199473361860

   => Energetics <=

    Nuclear Repulsion Energy =            426.5326897504901922
    One-Electron Energy =               -1387.9739104763766591
    Two-Electron Energy =                 561.6592259922679204
    Total Energy =                       -399.7819947336186033
  Basis Set: (AUG-CC-PVTZ AUX)
    Blend: AUG-CC-PVTZ-RI
    Molecular point group: c1

    Geometry (in Angstrom), charge = 0, multiplicity = 1:

       Center              X                  Y                   Z               Mass
    ------------   -----------------  -----------------  -----------------  -----------------
         O           -2.065760015579    -1.762975059865    -0.002209116846    15.994914619570
         N           -0.035388015579    -0.729131059865    -0.247741116846    14.003074004430
         C            0.826181984421     0.375225340135    -0.249784916846    12.000000000000
         C            2.264572984421     0.054663940135    -0.531789116846    12.000000000000
         C            0.289175984421     1.594187940135    -0.071751116846    12.000000000000
         C            2.926050984421    -0.649039059865     0.658393883154    12.000000000000
         C           -1.419452015579    -0.709016059865    -0.004162116846    12.000000000000
         C           -1.103872015579     1.721734940135     0.186349883154    12.000000000000
         C           -1.926641015579     0.628850940135     0.223273883154    12.000000000000
         H            2.367921984421    -0.560031059865    -1.435475116846     1.007825032230
         H            2.774241984421     1.001391940135    -0.735977116846     1.007825032230
         H            0.327459984421    -1.665229059865    -0.416975116846     1.007825032230
         H            0.937513984421     2.463227940135    -0.099827116846     1.007825032230
         H            3.986893984421    -0.825825059865     0.460542883154     1.007825032230
         H            2.456755984421    -1.615195059865     0.863845883154     1.007825032230
         H            2.839310984421    -0.034805059865     1.558284883154     1.007825032230
         H           -1.522147015579     2.711369940135     0.358638883154     1.007825032230
         H           -2.990423015579     0.717356940135     0.417454883154     1.007825032230

  Basis Set: AUG-CC-PVTZ
    Blend: AUG-CC-PVTZ
  Basis Set: (AUG-CC-PVTZ AUX)
    Blend: AUG-CC-PVTZ-JKFIT
	 Reference Energy          =    -399.7819947336186033 [Eh]
	 Singles Energy            =      -0.0000000000000000 [Eh]
	 Same-Spin Energy          =      -0.4217596046024945 [Eh]
	 Opposite-Spin Energy      =      -1.3372355976771473 [Eh]
	 Correlation Energy        =      -1.7589952022796418 [Eh]
	 Total Energy              =    -401.5409899358982670 [Eh]

	 ================> DF-SCS-MP2 Energies <==================
	-----------------------------------------------------------
	 SCS Same-Spin Scale       =       0.3333333333333333 [-]
	 SCS Opposite-Spin Scale   =       1.2000000000000000 [-]
	 SCS Same-Spin Energy      =      -0.1405865348674981 [Eh]
	 SCS Opposite-Spin Energy  =      -1.6046827172125766 [Eh]
	 SCS Correlation Energy    =      -1.7452692520800748 [Eh]
	 SCS Total Energy          =    -401.5272639856986530 [Eh]
	-----------------------------------------------------------

  Dipole Moment: [D]
     X:     4.0512      Y:     2.6634      Z:    -0.2668     Total:     4.8556

*** Psi4 exiting successfully. Buy a developer a beer!
