                               Psi4 1.3.2 release

  ==> Input File <==

--------------------------------------------------------------------------
#psi4
#
memory 32 gb

molecule  {
0 1
  O       -2.1484710    -1.7769200    -0.0056360
  N       -0.1180990    -0.7430760    -0.2511680
  C        0.7266635     0.3768001    -0.3913360
  C        2.1818620     0.0407190    -0.5352160
  C        0.2064650     1.5802430    -0.0751780
  C        2.8433400    -0.6629840     0.6549670
  C       -1.5021630    -0.7229610    -0.0075890
  C       -1.1865830     1.7077900     0.1829230
  C       -2.0093520     0.6149060     0.2198470
  H        2.2852110    -0.5739760    -1.4389020
  H        2.6915310     0.9874470    -0.7394040
  H        0.2447490    -1.6791740    -0.4204020
  H        0.8548030     2.4492830    -0.1032540
  H        3.9041830    -0.8397700     0.4571160
  H        2.3740450    -1.6291400     0.8604190
  H        2.7566000    -0.0487500     1.5548580
  H       -1.6048580     2.6974250     0.3552120
  H       -3.0731340     0.7034120     0.4140280
units angstrom
no_reorient  #important for SAPT in psi4, default
symmetry c1  #important for SAPT in psi4, default
}

set PROPERTIES_ORIGIN ["COM"]
properties('MP2/aug-cc-pvtz', properties = ['dipole'])
--------------------------------------------------------------------------

    Molecular point group: c1
  Charge       = 0
  Multiplicity = 1
  Basis Set: AUG-CC-PVTZ
    Blend: AUG-CC-PVTZ
  Basis Set: (AUG-CC-PVTZ AUX)
    Blend: AUG-CC-PVTZ-JKFIT

    Orbital Energies [Eh]
    ---------------------

    Doubly Occupied:

       1A    -20.506838     2A    -15.614822     3A    -11.350433
       4A    -11.312690     5A    -11.271850     6A    -11.260185
       7A    -11.242349     8A    -11.237831     9A    -11.236859
      10A     -1.364639    11A     -1.261268    12A     -1.104092
      13A     -1.085953    14A     -1.007300    15A     -0.904700
      16A     -0.867222    17A     -0.824629    18A     -0.734935
      19A     -0.692099    20A     -0.660799    21A     -0.632259
      22A     -0.625874    23A     -0.611193    24A     -0.595754
      25A     -0.565713    26A     -0.552477    27A     -0.541879
      28A     -0.520836    29A     -0.512735    30A     -0.467618
      31A     -0.420462    32A     -0.417894    33A     -0.313301

  @DF-RHF Final Energy:  -399.77772916155368

   => Energetics <=

    Nuclear Repulsion Energy =            426.0313487117604154
    One-Electron Energy =               -1386.9791771765976591
    Two-Electron Energy =                 561.1700993032835640
    Total Energy =                       -399.7777291615536797
  Basis Set: (AUG-CC-PVTZ AUX)
    Blend: AUG-CC-PVTZ-RI
    Molecular point group: c1

    Geometry (in Angstrom), charge = 0, multiplicity = 1:

       Center              X                  Y                   Z               Mass
    ------------   -----------------  -----------------  -----------------  -----------------
         O           -2.064121171024    -1.764488335238     0.011258923794    15.994914619570
         N           -0.033749171024    -0.730644335238    -0.234273076206    14.003074004430
         C            0.811013328976     0.389231764762    -0.374441076206    12.000000000000
         C            2.266211828976     0.053150664762    -0.518321076206    12.000000000000
         C            0.290814828976     1.592674664762    -0.058283076206    12.000000000000
         C            2.927689828976    -0.650552335238     0.671861923794    12.000000000000
         C           -1.417813171024    -0.710529335238     0.009305923794    12.000000000000
         C           -1.102233171024     1.720221664762     0.199817923794    12.000000000000
         C           -1.925002171024     0.627337664762     0.236741923794    12.000000000000
         H            2.369560828976    -0.561544335238    -1.422007076206     1.007825032230
         H            2.775880828976     0.999878664762    -0.722509076206     1.007825032230
         H            0.329098828976    -1.666742335238    -0.403507076206     1.007825032230
         H            0.939152828976     2.461714664762    -0.086359076206     1.007825032230
         H            3.988532828976    -0.827338335238     0.474010923794     1.007825032230
         H            2.458394828976    -1.616708335238     0.877313923794     1.007825032230
         H            2.840949828976    -0.036318335238     1.571752923794     1.007825032230
         H           -1.520508171024     2.709856664762     0.372106923794     1.007825032230
         H           -2.988784171024     0.715843664762     0.430922923794     1.007825032230

  Basis Set: AUG-CC-PVTZ
    Blend: AUG-CC-PVTZ
  Basis Set: (AUG-CC-PVTZ AUX)
    Blend: AUG-CC-PVTZ-JKFIT
	 Reference Energy          =    -399.7777291615536797 [Eh]
	 Singles Energy            =      -0.0000000000000000 [Eh]
	 Same-Spin Energy          =      -0.4219739489473222 [Eh]
	 Opposite-Spin Energy      =      -1.3379127384213456 [Eh]
	 Correlation Energy        =      -1.7598866873686678 [Eh]
	 Total Energy              =    -401.5376158489223712 [Eh]

	 ================> DF-SCS-MP2 Energies <==================
	-----------------------------------------------------------
	 SCS Same-Spin Scale       =       0.3333333333333333 [-]
	 SCS Opposite-Spin Scale   =       1.2000000000000000 [-]
	 SCS Same-Spin Energy      =      -0.1406579829824407 [Eh]
	 SCS Opposite-Spin Energy  =      -1.6054952861056146 [Eh]
	 SCS Correlation Energy    =      -1.7461532690880555 [Eh]
	 SCS Total Energy          =    -401.5238824306417200 [Eh]
	-----------------------------------------------------------

  Dipole Moment: [D]
     X:     4.0156      Y:     2.6857      Z:    -0.2260     Total:     4.8362

*** Psi4 exiting successfully. Buy a developer a beer!
