                               Psi4 1.3.2 release

  ==> Input File <==

--------------------------------------------------------------------------
#psi4
#
memory 32 gb

molecule  {
0 1
  O       -2.1484710    -1.7769200    -0.0056360
  N       -0.1180990    -0.7430760    -0.2511680
  C        0.7284910     0.3448258    -0.3196085
  C        2.1818620     0.0407190    -0.5352160
  C        0.2064650     1.5802430    -0.0751780
  C        2.8433400    -0.6629840     0.6549670
  C       -1.5021630    -0.7229610    -0.0075890
  C       -1.1865830     1.7077900     0.1829230
  C       -2.0093520     0.6149060     0.2198470
  H        2.2852110    -0.5739760    -1.4389020
  H        2.6915310     0.9874470    -0.7394040
  H        0.2447490    -1.6791740    -0.4204020
  H        0.8548030     2.4492830    -0.1032540
  H        3.9041830    -0.8397700     0.4571160
  H        2.3740450    -1.6291400     0.8604190
  H        2.7566000    -0.0487500     1.5548580
  H       -1.6048580     2.6974250     0.3552120
  H       -3.0731340     0.7034120     0.4140280
units angstrom
no_reorient  #important for SAPT in psi4, default
symmetry c1  #important for SAPT in psi4, default
}

set PROPERTIES_ORIGIN ["COM"]
properties('MP2/aug-cc-pvtz', properties = ['dipole'])
--------------------------------------------------------------------------

    Molecular point group: c1
  Charge       = 0
  Multiplicity = 1
  Basis Set: AUG-CC-PVTZ
    Blend: AUG-CC-PVTZ
  Basis Set: (AUG-CC-PVTZ AUX)
    Blend: AUG-CC-PVTZ-JKFIT

    Orbital Energies [Eh]
    ---------------------

    Doubly Occupied:

       1A    -20.506822     2A    -15.618852     3A    -11.350969
       4A    -11.314206     5A    -11.270860     6A    -11.261083
       7A    -11.242262     8A    -11.235266     9A    -11.234884
      10A     -1.366369    11A     -1.269840    12A     -1.103004
      13A     -1.087016    14A     -1.005295    15A     -0.903211
      16A     -0.867169    17A     -0.831557    18A     -0.736761
      19A     -0.692424    20A     -0.662158    21A     -0.636120
      22A     -0.626361    23A     -0.611452    24A     -0.598402
      25A     -0.563906    26A     -0.553032    27A     -0.541260
      28A     -0.523847    29A     -0.511561    30A     -0.468882
      31A     -0.420764    32A     -0.419686    33A     -0.309062

  @DF-RHF Final Energy:  -399.78310830603073

   => Energetics <=

    Nuclear Repulsion Energy =            426.4941775048071690
    One-Electron Energy =               -1387.8658894762181717
    Two-Electron Energy =                 561.5886036653803330
    Total Energy =                       -399.7831083060307265
  Basis Set: (AUG-CC-PVTZ AUX)
    Blend: AUG-CC-PVTZ-RI
    Molecular point group: c1

    Geometry (in Angstrom), charge = 0, multiplicity = 1:

       Center              X                  Y                   Z               Mass
    ------------   -----------------  -----------------  -----------------  -----------------
         O           -2.064299364594    -1.761370625439     0.004265009006    15.994914619570
         N           -0.033927364594    -0.727526625439    -0.241266990994    14.003074004430
         C            0.812662635406     0.360375174561    -0.309707490994    12.000000000000
         C            2.266033635406     0.056268374561    -0.525314990994    12.000000000000
         C            0.290636635406     1.595792374561    -0.065276990994    12.000000000000
         C            2.927511635406    -0.647434625439     0.664868009006    12.000000000000
         C           -1.417991364594    -0.707411625439     0.002312009006    12.000000000000
         C           -1.102411364594     1.723339374561     0.192824009006    12.000000000000
         C           -1.925180364594     0.630455374561     0.229748009006    12.000000000000
         H            2.369382635406    -0.558426625439    -1.429000990994     1.007825032230
         H            2.775702635406     1.002996374561    -0.729502990994     1.007825032230
         H            0.328920635406    -1.663624625439    -0.410500990994     1.007825032230
         H            0.938974635406     2.464832374561    -0.093352990994     1.007825032230
         H            3.988354635406    -0.824220625439     0.467017009006     1.007825032230
         H            2.458216635406    -1.613590625439     0.870320009006     1.007825032230
         H            2.840771635406    -0.033200625439     1.564759009006     1.007825032230
         H           -1.520686364594     2.712974374561     0.365113009006     1.007825032230
         H           -2.988962364594     0.718961374561     0.423929009006     1.007825032230

  Basis Set: AUG-CC-PVTZ
    Blend: AUG-CC-PVTZ
  Basis Set: (AUG-CC-PVTZ AUX)
    Blend: AUG-CC-PVTZ-JKFIT
	 Reference Energy          =    -399.7831083060307265 [Eh]
	 Singles Energy            =      -0.0000000000000000 [Eh]
	 Same-Spin Energy          =      -0.4220974099427566 [Eh]
	 Opposite-Spin Energy      =      -1.3372207053470304 [Eh]
	 Correlation Energy        =      -1.7593181152897870 [Eh]
	 Total Energy              =    -401.5424264213204992 [Eh]

	 ================> DF-SCS-MP2 Energies <==================
	-----------------------------------------------------------
	 SCS Same-Spin Scale       =       0.3333333333333333 [-]
	 SCS Opposite-Spin Scale   =       1.2000000000000000 [-]
	 SCS Same-Spin Energy      =      -0.1406991366475855 [Eh]
	 SCS Opposite-Spin Energy  =      -1.6046648464164364 [Eh]
	 SCS Correlation Energy    =      -1.7453639830640220 [Eh]
	 SCS Total Energy          =    -401.5284722890947364 [Eh]
	-----------------------------------------------------------

  Dipole Moment: [D]
     X:     4.0764      Y:     2.6020      Z:    -0.2626     Total:     4.8432

*** Psi4 exiting successfully. Buy a developer a beer!
