                               Psi4 1.4a3.dev225

  ==> Input File <==

--------------------------------------------------------------------------
#psi4
#
memory 32 gb

molecule  {
0 1
  O       -2.1484710    -1.7769200    -0.0056360
  N       -0.1180990    -0.7430760    -0.2511680
  C        0.7299860     0.3339780    -0.2958210
  C        2.2302444     0.0309464    -0.5431936
  C        0.2064650     1.5802430    -0.0751780
  C        2.8433400    -0.6629840     0.6549670
  C       -1.5021630    -0.7229610    -0.0075890
  C       -1.1865830     1.7077900     0.1829230
  C       -2.0093520     0.6149060     0.2198470
  H        2.2852110    -0.5739760    -1.4389020
  H        2.6915310     0.9874470    -0.7394040
  H        0.2447490    -1.6791740    -0.4204020
  H        0.8548030     2.4492830    -0.1032540
  H        3.9041830    -0.8397700     0.4571160
  H        2.3740450    -1.6291400     0.8604190
  H        2.7566000    -0.0487500     1.5548580
  H       -1.6048580     2.6974250     0.3552120
  H       -3.0731340     0.7034120     0.4140280
units angstrom
no_reorient  #important for SAPT in psi4, default
symmetry c1  #important for SAPT in psi4, default
}

set PROPERTIES_ORIGIN ["COM"]
properties('MP2/aug-cc-pvtz', properties = ['dipole'])
--------------------------------------------------------------------------

    Molecular point group: c1
  Charge       = 0
  Multiplicity = 1
  Basis Set: AUG-CC-PVTZ
    Blend: AUG-CC-PVTZ
  Basis Set: (AUG-CC-PVTZ AUX)
    Blend: AUG-CC-PVTZ-JKFIT

    Orbital Energies [Eh]
    ---------------------

    Doubly Occupied:

       1A    -20.506430     2A    -15.620105     3A    -11.350727
       4A    -11.315999     5A    -11.270198     6A    -11.262126
       7A    -11.241289     8A    -11.234414     9A    -11.233447
      10A     -1.366494    11A     -1.270744    12A     -1.101740
      13A     -1.085517    14A     -1.005915    15A     -0.899564
      16A     -0.866216    17A     -0.834921    18A     -0.736971
      19A     -0.691454    20A     -0.659719    21A     -0.635977
      22A     -0.629836    23A     -0.611631    24A     -0.598025
      25A     -0.562967    26A     -0.552539    27A     -0.547080
      28A     -0.524565    29A     -0.506362    30A     -0.470689
      31A     -0.419927    32A     -0.419616    33A     -0.307355

  @DF-RHF Final Energy:  -399.78170893985015

   => Energetics <=

    Nuclear Repulsion Energy =            425.9197041005950268
    One-Electron Energy =               -1386.7217075082996871
    Two-Electron Energy =                 561.0202944678545691
    Total Energy =                       -399.7817089398500912
  Basis Set: (AUG-CC-PVTZ AUX)
    Blend: AUG-CC-PVTZ-RI
    Molecular point group: c1

    Geometry (in Angstrom), charge = 0, multiplicity = 1:

       Center              X                  Y                   Z               Mass
    ------------   -----------------  -----------------  -----------------  -----------------
         O           -2.069162747334    -1.759359997430     0.002723437176    15.994914619570
         N           -0.038790747334    -0.725515997430    -0.242808562824    14.003074004430
         C            0.809294252666     0.351538002570    -0.287461562824    12.000000000000
         C            2.309552652666     0.048506402570    -0.534834162824    12.000000000000
         C            0.285773252666     1.597803002570    -0.066818562824    12.000000000000
         C            2.922648252666    -0.645423997430     0.663326437176    12.000000000000
         C           -1.422854747334    -0.705400997430     0.000770437176    12.000000000000
         C           -1.107274747334     1.725350002570     0.191282437176    12.000000000000
         C           -1.930043747334     0.632466002570     0.228206437176    12.000000000000
         H            2.364519252666    -0.556415997430    -1.430542562824     1.007825032230
         H            2.770839252666     1.005007002570    -0.731044562824     1.007825032230
         H            0.324057252666    -1.661613997430    -0.412042562824     1.007825032230
         H            0.934111252666     2.466843002570    -0.094894562824     1.007825032230
         H            3.983491252666    -0.822209997430     0.465475437176     1.007825032230
         H            2.453353252666    -1.611579997430     0.868778437176     1.007825032230
         H            2.835908252666    -0.031189997430     1.563217437176     1.007825032230
         H           -1.525549747334     2.714985002570     0.363571437176     1.007825032230
         H           -2.993825747334     0.720972002570     0.422387437176     1.007825032230

  Basis Set: AUG-CC-PVTZ
    Blend: AUG-CC-PVTZ
  Basis Set: (AUG-CC-PVTZ AUX)
    Blend: AUG-CC-PVTZ-JKFIT
	 Reference Energy          =    -399.7817089398501480 [Eh]
	 Singles Energy            =      -0.0000000000000000 [Eh]
	 Same-Spin Energy          =      -0.4219737716191869 [Eh]
	 Opposite-Spin Energy      =      -1.3369817273175446 [Eh]
	 Correlation Energy        =      -1.7589554989367315 [Eh]
	 Total Energy              =    -401.5406644387869051 [Eh]

	 ================> DF-SCS-MP2 Energies <==================
	-----------------------------------------------------------
	 SCS Same-Spin Scale       =       0.3333333333333333 [-]
	 SCS Opposite-Spin Scale   =       1.2000000000000000 [-]
	 SCS Same-Spin Energy      =      -0.1406579238730623 [Eh]
	 SCS Opposite-Spin Energy  =      -1.6043780727810535 [Eh]
	 SCS Correlation Energy    =      -1.7450359966541158 [Eh]
	 SCS Total Energy          =    -401.5267449365042580 [Eh]
	-----------------------------------------------------------

  Dipole Moment: [D]
     X:     4.1138      Y:     2.5675      Z:    -0.2744     Total:     4.8570

*** Psi4 exiting successfully. Buy a developer a beer!
