                               Psi4 1.3.2 release

  ==> Input File <==

--------------------------------------------------------------------------
#psi4
#
memory 32 gb

molecule  {
0 1
  O       -2.1484710    -1.7769200    -0.0056360
  N       -0.1180990    -0.7430760    -0.2511680
  C        0.7481426     0.3192071    -0.3008426
  C        2.1818620     0.0407190    -0.5352160
  C        0.2064650     1.5802430    -0.0751780
  C        2.8433400    -0.6629840     0.6549670
  C       -1.5021630    -0.7229610    -0.0075890
  C       -1.1865830     1.7077900     0.1829230
  C       -2.0093520     0.6149060     0.2198470
  H        2.2852110    -0.5739760    -1.4389020
  H        2.6915310     0.9874470    -0.7394040
  H        0.2447490    -1.6791740    -0.4204020
  H        0.8548030     2.4492830    -0.1032540
  H        3.9041830    -0.8397700     0.4571160
  H        2.3740450    -1.6291400     0.8604190
  H        2.7566000    -0.0487500     1.5548580
  H       -1.6048580     2.6974250     0.3552120
  H       -3.0731340     0.7034120     0.4140280
units angstrom
no_reorient  #important for SAPT in psi4, default
symmetry c1  #important for SAPT in psi4, default
}

set PROPERTIES_ORIGIN ["COM"]
properties('MP2/aug-cc-pvtz', properties = ['dipole'])
--------------------------------------------------------------------------

    Molecular point group: c1
  Charge       = 0
  Multiplicity = 1
  Basis Set: AUG-CC-PVTZ
    Blend: AUG-CC-PVTZ
  Basis Set: (AUG-CC-PVTZ AUX)
    Blend: AUG-CC-PVTZ-JKFIT

    Orbital Energies [Eh]
    ---------------------

    Doubly Occupied:

       1A    -20.506487     2A    -15.621231     3A    -11.351335
       4A    -11.317806     5A    -11.270139     6A    -11.261424
       7A    -11.243312     8A    -11.236820     9A    -11.233237
      10A     -1.366837    11A     -1.272787    12A     -1.100552
      13A     -1.091253    14A     -1.002414    15A     -0.905162
      16A     -0.865883    17A     -0.835060    18A     -0.735641
      19A     -0.692037    20A     -0.663703    21A     -0.639189
      22A     -0.627081    23A     -0.611346    24A     -0.599183
      25A     -0.563669    26A     -0.551173    27A     -0.542207
      28A     -0.527813    29A     -0.511360    30A     -0.467700
      31A     -0.421223    32A     -0.419710    33A     -0.304517

  @DF-RHF Final Energy:  -399.78147641398266

   => Energetics <=

    Nuclear Repulsion Energy =            426.4966417401473677
    One-Electron Energy =               -1387.8376580408241807
    Two-Electron Energy =                 561.5595398866940968
    Total Energy =                       -399.7814764139826593
  Basis Set: (AUG-CC-PVTZ AUX)
    Blend: AUG-CC-PVTZ-RI
    Molecular point group: c1

    Geometry (in Angstrom), charge = 0, multiplicity = 1:

       Center              X                  Y                   Z               Mass
    ------------   -----------------  -----------------  -----------------  -----------------
         O           -2.066215528072    -1.758872629485     0.002435207249    15.994914619570
         N           -0.035843528072    -0.725028629485    -0.243096792751    14.003074004430
         C            0.830398071928     0.337254470515    -0.292771392751    12.000000000000
         C            2.264117471928     0.058766370515    -0.527144792751    12.000000000000
         C            0.288720471928     1.598290370515    -0.067106792751    12.000000000000
         C            2.925595471928    -0.644936629485     0.663038207249    12.000000000000
         C           -1.419907528072    -0.704913629485     0.000482207249    12.000000000000
         C           -1.104327528072     1.725837370515     0.190994207249    12.000000000000
         C           -1.927096528072     0.632953370515     0.227918207249    12.000000000000
         H            2.367466471928    -0.555928629485    -1.430830792751     1.007825032230
         H            2.773786471928     1.005494370515    -0.731332792751     1.007825032230
         H            0.327004471928    -1.661126629485    -0.412330792751     1.007825032230
         H            0.937058471928     2.467330370515    -0.095182792751     1.007825032230
         H            3.986438471928    -0.821722629485     0.465187207249     1.007825032230
         H            2.456300471928    -1.611092629485     0.868490207249     1.007825032230
         H            2.838855471928    -0.030702629485     1.562929207249     1.007825032230
         H           -1.522602528072     2.715472370515     0.363283207249     1.007825032230
         H           -2.990878528072     0.721459370515     0.422099207249     1.007825032230

  Basis Set: AUG-CC-PVTZ
    Blend: AUG-CC-PVTZ
  Basis Set: (AUG-CC-PVTZ AUX)
    Blend: AUG-CC-PVTZ-JKFIT
	 Reference Energy          =    -399.7814764139826593 [Eh]
	 Singles Energy            =      -0.0000000000000000 [Eh]
	 Same-Spin Energy          =      -0.4227661181632969 [Eh]
	 Opposite-Spin Energy      =      -1.3378255332556019 [Eh]
	 Correlation Energy        =      -1.7605916514188988 [Eh]
	 Total Energy              =    -401.5420680654015655 [Eh]

	 ================> DF-SCS-MP2 Energies <==================
	-----------------------------------------------------------
	 SCS Same-Spin Scale       =       0.3333333333333333 [-]
	 SCS Opposite-Spin Scale   =       1.2000000000000000 [-]
	 SCS Same-Spin Energy      =      -0.1409220393877656 [Eh]
	 SCS Opposite-Spin Energy  =      -1.6053906399067224 [Eh]
	 SCS Correlation Energy    =      -1.7463126792944881 [Eh]
	 SCS Total Energy          =    -401.5277890932771356 [Eh]
	-----------------------------------------------------------

  Dipole Moment: [D]
     X:     4.1443      Y:     2.5592      Z:    -0.2800     Total:     4.8789

*** Psi4 exiting successfully. Buy a developer a beer!
