                               Psi4 1.3.2 release

  ==> Input File <==

--------------------------------------------------------------------------
#psi4
#
memory 32 gb

molecule  {
0 1
  O       -2.1484710    -1.7769200    -0.0056360
  N       -0.1180990    -0.7430760    -0.2511680
  C        0.7365083     0.3476759    -0.2744767
  C        2.1818620     0.0407190    -0.5352160
  C        0.2064650     1.5802430    -0.0751780
  C        2.8433400    -0.6629840     0.6549670
  C       -1.5021630    -0.7229610    -0.0075890
  C       -1.1865830     1.7077900     0.1829230
  C       -2.0093520     0.6149060     0.2198470
  H        2.2852110    -0.5739760    -1.4389020
  H        2.6915310     0.9874470    -0.7394040
  H        0.2447490    -1.6791740    -0.4204020
  H        0.8548030     2.4492830    -0.1032540
  H        3.9041830    -0.8397700     0.4571160
  H        2.3740450    -1.6291400     0.8604190
  H        2.7566000    -0.0487500     1.5548580
  H       -1.6048580     2.6974250     0.3552120
  H       -3.0731340     0.7034120     0.4140280
units angstrom
no_reorient  #important for SAPT in psi4, default
symmetry c1  #important for SAPT in psi4, default
}

set PROPERTIES_ORIGIN ["COM"]
properties('MP2/aug-cc-pvtz', properties = ['dipole'])
--------------------------------------------------------------------------

    Molecular point group: c1
  Charge       = 0
  Multiplicity = 1
  Basis Set: AUG-CC-PVTZ
    Blend: AUG-CC-PVTZ
  Basis Set: (AUG-CC-PVTZ AUX)
    Blend: AUG-CC-PVTZ-JKFIT

    Orbital Energies [Eh]
    ---------------------

    Doubly Occupied:

       1A    -20.506779     2A    -15.617939     3A    -11.350783
       4A    -11.313444     5A    -11.271044     6A    -11.260924
       7A    -11.241584     8A    -11.235249     9A    -11.234853
      10A     -1.365956    11A     -1.268206    12A     -1.103501
      13A     -1.087355    14A     -1.005924    15A     -0.902320
      16A     -0.867197    17A     -0.830322    18A     -0.736704
      19A     -0.692695    20A     -0.663665    21A     -0.635745
      22A     -0.625864    23A     -0.611187    24A     -0.598747
      25A     -0.562876    26A     -0.552991    27A     -0.541301
      28A     -0.522941    29A     -0.512546    30A     -0.468834
      31A     -0.420614    32A     -0.419338    33A     -0.310236

  @DF-RHF Final Energy:  -399.78325333946492

   => Energetics <=

    Nuclear Repulsion Energy =            426.5780193453358606
    One-Electron Energy =               -1388.0432127683573071
    Two-Electron Energy =                 561.6819400835565830
    Total Energy =                       -399.7832533394648635
  Basis Set: (AUG-CC-PVTZ AUX)
    Blend: AUG-CC-PVTZ-RI
    Molecular point group: c1

    Geometry (in Angstrom), charge = 0, multiplicity = 1:

       Center              X                  Y                   Z               Mass
    ------------   -----------------  -----------------  -----------------  -----------------
         O           -2.065081105391    -1.761648529402    -0.000135645742    15.994914619570
         N           -0.034709105391    -0.727804529402    -0.245667645742    14.003074004430
         C            0.819898194609     0.362947370598    -0.268976345742    12.000000000000
         C            2.265251894609     0.055990470598    -0.529715645742    12.000000000000
         C            0.289854894609     1.595514470598    -0.069677645742    12.000000000000
         C            2.926729894609    -0.647712529402     0.660467354258    12.000000000000
         C           -1.418773105391    -0.707689529402    -0.002088645742    12.000000000000
         C           -1.103193105391     1.723061470598     0.188423354258    12.000000000000
         C           -1.925962105391     0.630177470598     0.225347354258    12.000000000000
         H            2.368600894609    -0.558704529402    -1.433401645742     1.007825032230
         H            2.774920894609     1.002718470598    -0.733903645742     1.007825032230
         H            0.328138894609    -1.663902529402    -0.414901645742     1.007825032230
         H            0.938192894609     2.464554470598    -0.097753645742     1.007825032230
         H            3.987572894609    -0.824498529402     0.462616354258     1.007825032230
         H            2.457434894609    -1.613868529402     0.865919354258     1.007825032230
         H            2.839989894609    -0.033478529402     1.560358354258     1.007825032230
         H           -1.521468105391     2.712696470598     0.360712354258     1.007825032230
         H           -2.989744105391     0.718683470598     0.419528354258     1.007825032230

  Basis Set: AUG-CC-PVTZ
    Blend: AUG-CC-PVTZ
  Basis Set: (AUG-CC-PVTZ AUX)
    Blend: AUG-CC-PVTZ-JKFIT
	 Reference Energy          =    -399.7832533394649204 [Eh]
	 Singles Energy            =      -0.0000000000000000 [Eh]
	 Same-Spin Energy          =      -0.4219690223949130 [Eh]
	 Opposite-Spin Energy      =      -1.3371656703605685 [Eh]
	 Correlation Energy        =      -1.7591346927554816 [Eh]
	 Total Energy              =    -401.5423880322204013 [Eh]

	 ================> DF-SCS-MP2 Energies <==================
	-----------------------------------------------------------
	 SCS Same-Spin Scale       =       0.3333333333333333 [-]
	 SCS Opposite-Spin Scale   =       1.2000000000000000 [-]
	 SCS Same-Spin Energy      =      -0.1406563407983043 [Eh]
	 SCS Opposite-Spin Energy  =      -1.6045988044326822 [Eh]
	 SCS Correlation Energy    =      -1.7452551452309866 [Eh]
	 SCS Total Energy          =    -401.5285084846959194 [Eh]
	-----------------------------------------------------------

  Dipole Moment: [D]
     X:     4.0718      Y:     2.6201      Z:    -0.2704     Total:     4.8495

*** Psi4 exiting successfully. Buy a developer a beer!
