                               Psi4 1.3.2 release

  ==> Input File <==

--------------------------------------------------------------------------
#psi4
#
memory 32 gb

molecule  {
0 1
  O       -2.1484710    -1.7769200    -0.0056360
  N       -0.1180990    -0.7430760    -0.2511680
  C        0.8353129     0.2403386    -0.3232014
  C        2.1818620     0.0407190    -0.5352160
  C        0.2064650     1.5802430    -0.0751780
  C        2.8433400    -0.6629840     0.6549670
  C       -1.5021630    -0.7229610    -0.0075890
  C       -1.1865830     1.7077900     0.1829230
  C       -2.0093520     0.6149060     0.2198470
  H        2.2852110    -0.5739760    -1.4389020
  H        2.6915310     0.9874470    -0.7394040
  H        0.2447490    -1.6791740    -0.4204020
  H        0.8548030     2.4492830    -0.1032540
  H        3.9041830    -0.8397700     0.4571160
  H        2.3740450    -1.6291400     0.8604190
  H        2.7566000    -0.0487500     1.5548580
  H       -1.6048580     2.6974250     0.3552120
  H       -3.0731340     0.7034120     0.4140280
units angstrom
no_reorient  #important for SAPT in psi4, default
symmetry c1  #important for SAPT in psi4, default
}

set PROPERTIES_ORIGIN ["COM"]
properties('MP2/aug-cc-pvtz', properties = ['dipole'])
--------------------------------------------------------------------------

    Molecular point group: c1
  Charge       = 0
  Multiplicity = 1
  Basis Set: AUG-CC-PVTZ
    Blend: AUG-CC-PVTZ
  Basis Set: (AUG-CC-PVTZ AUX)
    Blend: AUG-CC-PVTZ-JKFIT

    Orbital Energies [Eh]
    ---------------------

    Doubly Occupied:

       1A    -20.504450     2A    -15.627650     3A    -11.351943
       4A    -11.332341     5A    -11.267547     6A    -11.261726
       7A    -11.249958     8A    -11.243426     9A    -11.228009
      10A     -1.366122    11A     -1.275714    12A     -1.115560
      13A     -1.091737    14A     -0.992677    15A     -0.917399
      16A     -0.859081    17A     -0.841119    18A     -0.728322
      19A     -0.695363    20A     -0.675123    21A     -0.643390
      22A     -0.631297    23A     -0.611127    24A     -0.597393
      25A     -0.566932    26A     -0.549415    27A     -0.542730
      28A     -0.540439    29A     -0.502496    30A     -0.461463
      31A     -0.421732    32A     -0.417668    33A     -0.288919

  @DF-RHF Final Energy:  -399.74778243551771

   => Energetics <=

    Nuclear Repulsion Energy =            426.0945957155807378
    One-Electron Energy =               -1386.8842238713696133
    Two-Electron Energy =                 561.0418457202712261
    Total Energy =                       -399.7477824355177063
  Basis Set: (AUG-CC-PVTZ AUX)
    Blend: AUG-CC-PVTZ-RI
    Molecular point group: c1

    Geometry (in Angstrom), charge = 0, multiplicity = 1:

       Center              X                  Y                   Z               Mass
    ------------   -----------------  -----------------  -----------------  -----------------
         O           -2.074715219965    -1.751182419057     0.004615340977    15.994914619570
         N           -0.044343219965    -0.717338419057    -0.240916659023    14.003074004430
         C            0.909068680035     0.266076180943    -0.312950059023    12.000000000000
         C            2.255617780035     0.066456580943    -0.524964659023    12.000000000000
         C            0.280220780035     1.605980580943    -0.064926659023    12.000000000000
         C            2.917095780035    -0.637246419057     0.665218340977    12.000000000000
         C           -1.428407219965    -0.697223419057     0.002662340977    12.000000000000
         C           -1.112827219965     1.733527580943     0.193174340977    12.000000000000
         C           -1.935596219965     0.640643580943     0.230098340977    12.000000000000
         H            2.358966780035    -0.548238419057    -1.428650659023     1.007825032230
         H            2.765286780035     1.013184580943    -0.729152659023     1.007825032230
         H            0.318504780035    -1.653436419057    -0.410150659023     1.007825032230
         H            0.928558780035     2.475020580943    -0.093002659023     1.007825032230
         H            3.977938780035    -0.814032419057     0.467367340977     1.007825032230
         H            2.447800780035    -1.603402419057     0.870670340977     1.007825032230
         H            2.830355780035    -0.023012419057     1.565109340977     1.007825032230
         H           -1.531102219965     2.723162580943     0.365463340977     1.007825032230
         H           -2.999378219965     0.729149580943     0.424279340977     1.007825032230

  Basis Set: AUG-CC-PVTZ
    Blend: AUG-CC-PVTZ
  Basis Set: (AUG-CC-PVTZ AUX)
    Blend: AUG-CC-PVTZ-JKFIT
	 Reference Energy          =    -399.7477824355177063 [Eh]
	 Singles Energy            =      -0.0000000000000000 [Eh]
	 Same-Spin Energy          =      -0.4263055713401627 [Eh]
	 Opposite-Spin Energy      =      -1.3423584150535777 [Eh]
	 Correlation Energy        =      -1.7686639863937403 [Eh]
	 Total Energy              =    -401.5164464219114393 [Eh]

	 ================> DF-SCS-MP2 Energies <==================
	-----------------------------------------------------------
	 SCS Same-Spin Scale       =       0.3333333333333333 [-]
	 SCS Opposite-Spin Scale   =       1.2000000000000000 [-]
	 SCS Same-Spin Energy      =      -0.1421018571133875 [Eh]
	 SCS Opposite-Spin Energy  =      -1.6108300980642931 [Eh]
	 SCS Correlation Energy    =      -1.7529319551776807 [Eh]
	 SCS Total Energy          =    -401.5007143906954070 [Eh]
	-----------------------------------------------------------

  Dipole Moment: [D]
     X:     4.4147      Y:     2.4682      Z:    -0.3102     Total:     5.0673

*** Psi4 exiting successfully. Buy a developer a beer!
