                               Psi4 1.3.2 release

  ==> Input File <==

--------------------------------------------------------------------------
#psi4
#
memory 32 gb

molecule  {
0 1
  O       -2.1484710    -1.7769200    -0.0056360
  N       -0.1180990    -0.7430760    -0.2511680
  C        0.6927521     0.3626159    -0.2865705
  C        2.1818620     0.0407190    -0.5352160
  C        0.2064650     1.5802430    -0.0751780
  C        2.8433400    -0.6629840     0.6549670
  C       -1.5021630    -0.7229610    -0.0075890
  C       -1.1865830     1.7077900     0.1829230
  C       -2.0093520     0.6149060     0.2198470
  H        2.2852110    -0.5739760    -1.4389020
  H        2.6915310     0.9874470    -0.7394040
  H        0.2447490    -1.6791740    -0.4204020
  H        0.8548030     2.4492830    -0.1032540
  H        3.9041830    -0.8397700     0.4571160
  H        2.3740450    -1.6291400     0.8604190
  H        2.7566000    -0.0487500     1.5548580
  H       -1.6048580     2.6974250     0.3552120
  H       -3.0731340     0.7034120     0.4140280
units angstrom
no_reorient  #important for SAPT in psi4, default
symmetry c1  #important for SAPT in psi4, default
}

set PROPERTIES_ORIGIN ["COM"]
properties('MP2/aug-cc-pvtz', properties = ['dipole'])
--------------------------------------------------------------------------

    Molecular point group: c1
  Charge       = 0
  Multiplicity = 1
  Basis Set: AUG-CC-PVTZ
    Blend: AUG-CC-PVTZ
  Basis Set: (AUG-CC-PVTZ AUX)
    Blend: AUG-CC-PVTZ-JKFIT

    Orbital Energies [Eh]
    ---------------------

    Doubly Occupied:

       1A    -20.507418     2A    -15.618140     3A    -11.350642
       4A    -11.309290     5A    -11.271254     6A    -11.261287
       7A    -11.240254     8A    -11.235444     9A    -11.231435
      10A     -1.367191    11A     -1.272022    12A     -1.107178
      13A     -1.080483    14A     -1.008560    15A     -0.898179
      16A     -0.868927    17A     -0.830897    18A     -0.740647
      19A     -0.693882    20A     -0.661546    21A     -0.633287
      22A     -0.625571    23A     -0.611612    24A     -0.599073
      25A     -0.562696    26A     -0.556862    27A     -0.539418
      28A     -0.518626    29A     -0.507577    30A     -0.472493
      31A     -0.420676    32A     -0.419948    33A     -0.313619

  @DF-RHF Final Energy:  -399.78251563590618

   => Energetics <=

    Nuclear Repulsion Energy =            426.8716051211549143
    One-Electron Energy =               -1388.6359728942450147
    Two-Electron Energy =                 561.9818521371838642
    Total Energy =                       -399.7825156359061793
  Basis Set: (AUG-CC-PVTZ AUX)
    Blend: AUG-CC-PVTZ-RI
    Molecular point group: c1

    Geometry (in Angstrom), charge = 0, multiplicity = 1:

       Center              X                  Y                   Z               Mass
    ------------   -----------------  -----------------  -----------------  -----------------
         O           -2.060814580917    -1.763105280118     0.001043581286    15.994914619570
         N           -0.030442580917    -0.729261280118    -0.244488418714    14.003074004430
         C            0.780408519083     0.376430619882    -0.279890918714    12.000000000000
         C            2.269518419083     0.054533719882    -0.528536418714    12.000000000000
         C            0.294121419083     1.594057719882    -0.068498418714    12.000000000000
         C            2.930996419083    -0.649169280118     0.661646581286    12.000000000000
         C           -1.414506580917    -0.709146280118    -0.000909418714    12.000000000000
         C           -1.098926580917     1.721604719882     0.189602581286    12.000000000000
         C           -1.921695580917     0.628720719882     0.226526581286    12.000000000000
         H            2.372867419083    -0.560161280118    -1.432222418714     1.007825032230
         H            2.779187419083     1.001261719882    -0.732724418714     1.007825032230
         H            0.332405419083    -1.665359280118    -0.413722418714     1.007825032230
         H            0.942459419083     2.463097719882    -0.096574418714     1.007825032230
         H            3.991839419083    -0.825955280118     0.463795581286     1.007825032230
         H            2.461701419083    -1.615325280118     0.867098581286     1.007825032230
         H            2.844256419083    -0.034935280118     1.561537581286     1.007825032230
         H           -1.517201580917     2.711239719882     0.361891581286     1.007825032230
         H           -2.985477580917     0.717226719882     0.420707581286     1.007825032230

  Basis Set: AUG-CC-PVTZ
    Blend: AUG-CC-PVTZ
  Basis Set: (AUG-CC-PVTZ AUX)
    Blend: AUG-CC-PVTZ-JKFIT
	 Reference Energy          =    -399.7825156359061793 [Eh]
	 Singles Energy            =      -0.0000000000000000 [Eh]
	 Same-Spin Energy          =      -0.4212641448082265 [Eh]
	 Opposite-Spin Energy      =      -1.3361607318468445 [Eh]
	 Correlation Energy        =      -1.7574248766550711 [Eh]
	 Total Energy              =    -401.5399405125612589 [Eh]

	 ================> DF-SCS-MP2 Energies <==================
	-----------------------------------------------------------
	 SCS Same-Spin Scale       =       0.3333333333333333 [-]
	 SCS Opposite-Spin Scale   =       1.2000000000000000 [-]
	 SCS Same-Spin Energy      =      -0.1404213816027421 [Eh]
	 SCS Opposite-Spin Energy  =      -1.6033928782162132 [Eh]
	 SCS Correlation Energy    =      -1.7438142598189554 [Eh]
	 SCS Total Energy          =    -401.5263298957251550 [Eh]
	-----------------------------------------------------------

  Dipole Moment: [D]
     X:     3.9893      Y:     2.6184      Z:    -0.2600     Total:     4.7789

*** Psi4 exiting successfully. Buy a developer a beer!
