                               Psi4 1.3.2 release

  ==> Input File <==

--------------------------------------------------------------------------
#psi4
#
memory 32 gb

molecule  {
0 1
  O       -2.1484710    -1.7769200    -0.0056360
  N       -0.1180990    -0.7430760    -0.2511680
  C        0.7299860     0.3339780    -0.2958210
  C        2.1818620     0.0407190    -0.5352160
  C        0.2064650     1.5802430    -0.0751780
  C        2.8433400    -0.6629840     0.6549670
  C       -1.4994616    -0.8690633    -0.0246000
  C       -1.1865830     1.7077900     0.1829230
  C       -2.0093520     0.6149060     0.2198470
  H        2.2852110    -0.5739760    -1.4389020
  H        2.6915310     0.9874470    -0.7394040
  H        0.2447490    -1.6791740    -0.4204020
  H        0.8548030     2.4492830    -0.1032540
  H        3.9041830    -0.8397700     0.4571160
  H        2.3740450    -1.6291400     0.8604190
  H        2.7566000    -0.0487500     1.5548580
  H       -1.6048580     2.6974250     0.3552120
  H       -3.0731340     0.7034120     0.4140280
units angstrom
no_reorient  #important for SAPT in psi4, default
symmetry c1  #important for SAPT in psi4, default
}

set PROPERTIES_ORIGIN ["COM"]
properties('MP2/aug-cc-pvtz', properties = ['dipole'])
--------------------------------------------------------------------------

    Molecular point group: c1
  Charge       = 0
  Multiplicity = 1
  Basis Set: AUG-CC-PVTZ
    Blend: AUG-CC-PVTZ
  Basis Set: (AUG-CC-PVTZ AUX)
    Blend: AUG-CC-PVTZ-JKFIT

    Orbital Energies [Eh]
    ---------------------

    Doubly Occupied:

       1A    -20.535963     2A    -15.609688     3A    -11.354726
       4A    -11.305486     5A    -11.255765     6A    -11.253244
       7A    -11.237290     8A    -11.231222     9A    -11.226077
      10A     -1.458393    11A     -1.277809    12A     -1.093063
      13A     -1.074591    14A     -0.989072    15A     -0.889769
      16A     -0.845990    17A     -0.836220    18A     -0.722889
      19A     -0.692965    20A     -0.673238    21A     -0.640812
      22A     -0.628256    23A     -0.621581    24A     -0.611414
      25A     -0.568103    26A     -0.552858    27A     -0.542218
      28A     -0.524174    29A     -0.508979    30A     -0.491915
      31A     -0.413780    32A     -0.411038    33A     -0.298524

  @DF-RHF Final Energy:  -399.75642479439045

   => Energetics <=

    Nuclear Repulsion Energy =            426.6752049071108672
    One-Electron Energy =               -1388.1090418244509692
    Two-Electron Energy =                 561.6774121229497041
    Total Energy =                       -399.7564247943904547
  Basis Set: (AUG-CC-PVTZ AUX)
    Blend: AUG-CC-PVTZ-RI
    Molecular point group: c1

    Geometry (in Angstrom), charge = 0, multiplicity = 1:

       Center              X                  Y                   Z               Mass
    ------------   -----------------  -----------------  -----------------  -----------------
         O           -2.064708541883    -1.746066932638     0.003604254573    15.994914619570
         N           -0.034336541883    -0.712222932638    -0.241927745427    14.003074004430
         C            0.813748458117     0.364831067362    -0.286580745427    12.000000000000
         C            2.265624458117     0.071572067362    -0.525975745427    12.000000000000
         C            0.290227458117     1.611096067362    -0.065937745427    12.000000000000
         C            2.927102458117    -0.632130932638     0.664207254573    12.000000000000
         C           -1.415699141883    -0.838210232638    -0.015359745427    12.000000000000
         C           -1.102820541883     1.738643067362     0.192163254573    12.000000000000
         C           -1.925589541883     0.645759067362     0.229087254573    12.000000000000
         H            2.368973458117    -0.543122932638    -1.429661745427     1.007825032230
         H            2.775293458117     1.018300067362    -0.730163745427     1.007825032230
         H            0.328511458117    -1.648320932638    -0.411161745427     1.007825032230
         H            0.938565458117     2.480136067362    -0.094013745427     1.007825032230
         H            3.987945458117    -0.808916932638     0.466356254573     1.007825032230
         H            2.457807458117    -1.598286932638     0.869659254573     1.007825032230
         H            2.840362458117    -0.017896932638     1.564098254573     1.007825032230
         H           -1.521095541883     2.728278067362     0.364452254573     1.007825032230
         H           -2.989371541883     0.734265067362     0.423268254573     1.007825032230

  Basis Set: AUG-CC-PVTZ
    Blend: AUG-CC-PVTZ
  Basis Set: (AUG-CC-PVTZ AUX)
    Blend: AUG-CC-PVTZ-JKFIT
	 Reference Energy          =    -399.7564247943904547 [Eh]
	 Singles Energy            =      -0.0000000000000000 [Eh]
	 Same-Spin Energy          =      -0.4192695381034917 [Eh]
	 Opposite-Spin Energy      =      -1.3336230808722513 [Eh]
	 Correlation Energy        =      -1.7528926189757430 [Eh]
	 Total Energy              =    -401.5093174133662046 [Eh]

	 ================> DF-SCS-MP2 Energies <==================
	-----------------------------------------------------------
	 SCS Same-Spin Scale       =       0.3333333333333333 [-]
	 SCS Opposite-Spin Scale   =       1.2000000000000000 [-]
	 SCS Same-Spin Energy      =      -0.1397565127011639 [Eh]
	 SCS Opposite-Spin Energy  =      -1.6003476970467017 [Eh]
	 SCS Correlation Energy    =      -1.7401042097478656 [Eh]
	 SCS Total Energy          =    -401.4965290041383241 [Eh]
	-----------------------------------------------------------

  Dipole Moment: [D]
     X:     3.4319      Y:     1.4612      Z:    -0.2997     Total:     3.7421

*** Psi4 exiting successfully. Buy a developer a beer!
