                               Psi4 1.3.2 release

  ==> Input File <==

--------------------------------------------------------------------------
#psi4
#
memory 32 gb

molecule  {
0 1
  O       -2.1484710    -1.7769200    -0.0056360
  N       -0.1364492    -0.7282000    -0.2472906
  C        0.7299860     0.3339780    -0.2958210
  C        2.1818620     0.0407190    -0.5352160
  C        0.2064650     1.5802430    -0.0751780
  C        2.8433400    -0.6629840     0.6549670
  C       -1.5021630    -0.7229610    -0.0075890
  C       -1.1865830     1.7077900     0.1829230
  C       -2.0093520     0.6149060     0.2198470
  H        2.2852110    -0.5739760    -1.4389020
  H        2.6915310     0.9874470    -0.7394040
  H        0.2447490    -1.6791740    -0.4204020
  H        0.8548030     2.4492830    -0.1032540
  H        3.9041830    -0.8397700     0.4571160
  H        2.3740450    -1.6291400     0.8604190
  H        2.7566000    -0.0487500     1.5548580
  H       -1.6048580     2.6974250     0.3552120
  H       -3.0731340     0.7034120     0.4140280
units angstrom
no_reorient  #important for SAPT in psi4, default
symmetry c1  #important for SAPT in psi4, default
}

set PROPERTIES_ORIGIN ["COM"]
properties('MP2/aug-cc-pvtz', properties = ['dipole'])
--------------------------------------------------------------------------

    Molecular point group: c1
  Charge       = 0
  Multiplicity = 1
  Basis Set: AUG-CC-PVTZ
    Blend: AUG-CC-PVTZ
  Basis Set: (AUG-CC-PVTZ AUX)
    Blend: AUG-CC-PVTZ-JKFIT

    Orbital Energies [Eh]
    ---------------------

    Doubly Occupied:

       1A    -20.504684     2A    -15.622025     3A    -11.348859
       4A    -11.314809     5A    -11.269668     6A    -11.262574
       7A    -11.242764     8A    -11.235547     9A    -11.233817
      10A     -1.367505    11A     -1.273369    12A     -1.101667
      13A     -1.088970    14A     -1.005743    15A     -0.902575
      16A     -0.866503    17A     -0.837149    18A     -0.733972
      19A     -0.692604    20A     -0.661140    21A     -0.636993
      22A     -0.626997    23A     -0.611959    24A     -0.600796
      25A     -0.563366    26A     -0.551567    27A     -0.541546
      28A     -0.525605    29A     -0.510907    30A     -0.468500
      31A     -0.420313    32A     -0.419335    33A     -0.308019

  @DF-RHF Final Energy:  -399.78236582503627

   => Energetics <=

    Nuclear Repulsion Energy =            426.9227252189962201
    One-Electron Energy =               -1388.7064915711689537
    Two-Electron Energy =                 562.0014005271364113
    Total Energy =                       -399.7823658250363223
  Basis Set: (AUG-CC-PVTZ AUX)
    Blend: AUG-CC-PVTZ-RI
    Molecular point group: c1

    Geometry (in Angstrom), charge = 0, multiplicity = 1:

       Center              X                  Y                   Z               Mass
    ------------   -----------------  -----------------  -----------------  -----------------
         O           -2.062357199249    -1.762005525381     0.001504385802    15.994914619570
         N           -0.050335399249    -0.713285525381    -0.240150214198    14.003074004430
         C            0.816099800751     0.348892474619    -0.288680614198    12.000000000000
         C            2.267975800751     0.055633474619    -0.528075614198    12.000000000000
         C            0.292578800751     1.595157474619    -0.068037614198    12.000000000000
         C            2.929453800751    -0.648069525381     0.662107385802    12.000000000000
         C           -1.416049199249    -0.708046525381    -0.000448614198    12.000000000000
         C           -1.100469199249     1.722704474619     0.190063385802    12.000000000000
         C           -1.923238199249     0.629820474619     0.226987385802    12.000000000000
         H            2.371324800751    -0.559061525381    -1.431761614198     1.007825032230
         H            2.777644800751     1.002361474619    -0.732263614198     1.007825032230
         H            0.330862800751    -1.664259525381    -0.413261614198     1.007825032230
         H            0.940916800751     2.464197474619    -0.096113614198     1.007825032230
         H            3.990296800751    -0.824855525381     0.464256385802     1.007825032230
         H            2.460158800751    -1.614225525381     0.867559385802     1.007825032230
         H            2.842713800751    -0.033835525381     1.561998385802     1.007825032230
         H           -1.518744199249     2.712339474619     0.362352385802     1.007825032230
         H           -2.987020199249     0.718326474619     0.421168385802     1.007825032230

  Basis Set: AUG-CC-PVTZ
    Blend: AUG-CC-PVTZ
  Basis Set: (AUG-CC-PVTZ AUX)
    Blend: AUG-CC-PVTZ-JKFIT
	 Reference Energy          =    -399.7823658250362655 [Eh]
	 Singles Energy            =      -0.0000000000000000 [Eh]
	 Same-Spin Energy          =      -0.4224542120749887 [Eh]
	 Opposite-Spin Energy      =      -1.3374329823708471 [Eh]
	 Correlation Energy        =      -1.7598871944458359 [Eh]
	 Total Energy              =    -401.5422530194820752 [Eh]

	 ================> DF-SCS-MP2 Energies <==================
	-----------------------------------------------------------
	 SCS Same-Spin Scale       =       0.3333333333333333 [-]
	 SCS Opposite-Spin Scale   =       1.2000000000000000 [-]
	 SCS Same-Spin Energy      =      -0.1408180706916629 [Eh]
	 SCS Opposite-Spin Energy  =      -1.6049195788450163 [Eh]
	 SCS Correlation Energy    =      -1.7457376495366792 [Eh]
	 SCS Total Energy          =    -401.5281034745729585 [Eh]
	-----------------------------------------------------------

  Dipole Moment: [D]
     X:     4.1825      Y:     2.6045      Z:    -0.2822     Total:     4.9352

*** Psi4 exiting successfully. Buy a developer a beer!
