                               Psi4 1.3.2 release

  ==> Input File <==

--------------------------------------------------------------------------
#psi4
#
memory 32 gb

molecule  {
0 1
  O       -2.1484710    -1.7769200    -0.0056360
  N       -0.1180990    -0.7430760    -0.2511680
  C        0.7083370     0.2783351    -0.3818621
  C        2.1818620     0.0407190    -0.5352160
  C        0.2064650     1.5802430    -0.0751780
  C        2.8433400    -0.6629840     0.6549670
  C       -1.5021630    -0.7229610    -0.0075890
  C       -1.1865830     1.7077900     0.1829230
  C       -2.0093520     0.6149060     0.2198470
  H        2.2852110    -0.5739760    -1.4389020
  H        2.6915310     0.9874470    -0.7394040
  H        0.2447490    -1.6791740    -0.4204020
  H        0.8548030     2.4492830    -0.1032540
  H        3.9041830    -0.8397700     0.4571160
  H        2.3740450    -1.6291400     0.8604190
  H        2.7566000    -0.0487500     1.5548580
  H       -1.6048580     2.6974250     0.3552120
  H       -3.0731340     0.7034120     0.4140280
units angstrom
no_reorient  #important for SAPT in psi4, default
symmetry c1  #important for SAPT in psi4, default
}

set PROPERTIES_ORIGIN ["COM"]
properties('MP2/aug-cc-pvtz', properties = ['dipole'])
--------------------------------------------------------------------------

    Molecular point group: c1
  Charge       = 0
  Multiplicity = 1
  Basis Set: AUG-CC-PVTZ
    Blend: AUG-CC-PVTZ
  Basis Set: (AUG-CC-PVTZ AUX)
    Blend: AUG-CC-PVTZ-JKFIT

    Orbital Energies [Eh]
    ---------------------

    Doubly Occupied:

       1A    -20.506914     2A    -15.628691     3A    -11.352250
       4A    -11.321547     5A    -11.268337     6A    -11.263773
       7A    -11.244822     8A    -11.236972     9A    -11.229513
      10A     -1.371656    11A     -1.288865    12A     -1.098563
      13A     -1.087922    14A     -0.999127    15A     -0.904522
      16A     -0.866601    17A     -0.846144    18A     -0.738961
      19A     -0.690406    20A     -0.658828    21A     -0.643797
      22A     -0.629561    23A     -0.613784    24A     -0.598889
      25A     -0.565532    26A     -0.552039    27A     -0.541174
      28A     -0.529957    29A     -0.503558    30A     -0.471524
      31A     -0.421923    32A     -0.421002    33A     -0.297057

  @DF-RHF Final Energy:  -399.77404239333373

   => Energetics <=

    Nuclear Repulsion Energy =            426.6178956060132350
    One-Electron Energy =               -1387.9954523574008363
    Two-Electron Energy =                 561.6035143580538715
    Total Energy =                       -399.7740423933337297
  Basis Set: (AUG-CC-PVTZ AUX)
    Blend: AUG-CC-PVTZ-RI
    Molecular point group: c1

    Geometry (in Angstrom), charge = 0, multiplicity = 1:

       Center              X                  Y                   Z               Mass
    ------------   -----------------  -----------------  -----------------  -----------------
         O           -2.062334213730    -1.754887333954     0.010335154677    15.994914619570
         N           -0.031962213730    -0.721043333954    -0.235196845323    14.003074004430
         C            0.794473786270     0.300367766046    -0.365890945323    12.000000000000
         C            2.267998786270     0.062751666046    -0.519244845323    12.000000000000
         C            0.292601786270     1.602275666046    -0.059206845323    12.000000000000
         C            2.929476786270    -0.640951333954     0.670938154677    12.000000000000
         C           -1.416026213730    -0.700928333954     0.008382154677    12.000000000000
         C           -1.100446213730     1.729822666046     0.198894154677    12.000000000000
         C           -1.923215213730     0.636938666046     0.235818154677    12.000000000000
         H            2.371347786270    -0.551943333954    -1.422930845323     1.007825032230
         H            2.777667786270     1.009479666046    -0.723432845323     1.007825032230
         H            0.330885786270    -1.657141333954    -0.404430845323     1.007825032230
         H            0.940939786270     2.471315666046    -0.087282845323     1.007825032230
         H            3.990319786270    -0.817737333954     0.473087154677     1.007825032230
         H            2.460181786270    -1.607107333954     0.876390154677     1.007825032230
         H            2.842736786270    -0.026717333954     1.570829154677     1.007825032230
         H           -1.518721213730     2.719457666046     0.371183154677     1.007825032230
         H           -2.986997213730     0.725444666046     0.429999154677     1.007825032230

  Basis Set: AUG-CC-PVTZ
    Blend: AUG-CC-PVTZ
  Basis Set: (AUG-CC-PVTZ AUX)
    Blend: AUG-CC-PVTZ-JKFIT
	 Reference Energy          =    -399.7740423933337297 [Eh]
	 Singles Energy            =      -0.0000000000000000 [Eh]
	 Same-Spin Energy          =      -0.4234182013568204 [Eh]
	 Opposite-Spin Energy      =      -1.3380266414240962 [Eh]
	 Correlation Energy        =      -1.7614448427809166 [Eh]
	 Total Energy              =    -401.5354872361146477 [Eh]

	 ================> DF-SCS-MP2 Energies <==================
	-----------------------------------------------------------
	 SCS Same-Spin Scale       =       0.3333333333333333 [-]
	 SCS Opposite-Spin Scale   =       1.2000000000000000 [-]
	 SCS Same-Spin Energy      =      -0.1411394004522735 [Eh]
	 SCS Opposite-Spin Energy  =      -1.6056319697089154 [Eh]
	 SCS Correlation Energy    =      -1.7467713701611889 [Eh]
	 SCS Total Energy          =    -401.5208137634949139 [Eh]
	-----------------------------------------------------------

  Dipole Moment: [D]
     X:     4.1692      Y:     2.4320      Z:    -0.2790     Total:     4.8348

*** Psi4 exiting successfully. Buy a developer a beer!
