                               Psi4 1.3.2 release

  ==> Input File <==

--------------------------------------------------------------------------
#psi4
#
memory 32 gb

molecule  {
0 1
  O       -2.1484710    -1.7769200    -0.0056360
  N       -0.0421719    -0.7992552    -0.2668016
  C        0.7299860     0.3339780    -0.2958210
  C        2.1818620     0.0407190    -0.5352160
  C        0.2064650     1.5802430    -0.0751780
  C        2.8433400    -0.6629840     0.6549670
  C       -1.5021630    -0.7229610    -0.0075890
  C       -1.1865830     1.7077900     0.1829230
  C       -2.0093520     0.6149060     0.2198470
  H        2.2852110    -0.5739760    -1.4389020
  H        2.6915310     0.9874470    -0.7394040
  H        0.2447490    -1.6791740    -0.4204020
  H        0.8548030     2.4492830    -0.1032540
  H        3.9041830    -0.8397700     0.4571160
  H        2.3740450    -1.6291400     0.8604190
  H        2.7566000    -0.0487500     1.5548580
  H       -1.6048580     2.6974250     0.3552120
  H       -3.0731340     0.7034120     0.4140280
units angstrom
no_reorient  #important for SAPT in psi4, default
symmetry c1  #important for SAPT in psi4, default
}

set PROPERTIES_ORIGIN ["COM"]
properties('MP2/aug-cc-pvtz', properties = ['dipole'])
--------------------------------------------------------------------------

    Molecular point group: c1
  Charge       = 0
  Multiplicity = 1
  Basis Set: AUG-CC-PVTZ
    Blend: AUG-CC-PVTZ
  Basis Set: (AUG-CC-PVTZ AUX)
    Blend: AUG-CC-PVTZ-JKFIT

    Orbital Energies [Eh]
    ---------------------

    Doubly Occupied:

       1A    -20.515472     2A    -15.612018     3A    -11.359926
       4A    -11.316281     5A    -11.274014     6A    -11.256717
       7A    -11.239941     8A    -11.235360     9A    -11.234012
      10A     -1.366252    11A     -1.269916    12A     -1.107315
      13A     -1.081522    14A     -1.001026    15A     -0.905208
      16A     -0.869235    17A     -0.821075    18A     -0.749906
      19A     -0.692061    20A     -0.667651    21A     -0.637856
      22A     -0.624372    23A     -0.608870    24A     -0.593265
      25A     -0.564076    26A     -0.557244    27A     -0.539649
      28A     -0.520020    29A     -0.510573    30A     -0.472146
      31A     -0.422631    32A     -0.421619    33A     -0.306477

  @DF-RHF Final Energy:  -399.77140711275047

   => Energetics <=

    Nuclear Repulsion Energy =            425.4435732583041272
    One-Electron Energy =               -1385.7225561815050696
    Two-Electron Energy =                 560.5075758104504757
    Total Energy =                       -399.7714071127504667
  Basis Set: (AUG-CC-PVTZ AUX)
    Blend: AUG-CC-PVTZ-RI
    Molecular point group: c1

    Geometry (in Angstrom), charge = 0, multiplicity = 1:

       Center              X                  Y                   Z               Mass
    ------------   -----------------  -----------------  -----------------  -----------------
         O           -2.073084338462    -1.753920662723     0.003724402849    15.994914619570
         N            0.033214761538    -0.776255862723    -0.257441197151    14.003074004430
         C            0.805372661538     0.356977337277    -0.286460597151    12.000000000000
         C            2.257248661538     0.063718337277    -0.525855597151    12.000000000000
         C            0.281851661538     1.603242337277    -0.065817597151    12.000000000000
         C            2.918726661538    -0.639984662723     0.664327402849    12.000000000000
         C           -1.426776338462    -0.699961662723     0.001771402849    12.000000000000
         C           -1.111196338462     1.730789337277     0.192283402849    12.000000000000
         C           -1.933965338462     0.637905337277     0.229207402849    12.000000000000
         H            2.360597661538    -0.550976662723    -1.429541597151     1.007825032230
         H            2.766917661538     1.010446337277    -0.730043597151     1.007825032230
         H            0.320135661538    -1.656174662723    -0.411041597151     1.007825032230
         H            0.930189661538     2.472282337277    -0.093893597151     1.007825032230
         H            3.979569661538    -0.816770662723     0.466476402849     1.007825032230
         H            2.449431661538    -1.606140662723     0.869779402849     1.007825032230
         H            2.831986661538    -0.025750662723     1.564218402849     1.007825032230
         H           -1.529471338462     2.720424337277     0.364572402849     1.007825032230
         H           -2.997747338462     0.726411337277     0.423388402849     1.007825032230

  Basis Set: AUG-CC-PVTZ
    Blend: AUG-CC-PVTZ
  Basis Set: (AUG-CC-PVTZ AUX)
    Blend: AUG-CC-PVTZ-JKFIT
	 Reference Energy          =    -399.7714071127504667 [Eh]
	 Singles Energy            =      -0.0000000000000000 [Eh]
	 Same-Spin Energy          =      -0.4216740984595747 [Eh]
	 Opposite-Spin Energy      =      -1.3372815842415793 [Eh]
	 Correlation Energy        =      -1.7589556827011541 [Eh]
	 Total Energy              =    -401.5303627954515946 [Eh]

	 ================> DF-SCS-MP2 Energies <==================
	-----------------------------------------------------------
	 SCS Same-Spin Scale       =       0.3333333333333333 [-]
	 SCS Opposite-Spin Scale   =       1.2000000000000000 [-]
	 SCS Same-Spin Energy      =      -0.1405580328198582 [Eh]
	 SCS Opposite-Spin Energy  =      -1.6047379010898950 [Eh]
	 SCS Correlation Energy    =      -1.7452959339097531 [Eh]
	 SCS Total Energy          =    -401.5167030466602114 [Eh]
	-----------------------------------------------------------

  Dipole Moment: [D]
     X:     3.7170      Y:     2.4922      Z:    -0.2350     Total:     4.4814

*** Psi4 exiting successfully. Buy a developer a beer!
