                               Psi4 1.3.2 release

  ==> Input File <==

--------------------------------------------------------------------------
#psi4
#
memory 32 gb

molecule  {
0 1
  O       -2.1484710    -1.7769200    -0.0056360
  N       -0.1180990    -0.7430760    -0.2511680
  C        0.7299860     0.3339780    -0.2958210
  C        2.1818620     0.0407190    -0.5352160
  C        0.2064650     1.5802430    -0.0751780
  C        2.8433400    -0.6629840     0.6549670
  C       -1.5011373    -0.6985888    -0.0050087
  C       -1.1865830     1.7077900     0.1829230
  C       -2.0093520     0.6149060     0.2198470
  H        2.2852110    -0.5739760    -1.4389020
  H        2.6915310     0.9874470    -0.7394040
  H        0.2447490    -1.6791740    -0.4204020
  H        0.8548030     2.4492830    -0.1032540
  H        3.9041830    -0.8397700     0.4571160
  H        2.3740450    -1.6291400     0.8604190
  H        2.7566000    -0.0487500     1.5548580
  H       -1.6048580     2.6974250     0.3552120
  H       -3.0731340     0.7034120     0.4140280
units angstrom
no_reorient  #important for SAPT in psi4, default
symmetry c1  #important for SAPT in psi4, default
}

set PROPERTIES_ORIGIN ["COM"]
properties('MP2/aug-cc-pvtz', properties = ['dipole'])
--------------------------------------------------------------------------

    Molecular point group: c1
  Charge       = 0
  Multiplicity = 1
  Basis Set: AUG-CC-PVTZ
    Blend: AUG-CC-PVTZ
  Basis Set: (AUG-CC-PVTZ AUX)
    Blend: AUG-CC-PVTZ-JKFIT

    Orbital Energies [Eh]
    ---------------------

    Doubly Occupied:

       1A    -20.501544     2A    -15.622263     3A    -11.350047
       4A    -11.316720     5A    -11.273462     6A    -11.262449
       7A    -11.243133     8A    -11.236867     9A    -11.233643
      10A     -1.355508    11A     -1.268753    12A     -1.105274
      13A     -1.088989    14A     -1.007318    15A     -0.905374
      16A     -0.870079    17A     -0.833306    18A     -0.739989
      19A     -0.694138    20A     -0.663368    21A     -0.638829
      22A     -0.627012    23A     -0.607769    24A     -0.597622
      25A     -0.564003    26A     -0.551539    27A     -0.541571
      28A     -0.524346    29A     -0.511860    30A     -0.463821
      31A     -0.421590    32A     -0.417948    33A     -0.308831

  @DF-RHF Final Energy:  -399.78104361846584

   => Energetics <=

    Nuclear Repulsion Energy =            426.6513572238815186
    One-Electron Energy =               -1388.1668687797830444
    Two-Electron Energy =                 561.7344679374356247
    Total Energy =                       -399.7810436184659011
  Basis Set: (AUG-CC-PVTZ AUX)
    Blend: AUG-CC-PVTZ-RI
    Molecular point group: c1

    Geometry (in Angstrom), charge = 0, multiplicity = 1:

       Center              X                  Y                   Z               Mass
    ------------   -----------------  -----------------  -----------------  -----------------
         O           -2.064545149837    -1.762689345611     0.001693970752    15.994914619570
         N           -0.034173149837    -0.728845345611    -0.243838029248    14.003074004430
         C            0.813911850163     0.348208654389    -0.288491029248    12.000000000000
         C            2.265787850163     0.054949654389    -0.527886029248    12.000000000000
         C            0.290390850163     1.594473654389    -0.067848029248    12.000000000000
         C            2.927265850163    -0.648753345611     0.662296970752    12.000000000000
         C           -1.417211449837    -0.684358145611     0.002321270752    12.000000000000
         C           -1.102657149837     1.722020654389     0.190252970752    12.000000000000
         C           -1.925426149837     0.629136654389     0.227176970752    12.000000000000
         H            2.369136850163    -0.559745345611    -1.431572029248     1.007825032230
         H            2.775456850163     1.001677654389    -0.732074029248     1.007825032230
         H            0.328674850163    -1.664943345611    -0.413072029248     1.007825032230
         H            0.938728850163     2.463513654389    -0.095924029248     1.007825032230
         H            3.988108850163    -0.825539345611     0.464445970752     1.007825032230
         H            2.457970850163    -1.614909345611     0.867748970752     1.007825032230
         H            2.840525850163    -0.034519345611     1.562187970752     1.007825032230
         H           -1.520932149837     2.711655654389     0.362541970752     1.007825032230
         H           -2.989208149837     0.717642654389     0.421357970752     1.007825032230

  Basis Set: AUG-CC-PVTZ
    Blend: AUG-CC-PVTZ
  Basis Set: (AUG-CC-PVTZ AUX)
    Blend: AUG-CC-PVTZ-JKFIT
	 Reference Energy          =    -399.7810436184658442 [Eh]
	 Singles Energy            =      -0.0000000000000000 [Eh]
	 Same-Spin Energy          =      -0.4228217577317256 [Eh]
	 Opposite-Spin Energy      =      -1.3379867006683064 [Eh]
	 Correlation Energy        =      -1.7608084584000321 [Eh]
	 Total Energy              =    -401.5418520768658937 [Eh]

	 ================> DF-SCS-MP2 Energies <==================
	-----------------------------------------------------------
	 SCS Same-Spin Scale       =       0.3333333333333333 [-]
	 SCS Opposite-Spin Scale   =       1.2000000000000000 [-]
	 SCS Same-Spin Energy      =      -0.1409405859105752 [Eh]
	 SCS Opposite-Spin Energy  =      -1.6055840408019677 [Eh]
	 SCS Correlation Energy    =      -1.7465246267125429 [Eh]
	 SCS Total Energy          =    -401.5275682451783723 [Eh]
	-----------------------------------------------------------

  Dipole Moment: [D]
     X:     4.2109      Y:     2.7529      Z:    -0.2717     Total:     5.0383

*** Psi4 exiting successfully. Buy a developer a beer!
