                               Psi4 1.3.2 release

  ==> Input File <==

--------------------------------------------------------------------------
#psi4
#
memory 32 gb

molecule  {
0 1
  O       -2.1484710    -1.7769200    -0.0056360
  N       -0.1180990    -0.7430760    -0.2511680
  C        0.7182699     0.3063183    -0.3387219
  C        2.1818620     0.0407190    -0.5352160
  C        0.2064650     1.5802430    -0.0751780
  C        2.8433400    -0.6629840     0.6549670
  C       -1.5021630    -0.7229610    -0.0075890
  C       -1.1865830     1.7077900     0.1829230
  C       -2.0093520     0.6149060     0.2198470
  H        2.2852110    -0.5739760    -1.4389020
  H        2.6915310     0.9874470    -0.7394040
  H        0.2447490    -1.6791740    -0.4204020
  H        0.8548030     2.4492830    -0.1032540
  H        3.9041830    -0.8397700     0.4571160
  H        2.3740450    -1.6291400     0.8604190
  H        2.7566000    -0.0487500     1.5548580
  H       -1.6048580     2.6974250     0.3552120
  H       -3.0731340     0.7034120     0.4140280
units angstrom
no_reorient  #important for SAPT in psi4, default
symmetry c1  #important for SAPT in psi4, default
}

set PROPERTIES_ORIGIN ["COM"]
properties('MP2/aug-cc-pvtz', properties = ['dipole'])
--------------------------------------------------------------------------

    Molecular point group: c1
  Charge       = 0
  Multiplicity = 1
  Basis Set: AUG-CC-PVTZ
    Blend: AUG-CC-PVTZ
  Basis Set: (AUG-CC-PVTZ AUX)
    Blend: AUG-CC-PVTZ-JKFIT

    Orbital Energies [Eh]
    ---------------------

    Doubly Occupied:

       1A    -20.506875     2A    -15.624451     3A    -11.351731
       4A    -11.318128     5A    -11.269462     6A    -11.262507
       7A    -11.243526     8A    -11.235890     9A    -11.231697
      10A     -1.369158    11A     -1.280829    12A     -1.100547
      13A     -1.087625    14A     -1.001738    15A     -0.903628
      16A     -0.866778    17A     -0.840169    18A     -0.738222
      19A     -0.691605    20A     -0.660632    21A     -0.640543
      22A     -0.627839    23A     -0.612525    24A     -0.599457
      25A     -0.564220    26A     -0.552810    27A     -0.541315
      28A     -0.527405    29A     -0.507561    30A     -0.470216
      31A     -0.421501    32A     -0.420807    33A     -0.302281

  @DF-RHF Final Energy:  -399.78084157624141

   => Energetics <=

    Nuclear Repulsion Energy =            426.6396530201905648
    One-Electron Energy =               -1388.0936391286265916
    Two-Electron Energy =                 561.6731445321946694
    Total Energy =                       -399.7808415762414143
  Basis Set: (AUG-CC-PVTZ AUX)
    Blend: AUG-CC-PVTZ-RI
    Molecular point group: c1

    Geometry (in Angstrom), charge = 0, multiplicity = 1:

       Center              X                  Y                   Z               Mass
    ------------   -----------------  -----------------  -----------------  -----------------
         O           -2.063302738440    -1.757615884598     0.006128694355    15.994914619570
         N           -0.032930738440    -0.723771884598    -0.239403305645    14.003074004430
         C            0.803438161560     0.325622415402    -0.326957205645    12.000000000000
         C            2.267030261560     0.060023115402    -0.523451305645    12.000000000000
         C            0.291633261560     1.599547115402    -0.063413305645    12.000000000000
         C            2.928508261560    -0.643679884598     0.666731694355    12.000000000000
         C           -1.416994738440    -0.703656884598     0.004175694355    12.000000000000
         C           -1.101414738440     1.727094115402     0.194687694355    12.000000000000
         C           -1.924183738440     0.634210115402     0.231611694355    12.000000000000
         H            2.370379261560    -0.554671884598    -1.427137305645     1.007825032230
         H            2.776699261560     1.006751115402    -0.727639305645     1.007825032230
         H            0.329917261560    -1.659869884598    -0.408637305645     1.007825032230
         H            0.939971261560     2.468587115402    -0.091489305645     1.007825032230
         H            3.989351261560    -0.820465884598     0.468880694355     1.007825032230
         H            2.459213261560    -1.609835884598     0.872183694355     1.007825032230
         H            2.841768261560    -0.029445884598     1.566622694355     1.007825032230
         H           -1.519689738440     2.716729115402     0.366976694355     1.007825032230
         H           -2.987965738440     0.722716115402     0.425792694355     1.007825032230

  Basis Set: AUG-CC-PVTZ
    Blend: AUG-CC-PVTZ
  Basis Set: (AUG-CC-PVTZ AUX)
    Blend: AUG-CC-PVTZ-JKFIT
	 Reference Energy          =    -399.7808415762414143 [Eh]
	 Singles Energy            =      -0.0000000000000000 [Eh]
	 Same-Spin Energy          =      -0.4227638308811419 [Eh]
	 Opposite-Spin Energy      =      -1.3374338545509539 [Eh]
	 Correlation Energy        =      -1.7601976854320958 [Eh]
	 Total Energy              =    -401.5410392616735180 [Eh]

	 ================> DF-SCS-MP2 Energies <==================
	-----------------------------------------------------------
	 SCS Same-Spin Scale       =       0.3333333333333333 [-]
	 SCS Opposite-Spin Scale   =       1.2000000000000000 [-]
	 SCS Same-Spin Energy      =      -0.1409212769603806 [Eh]
	 SCS Opposite-Spin Energy  =      -1.6049206254611446 [Eh]
	 SCS Correlation Energy    =      -1.7458419024215253 [Eh]
	 SCS Total Energy          =    -401.5266834786629602 [Eh]
	-----------------------------------------------------------

  Dipole Moment: [D]
     X:     4.1325      Y:     2.5009      Z:    -0.2779     Total:     4.8383

*** Psi4 exiting successfully. Buy a developer a beer!
