                               Psi4 1.3.2 release

  ==> Input File <==

--------------------------------------------------------------------------
#psi4
#
memory 32 gb

molecule  {
0 1
  O       -2.1484710    -1.7769200    -0.0056360
  N       -0.1180990    -0.7430760    -0.2511680
  C        0.7115711     0.3484208    -0.2907858
  C        2.1818620     0.0407190    -0.5352160
  C        0.2064650     1.5802430    -0.0751780
  C        2.8433400    -0.6629840     0.6549670
  C       -1.5021630    -0.7229610    -0.0075890
  C       -1.1865830     1.7077900     0.1829230
  C       -2.0093520     0.6149060     0.2198470
  H        2.2852110    -0.5739760    -1.4389020
  H        2.6915310     0.9874470    -0.7394040
  H        0.2447490    -1.6791740    -0.4204020
  H        0.8548030     2.4492830    -0.1032540
  H        3.9041830    -0.8397700     0.4571160
  H        2.3740450    -1.6291400     0.8604190
  H        2.7566000    -0.0487500     1.5548580
  H       -1.6048580     2.6974250     0.3552120
  H       -3.0731340     0.7034120     0.4140280
units angstrom
no_reorient  #important for SAPT in psi4, default
symmetry c1  #important for SAPT in psi4, default
}

set PROPERTIES_ORIGIN ["COM"]
properties('MP2/aug-cc-pvtz', properties = ['dipole'])
--------------------------------------------------------------------------

    Molecular point group: c1
  Charge       = 0
  Multiplicity = 1
  Basis Set: AUG-CC-PVTZ
    Blend: AUG-CC-PVTZ
  Basis Set: (AUG-CC-PVTZ AUX)
    Blend: AUG-CC-PVTZ-JKFIT

    Orbital Energies [Eh]
    ---------------------

    Doubly Occupied:

       1A    -20.507126     2A    -15.619094     3A    -11.350890
       4A    -11.312086     5A    -11.270903     6A    -11.261362
       7A    -11.241206     8A    -11.234769     9A    -11.233309
      10A     -1.367073    11A     -1.272188    12A     -1.104747
      13A     -1.083819    14A     -1.006568    15A     -0.900401
      16A     -0.868080    17A     -0.832282    18A     -0.738928
      19A     -0.693056    20A     -0.661938    21A     -0.635280
      22A     -0.625956    23A     -0.611633    24A     -0.599180
      25A     -0.562906    26A     -0.554988    27A     -0.540398
      28A     -0.521340    29A     -0.509846    30A     -0.470799
      31A     -0.420512    32A     -0.420321    33A     -0.310623

  @DF-RHF Final Energy:  -399.78384829322169

   => Energetics <=

    Nuclear Repulsion Energy =            426.7365869396726339
    One-Electron Energy =               -1388.3536604699686450
    Two-Electron Energy =                 561.8332252370743163
    Total Energy =                       -399.7838482932216948
  Basis Set: (AUG-CC-PVTZ AUX)
    Blend: AUG-CC-PVTZ-RI
    Molecular point group: c1

    Geometry (in Angstrom), charge = 0, multiplicity = 1:

       Center              X                  Y                   Z               Mass
    ------------   -----------------  -----------------  -----------------  -----------------
         O           -2.062649560282    -1.761721162174     0.001454601453    15.994914619570
         N           -0.032277560282    -0.727877162174    -0.244077398547    14.003074004430
         C            0.797392539718     0.363619637826    -0.283695198547    12.000000000000
         C            2.267683439718     0.055917837826    -0.528125398547    12.000000000000
         C            0.292286439718     1.595441837826    -0.068087398547    12.000000000000
         C            2.929161439718    -0.647785162174     0.662057601453    12.000000000000
         C           -1.416341560282    -0.707762162174    -0.000498398547    12.000000000000
         C           -1.100761560282     1.722988837826     0.190013601453    12.000000000000
         C           -1.923530560282     0.630104837826     0.226937601453    12.000000000000
         H            2.371032439718    -0.558777162174    -1.431811398547     1.007825032230
         H            2.777352439718     1.002645837826    -0.732313398547     1.007825032230
         H            0.330570439718    -1.663975162174    -0.413311398547     1.007825032230
         H            0.940624439718     2.464481837826    -0.096163398547     1.007825032230
         H            3.990004439718    -0.824571162174     0.464206601453     1.007825032230
         H            2.459866439718    -1.613941162174     0.867509601453     1.007825032230
         H            2.842421439718    -0.033551162174     1.561948601453     1.007825032230
         H           -1.519036560282     2.712623837826     0.362302601453     1.007825032230
         H           -2.987312560282     0.718610837826     0.421118601453     1.007825032230

  Basis Set: AUG-CC-PVTZ
    Blend: AUG-CC-PVTZ
  Basis Set: (AUG-CC-PVTZ AUX)
    Blend: AUG-CC-PVTZ-JKFIT
	 Reference Energy          =    -399.7838482932216948 [Eh]
	 Singles Energy            =      -0.0000000000000000 [Eh]
	 Same-Spin Energy          =      -0.4217057351524451 [Eh]
	 Opposite-Spin Energy      =      -1.3366181178383509 [Eh]
	 Correlation Energy        =      -1.7583238529907961 [Eh]
	 Total Energy              =    -401.5421721462124651 [Eh]

	 ================> DF-SCS-MP2 Energies <==================
	-----------------------------------------------------------
	 SCS Same-Spin Scale       =       0.3333333333333333 [-]
	 SCS Opposite-Spin Scale   =       1.2000000000000000 [-]
	 SCS Same-Spin Energy      =      -0.1405685783841484 [Eh]
	 SCS Opposite-Spin Energy  =      -1.6039417414060211 [Eh]
	 SCS Correlation Energy    =      -1.7445103197901695 [Eh]
	 SCS Total Energy          =    -401.5283586130118465 [Eh]
	-----------------------------------------------------------

  Dipole Moment: [D]
     X:     4.0408      Y:     2.5983      Z:    -0.2669     Total:     4.8115

*** Psi4 exiting successfully. Buy a developer a beer!
