                               Psi4 1.3.2 release

  ==> Input File <==

--------------------------------------------------------------------------
#psi4
#
memory 32 gb

molecule  {
0 1
  O       -2.1484710    -1.7769200    -0.0056360
  N       -0.1180990    -0.7430760    -0.2511680
  C        0.7276611     0.3976099    -0.4393856
  C        2.1818620     0.0407190    -0.5352160
  C        0.2064650     1.5802430    -0.0751780
  C        2.8433400    -0.6629840     0.6549670
  C       -1.5021630    -0.7229610    -0.0075890
  C       -1.1865830     1.7077900     0.1829230
  C       -2.0093520     0.6149060     0.2198470
  H        2.2852110    -0.5739760    -1.4389020
  H        2.6915310     0.9874470    -0.7394040
  H        0.2447490    -1.6791740    -0.4204020
  H        0.8548030     2.4492830    -0.1032540
  H        3.9041830    -0.8397700     0.4571160
  H        2.3740450    -1.6291400     0.8604190
  H        2.7566000    -0.0487500     1.5548580
  H       -1.6048580     2.6974250     0.3552120
  H       -3.0731340     0.7034120     0.4140280
units angstrom
no_reorient  #important for SAPT in psi4, default
symmetry c1  #important for SAPT in psi4, default
}

set PROPERTIES_ORIGIN ["COM"]
properties('MP2/aug-cc-pvtz', properties = ['dipole'])
--------------------------------------------------------------------------

    Molecular point group: c1
  Charge       = 0
  Multiplicity = 1
  Basis Set: AUG-CC-PVTZ
    Blend: AUG-CC-PVTZ
  Basis Set: (AUG-CC-PVTZ AUX)
    Blend: AUG-CC-PVTZ-JKFIT

    Orbital Energies [Eh]
    ---------------------

    Doubly Occupied:

       1A    -20.506863     2A    -15.611953     3A    -11.350020
       4A    -11.312216     5A    -11.272522     6A    -11.259635
       7A    -11.242381     8A    -11.240129     9A    -11.238913
      10A     -1.363552    11A     -1.255061    12A     -1.104524
      13A     -1.085356    14A     -1.008317    15A     -0.905769
      16A     -0.867043    17A     -0.819699    18A     -0.733511
      19A     -0.691594    20A     -0.659918    21A     -0.629511
      22A     -0.625351    23A     -0.610977    24A     -0.593933
      25A     -0.566698    26A     -0.551711    27A     -0.542920
      28A     -0.518010    29A     -0.513183    30A     -0.466509
      31A     -0.420223    32A     -0.416246    33A     -0.315938

  @DF-RHF Final Energy:  -399.77077963954798

   => Energetics <=

    Nuclear Repulsion Energy =            425.6316924142526545
    One-Electron Energy =               -1386.2045713147117567
    Two-Electron Energy =                 560.8020992609110635
    Total Energy =                       -399.7707796395479818
  Basis Set: (AUG-CC-PVTZ AUX)
    Blend: AUG-CC-PVTZ-RI
    Molecular point group: c1

    Geometry (in Angstrom), charge = 0, multiplicity = 1:

       Center              X                  Y                   Z               Mass
    ------------   -----------------  -----------------  -----------------  -----------------
         O           -2.064218443749    -1.766517431023     0.015944083711    15.994914619570
         N           -0.033846443749    -0.732673431023    -0.229587916289    14.003074004430
         C            0.811913656251     0.408012468977    -0.417805516289    12.000000000000
         C            2.266114556251     0.051121568977    -0.513635916289    12.000000000000
         C            0.290717556251     1.590645568977    -0.053597916289    12.000000000000
         C            2.927592556251    -0.652581431023     0.676547083711    12.000000000000
         C           -1.417910443749    -0.712558431023     0.013991083711    12.000000000000
         C           -1.102330443749     1.718192568977     0.204503083711    12.000000000000
         C           -1.925099443749     0.625308568977     0.241427083711    12.000000000000
         H            2.369463556251    -0.563573431023    -1.417321916289     1.007825032230
         H            2.775783556251     0.997849568977    -0.717823916289     1.007825032230
         H            0.329001556251    -1.668771431023    -0.398821916289     1.007825032230
         H            0.939055556251     2.459685568977    -0.081673916289     1.007825032230
         H            3.988435556251    -0.829367431023     0.478696083711     1.007825032230
         H            2.458297556251    -1.618737431023     0.881999083711     1.007825032230
         H            2.840852556251    -0.038347431023     1.576438083711     1.007825032230
         H           -1.520605443749     2.707827568977     0.376792083711     1.007825032230
         H           -2.988881443749     0.713814568977     0.435608083711     1.007825032230

  Basis Set: AUG-CC-PVTZ
    Blend: AUG-CC-PVTZ
  Basis Set: (AUG-CC-PVTZ AUX)
    Blend: AUG-CC-PVTZ-JKFIT
	 Reference Energy          =    -399.7707796395479818 [Eh]
	 Singles Energy            =      -0.0000000000000000 [Eh]
	 Same-Spin Energy          =      -0.4220594721524307 [Eh]
	 Opposite-Spin Energy      =      -1.3388297244484892 [Eh]
	 Correlation Energy        =      -1.7608891966009199 [Eh]
	 Total Energy              =    -401.5316688361489241 [Eh]

	 ================> DF-SCS-MP2 Energies <==================
	-----------------------------------------------------------
	 SCS Same-Spin Scale       =       0.3333333333333333 [-]
	 SCS Opposite-Spin Scale   =       1.2000000000000000 [-]
	 SCS Same-Spin Energy      =      -0.1406864907174769 [Eh]
	 SCS Opposite-Spin Energy  =      -1.6065956693381871 [Eh]
	 SCS Correlation Energy    =      -1.7472821600556641 [Eh]
	 SCS Total Energy          =    -401.5180617996036290 [Eh]
	-----------------------------------------------------------

  Dipole Moment: [D]
     X:     3.9662      Y:     2.7505      Z:    -0.1980     Total:     4.8306

*** Psi4 exiting successfully. Buy a developer a beer!
