                               Psi4 1.3.2 release

  ==> Input File <==

--------------------------------------------------------------------------
#psi4
#
memory 32 gb

molecule  {
0 1
  O       -2.1484710    -1.7769200    -0.0056360
  N       -0.1180990    -0.7430760    -0.2511680
  C        0.7114954     0.3484632    -0.2912018
  C        2.1818620     0.0407190    -0.5352160
  C        0.2064650     1.5802430    -0.0751780
  C        2.8433400    -0.6629840     0.6549670
  C       -1.5021630    -0.7229610    -0.0075890
  C       -1.1865830     1.7077900     0.1829230
  C       -2.0093520     0.6149060     0.2198470
  H        2.2852110    -0.5739760    -1.4389020
  H        2.6915310     0.9874470    -0.7394040
  H        0.2447490    -1.6791740    -0.4204020
  H        0.8548030     2.4492830    -0.1032540
  H        3.9041830    -0.8397700     0.4571160
  H        2.3740450    -1.6291400     0.8604190
  H        2.7566000    -0.0487500     1.5548580
  H       -1.6048580     2.6974250     0.3552120
  H       -3.0731340     0.7034120     0.4140280
units angstrom
no_reorient  #important for SAPT in psi4, default
symmetry c1  #important for SAPT in psi4, default
}

set PROPERTIES_ORIGIN ["COM"]
properties('MP2/aug-cc-pvtz', properties = ['dipole'])
--------------------------------------------------------------------------

    Molecular point group: c1
  Charge       = 0
  Multiplicity = 1
  Basis Set: AUG-CC-PVTZ
    Blend: AUG-CC-PVTZ
  Basis Set: (AUG-CC-PVTZ AUX)
    Blend: AUG-CC-PVTZ-JKFIT

    Orbital Energies [Eh]
    ---------------------

    Doubly Occupied:

       1A    -20.507127     2A    -15.619094     3A    -11.350890
       4A    -11.312085     5A    -11.270903     6A    -11.261362
       7A    -11.241211     8A    -11.234771     9A    -11.233310
      10A     -1.367073    11A     -1.272188    12A     -1.104748
      13A     -1.083813    14A     -1.006569    15A     -0.900407
      16A     -0.868081    17A     -0.832280    18A     -0.738927
      19A     -0.693055    20A     -0.661926    21A     -0.635276
      22A     -0.625958    23A     -0.611635    24A     -0.599173
      25A     -0.562916    26A     -0.554990    27A     -0.540397
      28A     -0.521341    29A     -0.509841    30A     -0.470800
      31A     -0.420510    32A     -0.420324    33A     -0.310624

  @DF-RHF Final Energy:  -399.78384664644511

   => Energetics <=

    Nuclear Repulsion Energy =            426.7356396737925479
    One-Electron Energy =               -1388.3517688303331852
    Two-Electron Energy =                 561.8322825100955242
    Total Energy =                       -399.7838466464451130
  Basis Set: (AUG-CC-PVTZ AUX)
    Blend: AUG-CC-PVTZ-RI
    Molecular point group: c1

    Geometry (in Angstrom), charge = 0, multiplicity = 1:

       Center              X                  Y                   Z               Mass
    ------------   -----------------  -----------------  -----------------  -----------------
         O           -2.062642179021    -1.761725296460     0.001495164257    15.994914619570
         N           -0.032270179021    -0.727881296460    -0.244036835743    14.003074004430
         C            0.797324220979     0.363657903540    -0.284070635743    12.000000000000
         C            2.267690820979     0.055913703540    -0.528084835743    12.000000000000
         C            0.292293820979     1.595437703540    -0.068046835743    12.000000000000
         C            2.929168820979    -0.647789296460     0.662098164257    12.000000000000
         C           -1.416334179021    -0.707766296460    -0.000457835743    12.000000000000
         C           -1.100754179021     1.722984703540     0.190054164257    12.000000000000
         C           -1.923523179021     0.630100703540     0.226978164257    12.000000000000
         H            2.371039820979    -0.558781296460    -1.431770835743     1.007825032230
         H            2.777359820979     1.002641703540    -0.732272835743     1.007825032230
         H            0.330577820979    -1.663979296460    -0.413270835743     1.007825032230
         H            0.940631820979     2.464477703540    -0.096122835743     1.007825032230
         H            3.990011820979    -0.824575296460     0.464247164257     1.007825032230
         H            2.459873820979    -1.613945296460     0.867550164257     1.007825032230
         H            2.842428820979    -0.033555296460     1.561989164257     1.007825032230
         H           -1.519029179021     2.712619703540     0.362343164257     1.007825032230
         H           -2.987305179021     0.718606703540     0.421159164257     1.007825032230

  Basis Set: AUG-CC-PVTZ
    Blend: AUG-CC-PVTZ
  Basis Set: (AUG-CC-PVTZ AUX)
    Blend: AUG-CC-PVTZ-JKFIT
	 Reference Energy          =    -399.7838466464451130 [Eh]
	 Singles Energy            =      -0.0000000000000000 [Eh]
	 Same-Spin Energy          =      -0.4217056343914004 [Eh]
	 Opposite-Spin Energy      =      -1.3366180160018444 [Eh]
	 Correlation Energy        =      -1.7583236503932447 [Eh]
	 Total Energy              =    -401.5421702968383784 [Eh]

	 ================> DF-SCS-MP2 Energies <==================
	-----------------------------------------------------------
	 SCS Same-Spin Scale       =       0.3333333333333333 [-]
	 SCS Opposite-Spin Scale   =       1.2000000000000000 [-]
	 SCS Same-Spin Energy      =      -0.1405685447971334 [Eh]
	 SCS Opposite-Spin Energy  =      -1.6039416192022131 [Eh]
	 SCS Correlation Energy    =      -1.7445101639993466 [Eh]
	 SCS Total Energy          =    -401.5283568104444498 [Eh]
	-----------------------------------------------------------

  Dipole Moment: [D]
     X:     4.0407      Y:     2.5982      Z:    -0.2668     Total:     4.8114

*** Psi4 exiting successfully. Buy a developer a beer!
