                               Psi4 1.3.2 release

  ==> Input File <==

--------------------------------------------------------------------------
#psi4
#
memory 32 gb

molecule  {
0 1
  O       -2.1484710    -1.7769200    -0.0056360
  N       -0.1180990    -0.7430760    -0.2511680
  C        0.7001994     0.2500623    -0.4251892
  C        2.1818620     0.0407190    -0.5352160
  C        0.2064650     1.5802430    -0.0751780
  C        2.8433400    -0.6629840     0.6549670
  C       -1.5021630    -0.7229610    -0.0075890
  C       -1.1865830     1.7077900     0.1829230
  C       -2.0093520     0.6149060     0.2198470
  H        2.2852110    -0.5739760    -1.4389020
  H        2.6915310     0.9874470    -0.7394040
  H        0.2447490    -1.6791740    -0.4204020
  H        0.8548030     2.4492830    -0.1032540
  H        3.9041830    -0.8397700     0.4571160
  H        2.3740450    -1.6291400     0.8604190
  H        2.7566000    -0.0487500     1.5548580
  H       -1.6048580     2.6974250     0.3552120
  H       -3.0731340     0.7034120     0.4140280
units angstrom
no_reorient  #important for SAPT in psi4, default
symmetry c1  #important for SAPT in psi4, default
}

set PROPERTIES_ORIGIN ["COM"]
properties('MP2/aug-cc-pvtz', properties = ['dipole'])
--------------------------------------------------------------------------

    Molecular point group: c1
  Charge       = 0
  Multiplicity = 1
  Basis Set: AUG-CC-PVTZ
    Blend: AUG-CC-PVTZ
  Basis Set: (AUG-CC-PVTZ AUX)
    Blend: AUG-CC-PVTZ-JKFIT

    Orbital Energies [Eh]
    ---------------------

    Doubly Occupied:

       1A    -20.506943     2A    -15.632812     3A    -11.352689
       4A    -11.325087     5A    -11.267184     6A    -11.265149
       7A    -11.246082     8A    -11.238307     9A    -11.227548
      10A     -1.374454    11A     -1.296287    12A     -1.096688
      13A     -1.088250    14A     -0.996748    15A     -0.905387
      16A     -0.866724    17A     -0.851217    18A     -0.739453
      19A     -0.688865    20A     -0.657387    21A     -0.646826
      22A     -0.631625    23A     -0.615027    24A     -0.597799
      25A     -0.567091    26A     -0.550853    27A     -0.540878
      28A     -0.532198    29A     -0.499007    30A     -0.472967
      31A     -0.422025    32A     -0.420844    33A     -0.292023

  @DF-RHF Final Energy:  -399.76323062372734

   => Energetics <=

    Nuclear Repulsion Energy =            426.5444857011125350
    One-Electron Energy =               -1387.7905867993054017
    Two-Electron Energy =                 561.4828704744654715
    Total Energy =                       -399.7632306237273951
  Basis Set: (AUG-CC-PVTZ AUX)
    Blend: AUG-CC-PVTZ-RI
    Molecular point group: c1

    Geometry (in Angstrom), charge = 0, multiplicity = 1:

       Center              X                  Y                   Z               Mass
    ------------   -----------------  -----------------  -----------------  -----------------
         O           -2.061540742871    -1.752130545358     0.014559839009    15.994914619570
         N           -0.031168742871    -0.718286545358    -0.230972160991    14.003074004430
         C            0.787129657129     0.274851754642    -0.404993360991    12.000000000000
         C            2.268792257129     0.065508454642    -0.515020160991    12.000000000000
         C            0.293395257129     1.605032454642    -0.054982160991    12.000000000000
         C            2.930270257129    -0.638194545358     0.675162839009    12.000000000000
         C           -1.415232742871    -0.698171545358     0.012606839009    12.000000000000
         C           -1.099652742871     1.732579454642     0.203118839009    12.000000000000
         C           -1.922421742871     0.639695454642     0.240042839009    12.000000000000
         H            2.372141257129    -0.549186545358    -1.418706160991     1.007825032230
         H            2.778461257129     1.012236454642    -0.719208160991     1.007825032230
         H            0.331679257129    -1.654384545358    -0.400206160991     1.007825032230
         H            0.941733257129     2.474072454642    -0.083058160991     1.007825032230
         H            3.991113257129    -0.814980545358     0.477311839009     1.007825032230
         H            2.460975257129    -1.604350545358     0.880614839009     1.007825032230
         H            2.843530257129    -0.023960545358     1.575053839009     1.007825032230
         H           -1.517927742871     2.722214454642     0.375407839009     1.007825032230
         H           -2.986203742871     0.728201454642     0.434223839009     1.007825032230

  Basis Set: AUG-CC-PVTZ
    Blend: AUG-CC-PVTZ
  Basis Set: (AUG-CC-PVTZ AUX)
    Blend: AUG-CC-PVTZ-JKFIT
	 Reference Energy          =    -399.7632306237273383 [Eh]
	 Singles Energy            =      -0.0000000000000000 [Eh]
	 Same-Spin Energy          =      -0.4241639004356244 [Eh]
	 Opposite-Spin Energy      =      -1.3389586157015081 [Eh]
	 Correlation Energy        =      -1.7631225161371324 [Eh]
	 Total Energy              =    -401.5263531398644545 [Eh]

	 ================> DF-SCS-MP2 Energies <==================
	-----------------------------------------------------------
	 SCS Same-Spin Scale       =       0.3333333333333333 [-]
	 SCS Opposite-Spin Scale   =       1.2000000000000000 [-]
	 SCS Same-Spin Energy      =      -0.1413879668118748 [Eh]
	 SCS Opposite-Spin Energy  =      -1.6067503388418096 [Eh]
	 SCS Correlation Energy    =      -1.7481383056536843 [Eh]
	 SCS Total Energy          =    -401.5113689293810353 [Eh]
	-----------------------------------------------------------

  Dipole Moment: [D]
     X:     4.1997      Y:     2.3734      Z:    -0.2762     Total:     4.8318

*** Psi4 exiting successfully. Buy a developer a beer!
