                               Psi4 1.3.2 release

  ==> Input File <==

--------------------------------------------------------------------------
#psi4
#
memory 32 gb

molecule  {
0 1
  O       -2.1484710    -1.7769200    -0.0056360
  N       -0.1180990    -0.7430760    -0.2511680
  C        0.7299860     0.3339780    -0.2958210
  C        2.1818620     0.0407190    -0.5352160
  C        0.2064650     1.5802430    -0.0751780
  C        2.8433400    -0.6629840     0.6549670
  C       -1.5021630    -0.7229610    -0.0075890
  C       -1.1865830     1.7077900     0.1829230
  C       -2.0093520     0.6149060     0.2198470
  H        2.2852110    -0.5739760    -1.4389020
  H        2.6915310     0.9874470    -0.7394040
  H        0.2447490    -1.6791740    -0.4204020
  H        0.8548030     2.4492830    -0.1032540
  H        3.9041830    -0.8397700     0.4571160
  H        2.3740450    -1.6291400     0.8604190
  H        2.7566000    -0.0487500     1.5548580
  H       -1.6048580     2.6974250     0.3552120
  H       -3.0731340     0.7034120     0.4140280
units angstrom
no_reorient  #important for SAPT in psi4, default
symmetry c1  #important for SAPT in psi4, default
}

set PROPERTIES_ORIGIN ["COM"]
properties('MP2/aug-cc-pvtz', properties = ['dipole'])
--------------------------------------------------------------------------

    Molecular point group: c1
  Charge       = 0
  Multiplicity = 1
  Basis Set: AUG-CC-PVTZ
    Blend: AUG-CC-PVTZ
  Basis Set: (AUG-CC-PVTZ AUX)
    Blend: AUG-CC-PVTZ-JKFIT

    Orbital Energies [Eh]
    ---------------------

    Doubly Occupied:

       1A    -20.506817     2A    -15.620126     3A    -11.351122
       4A    -11.314929     5A    -11.270534     6A    -11.261402
       7A    -11.242226     8A    -11.235111     9A    -11.234036
      10A     -1.366956    11A     -1.272444    12A     -1.102535
      13A     -1.087416    14A     -1.004507    15A     -0.902744
      16A     -0.867055    17A     -0.833672    18A     -0.737259
      19A     -0.692430    20A     -0.662623    21A     -0.637300
      22A     -0.626460    23A     -0.611530    24A     -0.599216
      25A     -0.563237    26A     -0.553067    27A     -0.541331
      28A     -0.524515    29A     -0.511019    30A     -0.469203
      31A     -0.420898    32A     -0.420037    33A     -0.307587

  @DF-RHF Final Energy:  -399.78348936656374

   => Energetics <=

    Nuclear Repulsion Energy =            426.6109941608110034
    One-Electron Energy =               -1388.0862802897934216
    Two-Electron Energy =                 561.6917967624185621
    Total Energy =                       -399.7834893665637992
  Basis Set: (AUG-CC-PVTZ AUX)
    Blend: AUG-CC-PVTZ-RI
    Molecular point group: c1

    Geometry (in Angstrom), charge = 0, multiplicity = 1:

       Center              X                  Y                   Z               Mass
    ------------   -----------------  -----------------  -----------------  -----------------
         O           -2.064445137172    -1.760312891810     0.001945567397    15.994914619570
         N           -0.034073137172    -0.726468891810    -0.243586432603    14.003074004430
         C            0.814011862828     0.350585108190    -0.288239432603    12.000000000000
         C            2.265887862828     0.057326108190    -0.527634432603    12.000000000000
         C            0.290490862828     1.596850108190    -0.067596432603    12.000000000000
         C            2.927365862828    -0.646376891810     0.662548567397    12.000000000000
         C           -1.418137137172    -0.706353891810    -0.000007432603    12.000000000000
         C           -1.102557137172     1.724397108190     0.190504567397    12.000000000000
         C           -1.925326137172     0.631513108190     0.227428567397    12.000000000000
         H            2.369236862828    -0.557368891810    -1.431320432603     1.007825032230
         H            2.775556862828     1.004054108190    -0.731822432603     1.007825032230
         H            0.328774862828    -1.662566891810    -0.412820432603     1.007825032230
         H            0.938828862828     2.465890108190    -0.095672432603     1.007825032230
         H            3.988208862828    -0.823162891810     0.464697567397     1.007825032230
         H            2.458070862828    -1.612532891810     0.868000567397     1.007825032230
         H            2.840625862828    -0.032142891810     1.562439567397     1.007825032230
         H           -1.520832137172     2.714032108190     0.362793567397     1.007825032230
         H           -2.989108137172     0.720019108190     0.421609567397     1.007825032230

  Basis Set: AUG-CC-PVTZ
    Blend: AUG-CC-PVTZ
  Basis Set: (AUG-CC-PVTZ AUX)
    Blend: AUG-CC-PVTZ-JKFIT
	 Reference Energy          =    -399.7834893665637424 [Eh]
	 Singles Energy            =      -0.0000000000000000 [Eh]
	 Same-Spin Energy          =      -0.4222072854763773 [Eh]
	 Opposite-Spin Energy      =      -1.3371741991989472 [Eh]
	 Correlation Energy        =      -1.7593814846753244 [Eh]
	 Total Energy              =    -401.5428708512390585 [Eh]

	 ================> DF-SCS-MP2 Energies <==================
	-----------------------------------------------------------
	 SCS Same-Spin Scale       =       0.3333333333333333 [-]
	 SCS Opposite-Spin Scale   =       1.2000000000000000 [-]
	 SCS Same-Spin Energy      =      -0.1407357618254591 [Eh]
	 SCS Opposite-Spin Energy  =      -1.6046090390387366 [Eh]
	 SCS Correlation Energy    =      -1.7453448008641956 [Eh]
	 SCS Total Energy          =    -401.5288341674279309 [Eh]
	-----------------------------------------------------------

  Dipole Moment: [D]
     X:     4.0924      Y:     2.5785      Z:    -0.2735     Total:     4.8447

*** Psi4 exiting successfully. Buy a developer a beer!
