                               Psi4 1.3.2 release

  ==> Input File <==

--------------------------------------------------------------------------
#psi4
#
memory 32 gb

molecule  {
0 1
  O       -2.1484710    -1.7769200    -0.0056360
  N       -0.1180990    -0.7430760    -0.2511680
  C        0.7319232     0.3230409    -0.2721064
  C        2.1818620     0.0407190    -0.5352160
  C        0.2064650     1.5802430    -0.0751780
  C        2.8433400    -0.6629840     0.6549670
  C       -1.5021630    -0.7229610    -0.0075890
  C       -1.1865830     1.7077900     0.1829230
  C       -2.0093520     0.6149060     0.2198470
  H        2.2852110    -0.5739760    -1.4389020
  H        2.6915310     0.9874470    -0.7394040
  H        0.2447490    -1.6791740    -0.4204020
  H        0.8548030     2.4492830    -0.1032540
  H        3.9041830    -0.8397700     0.4571160
  H        2.3740450    -1.6291400     0.8604190
  H        2.7566000    -0.0487500     1.5548580
  H       -1.6048580     2.6974250     0.3552120
  H       -3.0731340     0.7034120     0.4140280
units angstrom
no_reorient  #important for SAPT in psi4, default
symmetry c1  #important for SAPT in psi4, default
}

set PROPERTIES_ORIGIN ["COM"]
properties('MP2/aug-cc-pvtz', properties = ['dipole'])
--------------------------------------------------------------------------

    Molecular point group: c1
  Charge       = 0
  Multiplicity = 1
  Basis Set: AUG-CC-PVTZ
    Blend: AUG-CC-PVTZ
  Basis Set: (AUG-CC-PVTZ AUX)
    Blend: AUG-CC-PVTZ-JKFIT

    Orbital Energies [Eh]
    ---------------------

    Doubly Occupied:

       1A    -20.506811     2A    -15.621367     3A    -11.351262
       4A    -11.315757     5A    -11.270209     6A    -11.261729
       7A    -11.242188     8A    -11.235137     9A    -11.233258
      10A     -1.367541    11A     -1.274899    12A     -1.102020
      13A     -1.087837    14A     -1.003664    15A     -0.902290
      16A     -0.866890    17A     -0.835663    18A     -0.737691
      19A     -0.692395    20A     -0.663092    21A     -0.638418
      22A     -0.626528    23A     -0.611605    24A     -0.599977
      25A     -0.562543    26A     -0.553030    27A     -0.541534
      28A     -0.525029    29A     -0.510393    30A     -0.469474
      31A     -0.421075    32A     -0.420234    33A     -0.306090

  @DF-RHF Final Energy:  -399.78314407874035

   => Energetics <=

    Nuclear Repulsion Energy =            426.7088159732322765
    One-Electron Energy =               -1388.2686574511781146
    Two-Electron Energy =                 561.7766973992054318
    Total Energy =                       -399.7831440787404063
  Basis Set: (AUG-CC-PVTZ AUX)
    Blend: AUG-CC-PVTZ-RI
    Molecular point group: c1

    Geometry (in Angstrom), charge = 0, multiplicity = 1:

       Center              X                  Y                   Z               Mass
    ------------   -----------------  -----------------  -----------------  -----------------
         O           -2.064634027232    -1.759246450830    -0.000366765971    15.994914619570
         N           -0.034262027232    -0.725402450830    -0.245898765971    14.003074004430
         C            0.815760172768     0.340714449170    -0.266837165971    12.000000000000
         C            2.265698972768     0.058392549170    -0.529946765971    12.000000000000
         C            0.290301972768     1.597916549170    -0.069908765971    12.000000000000
         C            2.927176972768    -0.645310450830     0.660236234029    12.000000000000
         C           -1.418326027232    -0.705287450830    -0.002319765971    12.000000000000
         C           -1.102746027232     1.725463549170     0.188192234029    12.000000000000
         C           -1.925515027232     0.632579549170     0.225116234029    12.000000000000
         H            2.369047972768    -0.556302450830    -1.433632765971     1.007825032230
         H            2.775367972768     1.005120549170    -0.734134765971     1.007825032230
         H            0.328585972768    -1.661500450830    -0.415132765971     1.007825032230
         H            0.938639972768     2.466956549170    -0.097984765971     1.007825032230
         H            3.988019972768    -0.822096450830     0.462385234029     1.007825032230
         H            2.457881972768    -1.611466450830     0.865688234029     1.007825032230
         H            2.840436972768    -0.031076450830     1.560127234029     1.007825032230
         H           -1.521021027232     2.715098549170     0.360481234029     1.007825032230
         H           -2.989297027232     0.721085549170     0.419297234029     1.007825032230

  Basis Set: AUG-CC-PVTZ
    Blend: AUG-CC-PVTZ
  Basis Set: (AUG-CC-PVTZ AUX)
    Blend: AUG-CC-PVTZ-JKFIT
	 Reference Energy          =    -399.7831440787403494 [Eh]
	 Singles Energy            =      -0.0000000000000000 [Eh]
	 Same-Spin Energy          =      -0.4223521223372769 [Eh]
	 Opposite-Spin Energy      =      -1.3372199770564746 [Eh]
	 Correlation Energy        =      -1.7595720993937514 [Eh]
	 Total Energy              =    -401.5427161781341283 [Eh]

	 ================> DF-SCS-MP2 Energies <==================
	-----------------------------------------------------------
	 SCS Same-Spin Scale       =       0.3333333333333333 [-]
	 SCS Opposite-Spin Scale   =       1.2000000000000000 [-]
	 SCS Same-Spin Energy      =      -0.1407840407790923 [Eh]
	 SCS Opposite-Spin Energy  =      -1.6046639724677694 [Eh]
	 SCS Correlation Energy    =      -1.7454480132468617 [Eh]
	 SCS Total Energy          =    -401.5285920919872069 [Eh]
	-----------------------------------------------------------

  Dipole Moment: [D]
     X:     4.1057      Y:     2.5574      Z:    -0.2839     Total:     4.8454

*** Psi4 exiting successfully. Buy a developer a beer!
