                               Psi4 1.3.2 release

  ==> Input File <==

--------------------------------------------------------------------------
#psi4
#
memory 32 gb

molecule  {
0 1
  O       -2.1484710    -1.7769200    -0.0056360
  N       -0.1180990    -0.7430760    -0.2511680
  C        0.8348598     0.2405921    -0.3256933
  C        2.1818620     0.0407190    -0.5352160
  C        0.2064650     1.5802430    -0.0751780
  C        2.8433400    -0.6629840     0.6549670
  C       -1.5021630    -0.7229610    -0.0075890
  C       -1.1865830     1.7077900     0.1829230
  C       -2.0093520     0.6149060     0.2198470
  H        2.2852110    -0.5739760    -1.4389020
  H        2.6915310     0.9874470    -0.7394040
  H        0.2447490    -1.6791740    -0.4204020
  H        0.8548030     2.4492830    -0.1032540
  H        3.9041830    -0.8397700     0.4571160
  H        2.3740450    -1.6291400     0.8604190
  H        2.7566000    -0.0487500     1.5548580
  H       -1.6048580     2.6974250     0.3552120
  H       -3.0731340     0.7034120     0.4140280
units angstrom
no_reorient  #important for SAPT in psi4, default
symmetry c1  #important for SAPT in psi4, default
}

set PROPERTIES_ORIGIN ["COM"]
properties('MP2/aug-cc-pvtz', properties = ['dipole'])
--------------------------------------------------------------------------

    Molecular point group: c1
  Charge       = 0
  Multiplicity = 1
  Basis Set: AUG-CC-PVTZ
    Blend: AUG-CC-PVTZ
  Basis Set: (AUG-CC-PVTZ AUX)
    Blend: AUG-CC-PVTZ-JKFIT

    Orbital Energies [Eh]
    ---------------------

    Doubly Occupied:

       1A    -20.504455     2A    -15.627646     3A    -11.351947
       4A    -11.332335     5A    -11.267553     6A    -11.261724
       7A    -11.249966     8A    -11.243440     9A    -11.228027
      10A     -1.366125    11A     -1.275708    12A     -1.115494
      13A     -1.091747    14A     -0.992691    15A     -0.917448
      16A     -0.859086    17A     -0.841111    18A     -0.728315
      19A     -0.695277    20A     -0.675055    21A     -0.643397
      22A     -0.631320    23A     -0.611139    24A     -0.597360
      25A     -0.567017    26A     -0.549351    27A     -0.542745
      28A     -0.540452    29A     -0.502474    30A     -0.461466
      31A     -0.421736    32A     -0.417675    33A     -0.288930

  @DF-RHF Final Energy:  -399.74779301151375

   => Energetics <=

    Nuclear Repulsion Energy =            426.0878898112164279
    One-Electron Energy =               -1386.8709414406780525
    Two-Electron Energy =                 561.0352586179478749
    Total Energy =                       -399.7477930115137497
  Basis Set: (AUG-CC-PVTZ AUX)
    Blend: AUG-CC-PVTZ-RI
    Molecular point group: c1

    Geometry (in Angstrom), charge = 0, multiplicity = 1:

       Center              X                  Y                   Z               Mass
    ------------   -----------------  -----------------  -----------------  -----------------
         O           -2.074671039660    -1.751207137016     0.004858318025    15.994914619570
         N           -0.044299039660    -0.717363137016    -0.240673681975    14.003074004430
         C            0.908659760340     0.266304962984    -0.315198981975    12.000000000000
         C            2.255661960340     0.066431862984    -0.524721681975    12.000000000000
         C            0.280264960340     1.605955862984    -0.064683681975    12.000000000000
         C            2.917139960340    -0.637271137016     0.665461318025    12.000000000000
         C           -1.428363039660    -0.697248137016     0.002905318025    12.000000000000
         C           -1.112783039660     1.733502862984     0.193417318025    12.000000000000
         C           -1.935552039660     0.640618862984     0.230341318025    12.000000000000
         H            2.359010960340    -0.548263137016    -1.428407681975     1.007825032230
         H            2.765330960340     1.013159862984    -0.728909681975     1.007825032230
         H            0.318548960340    -1.653461137016    -0.409907681975     1.007825032230
         H            0.928602960340     2.474995862984    -0.092759681975     1.007825032230
         H            3.977982960340    -0.814057137016     0.467610318025     1.007825032230
         H            2.447844960340    -1.603427137016     0.870913318025     1.007825032230
         H            2.830399960340    -0.023037137016     1.565352318025     1.007825032230
         H           -1.531058039660     2.723137862984     0.365706318025     1.007825032230
         H           -2.999334039660     0.729124862984     0.424522318025     1.007825032230

  Basis Set: AUG-CC-PVTZ
    Blend: AUG-CC-PVTZ
  Basis Set: (AUG-CC-PVTZ AUX)
    Blend: AUG-CC-PVTZ-JKFIT
	 Reference Energy          =    -399.7477930115137497 [Eh]
	 Singles Energy            =      -0.0000000000000000 [Eh]
	 Same-Spin Energy          =      -0.4263040360336714 [Eh]
	 Opposite-Spin Energy      =      -1.3423587859712607 [Eh]
	 Correlation Energy        =      -1.7686628220049321 [Eh]
	 Total Energy              =    -401.5164558335187053 [Eh]

	 ================> DF-SCS-MP2 Energies <==================
	-----------------------------------------------------------
	 SCS Same-Spin Scale       =       0.3333333333333333 [-]
	 SCS Opposite-Spin Scale   =       1.2000000000000000 [-]
	 SCS Same-Spin Energy      =      -0.1421013453445571 [Eh]
	 SCS Opposite-Spin Energy  =      -1.6108305431655128 [Eh]
	 SCS Correlation Energy    =      -1.7529318885100700 [Eh]
	 SCS Total Energy          =    -401.5007249000238403 [Eh]
	-----------------------------------------------------------

  Dipole Moment: [D]
     X:     4.4139      Y:     2.4683      Z:    -0.3094     Total:     5.0666

*** Psi4 exiting successfully. Buy a developer a beer!
