                               Psi4 1.3.2 release

  ==> Input File <==

--------------------------------------------------------------------------
#psi4
#
memory 32 gb

molecule  {
0 1
  O       -2.1484710    -1.7769200    -0.0056360
  N       -0.1180990    -0.7430760    -0.2511680
  C        0.7299860     0.3339780    -0.2958210
  C        2.1818620     0.0407190    -0.5352160
  C        0.2064650     1.5802430    -0.0751780
  C        2.8433400    -0.6629840     0.6549670
  C       -1.4897003    -0.5770791     0.0067533
  C       -1.1865830     1.7077900     0.1829230
  C       -2.0093520     0.6149060     0.2198470
  H        2.2852110    -0.5739760    -1.4389020
  H        2.6915310     0.9874470    -0.7394040
  H        0.2447490    -1.6791740    -0.4204020
  H        0.8548030     2.4492830    -0.1032540
  H        3.9041830    -0.8397700     0.4571160
  H        2.3740450    -1.6291400     0.8604190
  H        2.7566000    -0.0487500     1.5548580
  H       -1.6048580     2.6974250     0.3552120
  H       -3.0731340     0.7034120     0.4140280
units angstrom
no_reorient  #important for SAPT in psi4, default
symmetry c1  #important for SAPT in psi4, default
}

set PROPERTIES_ORIGIN ["COM"]
properties('MP2/aug-cc-pvtz', properties = ['dipole'])
--------------------------------------------------------------------------

    Molecular point group: c1
  Charge       = 0
  Multiplicity = 1
  Basis Set: AUG-CC-PVTZ
    Blend: AUG-CC-PVTZ
  Basis Set: (AUG-CC-PVTZ AUX)
    Blend: AUG-CC-PVTZ-JKFIT

    Orbital Energies [Eh]
    ---------------------

    Doubly Occupied:

       1A    -20.473191     2A    -15.633541     3A    -11.339925
       4A    -11.326472     5A    -11.288472     6A    -11.267951
       7A    -11.247891     8A    -11.246453     9A    -11.229150
      10A     -1.327726    11A     -1.227861    12A     -1.123765
      13A     -1.093810    14A     -1.021449    15A     -0.919468
      16A     -0.882540    17A     -0.831396    18A     -0.754783
      19A     -0.704998    20A     -0.670211    21A     -0.648616
      22A     -0.631284    23A     -0.607451    24A     -0.589685
      25A     -0.571684    26A     -0.545244    27A     -0.536048
      28A     -0.518963    29A     -0.508356    30A     -0.437954
      31A     -0.429402    32A     -0.391864    33A     -0.312921

  @DF-RHF Final Energy:  -399.74283373750382

   => Energetics <=

    Nuclear Repulsion Energy =            427.0924283048396433
    One-Electron Energy =               -1388.9894755211462325
    Two-Electron Energy =                 562.1542134788028307
    Total Energy =                       -399.7428337375038154
  Basis Set: (AUG-CC-PVTZ AUX)
    Blend: AUG-CC-PVTZ-RI
    Molecular point group: c1

    Geometry (in Angstrom), charge = 0, multiplicity = 1:

       Center              X                  Y                   Z               Mass
    ------------   -----------------  -----------------  -----------------  -----------------
         O           -2.065660334437    -1.774537360497     0.000547096461    15.994914619570
         N           -0.035288334437    -0.740693360497    -0.244984903539    14.003074004430
         C            0.812796665563     0.336360639503    -0.289637903539    12.000000000000
         C            2.264672665563     0.043101639503    -0.529032903539    12.000000000000
         C            0.289275665563     1.582625639503    -0.068994903539    12.000000000000
         C            2.926150665563    -0.660601360497     0.661150096461    12.000000000000
         C           -1.406889634437    -0.574696460497     0.012936396461    12.000000000000
         C           -1.103772334437     1.710172639503     0.189106096461    12.000000000000
         C           -1.926541334437     0.617288639503     0.226030096461    12.000000000000
         H            2.368021665563    -0.571593360497    -1.432718903539     1.007825032230
         H            2.774341665563     0.989829639503    -0.733220903539     1.007825032230
         H            0.327559665563    -1.676791360497    -0.414218903539     1.007825032230
         H            0.937613665563     2.451665639503    -0.097070903539     1.007825032230
         H            3.986993665563    -0.837387360497     0.463299096461     1.007825032230
         H            2.456855665563    -1.626757360497     0.866602096461     1.007825032230
         H            2.839410665563    -0.046367360497     1.561041096461     1.007825032230
         H           -1.522047334437     2.699807639503     0.361395096461     1.007825032230
         H           -2.990323334437     0.705794639503     0.420211096461     1.007825032230

  Basis Set: AUG-CC-PVTZ
    Blend: AUG-CC-PVTZ
  Basis Set: (AUG-CC-PVTZ AUX)
    Blend: AUG-CC-PVTZ-JKFIT
	 Reference Energy          =    -399.7428337375038154 [Eh]
	 Singles Energy            =      -0.0000000000000000 [Eh]
	 Same-Spin Energy          =      -0.4258075869014567 [Eh]
	 Opposite-Spin Energy      =      -1.3421780229821372 [Eh]
	 Correlation Energy        =      -1.7679856098835938 [Eh]
	 Total Energy              =    -401.5108193473873825 [Eh]

	 ================> DF-SCS-MP2 Energies <==================
	-----------------------------------------------------------
	 SCS Same-Spin Scale       =       0.3333333333333333 [-]
	 SCS Opposite-Spin Scale   =       1.2000000000000000 [-]
	 SCS Same-Spin Energy      =      -0.1419358623004855 [Eh]
	 SCS Opposite-Spin Energy  =      -1.6106136275785645 [Eh]
	 SCS Correlation Energy    =      -1.7525494898790501 [Eh]
	 SCS Total Energy          =    -401.4953832273828880 [Eh]
	-----------------------------------------------------------

  Dipole Moment: [D]
     X:     4.8379      Y:     3.6042      Z:    -0.2701     Total:     6.0389

*** Psi4 exiting successfully. Buy a developer a beer!
