                               Psi4 1.4a3.dev225

  ==> Input File <==

--------------------------------------------------------------------------
#psi4
#
memory 32 gb

molecule  {
0 1
  O       -2.1484710    -1.7769200    -0.0056360
  N       -0.1180990    -0.7430760    -0.2511680
  C        0.7299860     0.3339780    -0.2958210
  C        2.1334796     0.0504916    -0.5272384
  C        0.2064650     1.5802430    -0.0751780
  C        2.8433400    -0.6629840     0.6549670
  C       -1.5021630    -0.7229610    -0.0075890
  C       -1.1865830     1.7077900     0.1829230
  C       -2.0093520     0.6149060     0.2198470
  H        2.2852110    -0.5739760    -1.4389020
  H        2.6915310     0.9874470    -0.7394040
  H        0.2447490    -1.6791740    -0.4204020
  H        0.8548030     2.4492830    -0.1032540
  H        3.9041830    -0.8397700     0.4571160
  H        2.3740450    -1.6291400     0.8604190
  H        2.7566000    -0.0487500     1.5548580
  H       -1.6048580     2.6974250     0.3552120
  H       -3.0731340     0.7034120     0.4140280
units angstrom
no_reorient  #important for SAPT in psi4, default
symmetry c1  #important for SAPT in psi4, default
}

set PROPERTIES_ORIGIN ["COM"]
properties('MP2/aug-cc-pvtz', properties = ['dipole'])
--------------------------------------------------------------------------

    Molecular point group: c1
  Charge       = 0
  Multiplicity = 1
  Basis Set: AUG-CC-PVTZ
    Blend: AUG-CC-PVTZ
  Basis Set: (AUG-CC-PVTZ AUX)
    Blend: AUG-CC-PVTZ-JKFIT

    Orbital Energies [Eh]
    ---------------------

    Doubly Occupied:

       1A    -20.507111     2A    -15.619961     3A    -11.351398
       4A    -11.313148     5A    -11.270761     6A    -11.261300
       7A    -11.243633     8A    -11.235719     9A    -11.234530
      10A     -1.367332    11A     -1.274270    12A     -1.103376
      13A     -1.090362    14A     -1.002744    15A     -0.906459
      16A     -0.867950    17A     -0.832182    18A     -0.737367
      19A     -0.693552    20A     -0.666383    21A     -0.638952
      22A     -0.623482    23A     -0.610652    24A     -0.600483
      25A     -0.564696    26A     -0.553641    27A     -0.535910
      28A     -0.528482    29A     -0.508804    30A     -0.466837
      31A     -0.421587    32A     -0.420324    33A     -0.307573

  @DF-RHF Final Energy:  -399.78026895961881

   => Energetics <=

    Nuclear Repulsion Energy =            427.3278474784816012
    One-Electron Energy =               -1389.4943079798340477
    Two-Electron Energy =                 562.3861915417337514
    Total Energy =                       -399.7802689596187520
  Basis Set: (AUG-CC-PVTZ AUX)
    Blend: AUG-CC-PVTZ-RI
    Molecular point group: c1

    Geometry (in Angstrom), charge = 0, multiplicity = 1:

       Center              X                  Y                   Z               Mass
    ------------   -----------------  -----------------  -----------------  -----------------
         O           -2.059727527011    -1.761265786191     0.001167697617    15.994914619570
         N           -0.029355527011    -0.727421786191    -0.244364302383    14.003074004430
         C            0.818729472989     0.349632213809    -0.289017302383    12.000000000000
         C            2.222223072989     0.066145813809    -0.520434702383    12.000000000000
         C            0.295208472989     1.595897213809    -0.068374302383    12.000000000000
         C            2.932083472989    -0.647329786191     0.661770697617    12.000000000000
         C           -1.413419527011    -0.707306786191    -0.000785302383    12.000000000000
         C           -1.097839527011     1.723444213809     0.189726697617    12.000000000000
         C           -1.920608527011     0.630560213809     0.226650697617    12.000000000000
         H            2.373954472989    -0.558321786191    -1.432098302383     1.007825032230
         H            2.780274472989     1.003101213809    -0.732600302383     1.007825032230
         H            0.333492472989    -1.663519786191    -0.413598302383     1.007825032230
         H            0.943546472989     2.464937213809    -0.096450302383     1.007825032230
         H            3.992926472989    -0.824115786191     0.463919697617     1.007825032230
         H            2.462788472989    -1.613485786191     0.867222697617     1.007825032230
         H            2.845343472989    -0.033095786191     1.561661697617     1.007825032230
         H           -1.516114527011     2.713079213809     0.362015697617     1.007825032230
         H           -2.984390527011     0.719066213809     0.420831697617     1.007825032230

  Basis Set: AUG-CC-PVTZ
    Blend: AUG-CC-PVTZ
  Basis Set: (AUG-CC-PVTZ AUX)
    Blend: AUG-CC-PVTZ-JKFIT
	 Reference Energy          =    -399.7802689596188088 [Eh]
	 Singles Energy            =      -0.0000000000000000 [Eh]
	 Same-Spin Energy          =      -0.4226729068591348 [Eh]
	 Opposite-Spin Energy      =      -1.3377506170363409 [Eh]
	 Correlation Energy        =      -1.7604235238954757 [Eh]
	 Total Energy              =    -401.5406924835143059 [Eh]

	 ================> DF-SCS-MP2 Energies <==================
	-----------------------------------------------------------
	 SCS Same-Spin Scale       =       0.3333333333333333 [-]
	 SCS Opposite-Spin Scale   =       1.2000000000000000 [-]
	 SCS Same-Spin Energy      =      -0.1408909689530449 [Eh]
	 SCS Opposite-Spin Energy  =      -1.6053007404436090 [Eh]
	 SCS Correlation Energy    =      -1.7461917093966539 [Eh]
	 SCS Total Energy          =    -401.5264606690154778 [Eh]
	-----------------------------------------------------------

  Dipole Moment: [D]
     X:     4.0780      Y:     2.5882      Z:    -0.2698     Total:     4.8375

*** Psi4 exiting successfully. Buy a developer a beer!
