                               Psi4 1.3.2 release

  ==> Input File <==

--------------------------------------------------------------------------
#psi4
#
memory 32 gb

molecule  {
0 1
  O       -2.1484710    -1.7769200    -0.0056360
  N       -0.1180990    -0.7430760    -0.2511680
  C        0.7299860     0.3339780    -0.2958210
  C        2.1818620     0.0407190    -0.5352160
  C        0.2064650     1.5802430    -0.0751780
  C        2.8433400    -0.6629840     0.6549670
  C       -1.5027671    -0.7473394    -0.0102435
  C       -1.1865830     1.7077900     0.1829230
  C       -2.0093520     0.6149060     0.2198470
  H        2.2852110    -0.5739760    -1.4389020
  H        2.6915310     0.9874470    -0.7394040
  H        0.2447490    -1.6791740    -0.4204020
  H        0.8548030     2.4492830    -0.1032540
  H        3.9041830    -0.8397700     0.4571160
  H        2.3740450    -1.6291400     0.8604190
  H        2.7566000    -0.0487500     1.5548580
  H       -1.6048580     2.6974250     0.3552120
  H       -3.0731340     0.7034120     0.4140280
units angstrom
no_reorient  #important for SAPT in psi4, default
symmetry c1  #important for SAPT in psi4, default
}

set PROPERTIES_ORIGIN ["COM"]
properties('MP2/aug-cc-pvtz', properties = ['dipole'])
--------------------------------------------------------------------------

    Molecular point group: c1
  Charge       = 0
  Multiplicity = 1
  Basis Set: AUG-CC-PVTZ
    Blend: AUG-CC-PVTZ
  Basis Set: (AUG-CC-PVTZ AUX)
    Blend: AUG-CC-PVTZ-JKFIT

    Orbital Energies [Eh]
    ---------------------

    Doubly Occupied:

       1A    -20.511937     2A    -15.618069     3A    -11.351968
       4A    -11.313202     5A    -11.267634     6A    -11.260384
       7A    -11.241342     8A    -11.234218     9A    -11.233423
      10A     -1.380005    11A     -1.274880    12A     -1.100189
      13A     -1.085619    14A     -1.001748    15A     -0.900236
      16A     -0.863851    17A     -0.834049    18A     -0.734621
      19A     -0.691007    20A     -0.662325    21A     -0.636206
      22A     -0.626263    23A     -0.615746    24A     -0.600482
      25A     -0.562908    26A     -0.553777    27A     -0.541241
      28A     -0.524623    29A     -0.510364    30A     -0.474305
      31A     -0.422734    32A     -0.418511    33A     -0.306247

  @DF-RHF Final Energy:  -399.78406274656845

   => Energetics <=

    Nuclear Repulsion Energy =            426.5860954967890848
    One-Electron Energy =               -1388.0320859028738596
    Two-Electron Energy =                 561.6619276595163228
    Total Energy =                       -399.7840627465684520
  Basis Set: (AUG-CC-PVTZ AUX)
    Blend: AUG-CC-PVTZ-RI
    Molecular point group: c1

    Geometry (in Angstrom), charge = 0, multiplicity = 1:

       Center              X                  Y                   Z               Mass
    ------------   -----------------  -----------------  -----------------  -----------------
         O           -2.064386233350    -1.757935833468     0.002204399041    15.994914619570
         N           -0.034014233350    -0.724091833468    -0.243327600959    14.003074004430
         C            0.814070766650     0.352962166532    -0.287980600959    12.000000000000
         C            2.265946766650     0.059703166532    -0.527375600959    12.000000000000
         C            0.290549766650     1.599227166532    -0.067337600959    12.000000000000
         C            2.927424766650    -0.643999833468     0.662807399041    12.000000000000
         C           -1.418682333350    -0.728355233468    -0.002403100959    12.000000000000
         C           -1.102498233350     1.726774166532     0.190763399041    12.000000000000
         C           -1.925267233350     0.633890166532     0.227687399041    12.000000000000
         H            2.369295766650    -0.554991833468    -1.431061600959     1.007825032230
         H            2.775615766650     1.006431166532    -0.731563600959     1.007825032230
         H            0.328833766650    -1.660189833468    -0.412561600959     1.007825032230
         H            0.938887766650     2.468267166532    -0.095413600959     1.007825032230
         H            3.988267766650    -0.820785833468     0.464956399041     1.007825032230
         H            2.458129766650    -1.610155833468     0.868259399041     1.007825032230
         H            2.840684766650    -0.029765833468     1.562698399041     1.007825032230
         H           -1.520773233350     2.716409166532     0.363052399041     1.007825032230
         H           -2.989049233350     0.722396166532     0.421868399041     1.007825032230

  Basis Set: AUG-CC-PVTZ
    Blend: AUG-CC-PVTZ
  Basis Set: (AUG-CC-PVTZ AUX)
    Blend: AUG-CC-PVTZ-JKFIT
	 Reference Energy          =    -399.7840627465684520 [Eh]
	 Singles Energy            =      -0.0000000000000000 [Eh]
	 Same-Spin Energy          =      -0.4216144953730042 [Eh]
	 Opposite-Spin Energy      =      -1.3364053075920546 [Eh]
	 Correlation Energy        =      -1.7580198029650589 [Eh]
	 Total Energy              =    -401.5420825495335180 [Eh]

	 ================> DF-SCS-MP2 Energies <==================
	-----------------------------------------------------------
	 SCS Same-Spin Scale       =       0.3333333333333333 [-]
	 SCS Opposite-Spin Scale   =       1.2000000000000000 [-]
	 SCS Same-Spin Energy      =      -0.1405381651243347 [Eh]
	 SCS Opposite-Spin Energy  =      -1.6036863691104655 [Eh]
	 SCS Correlation Energy    =      -1.7442245342348002 [Eh]
	 SCS Total Energy          =    -401.5282872808032266 [Eh]
	-----------------------------------------------------------

  Dipole Moment: [D]
     X:     3.9757      Y:     2.4010      Z:    -0.2760     Total:     4.6526

*** Psi4 exiting successfully. Buy a developer a beer!
