                               Psi4 1.3.2 release

  ==> Input File <==

--------------------------------------------------------------------------
#psi4
#
memory 32 gb

molecule  {
0 1
  O       -2.1484710    -1.7769200    -0.0056360
  N       -0.1180990    -0.7430760    -0.2511680
  C        0.6929034     0.3625312    -0.2857385
  C        2.1818620     0.0407190    -0.5352160
  C        0.2064650     1.5802430    -0.0751780
  C        2.8433400    -0.6629840     0.6549670
  C       -1.5021630    -0.7229610    -0.0075890
  C       -1.1865830     1.7077900     0.1829230
  C       -2.0093520     0.6149060     0.2198470
  H        2.2852110    -0.5739760    -1.4389020
  H        2.6915310     0.9874470    -0.7394040
  H        0.2447490    -1.6791740    -0.4204020
  H        0.8548030     2.4492830    -0.1032540
  H        3.9041830    -0.8397700     0.4571160
  H        2.3740450    -1.6291400     0.8604190
  H        2.7566000    -0.0487500     1.5548580
  H       -1.6048580     2.6974250     0.3552120
  H       -3.0731340     0.7034120     0.4140280
units angstrom
no_reorient  #important for SAPT in psi4, default
symmetry c1  #important for SAPT in psi4, default
}

set PROPERTIES_ORIGIN ["COM"]
properties('MP2/aug-cc-pvtz', properties = ['dipole'])
--------------------------------------------------------------------------

    Molecular point group: c1
  Charge       = 0
  Multiplicity = 1
  Basis Set: AUG-CC-PVTZ
    Blend: AUG-CC-PVTZ
  Basis Set: (AUG-CC-PVTZ AUX)
    Blend: AUG-CC-PVTZ-JKFIT

    Orbital Energies [Eh]
    ---------------------

    Doubly Occupied:

       1A    -20.507417     2A    -15.618141     3A    -11.350641
       4A    -11.309291     5A    -11.271253     6A    -11.261288
       7A    -11.240245     8A    -11.235441     9A    -11.231432
      10A     -1.367191    11A     -1.272023    12A     -1.107177
      13A     -1.080495    14A     -1.008558    15A     -0.898168
      16A     -0.868923    17A     -0.830902    18A     -0.740648
      19A     -0.693883    20A     -0.661566    21A     -0.633297
      22A     -0.625566    23A     -0.611609    24A     -0.599087
      25A     -0.562679    26A     -0.556860    27A     -0.539419
      28A     -0.518623    29A     -0.507586    30A     -0.472492
      31A     -0.420677    32A     -0.419946    33A     -0.313617

  @DF-RHF Final Energy:  -399.78251954542469

   => Energetics <=

    Nuclear Repulsion Energy =            426.8734551875365923
    One-Electron Energy =               -1388.6396711895013141
    Two-Electron Energy =                 561.9836964565400876
    Total Energy =                       -399.7825195454246341
  Basis Set: (AUG-CC-PVTZ AUX)
    Blend: AUG-CC-PVTZ-RI
    Molecular point group: c1

    Geometry (in Angstrom), charge = 0, multiplicity = 1:

       Center              X                  Y                   Z               Mass
    ------------   -----------------  -----------------  -----------------  -----------------
         O           -2.060829333687    -1.763097021297     0.000962455677    15.994914619570
         N           -0.030457333687    -0.729253021297    -0.244569544323    14.003074004430
         C            0.780545066313     0.376354178703    -0.279140044323    12.000000000000
         C            2.269503666313     0.054541978703    -0.528617544323    12.000000000000
         C            0.294106666313     1.594065978703    -0.068579544323    12.000000000000
         C            2.930981666313    -0.649161021297     0.661565455677    12.000000000000
         C           -1.414521333687    -0.709138021297    -0.000990544323    12.000000000000
         C           -1.098941333687     1.721612978703     0.189521455677    12.000000000000
         C           -1.921710333687     0.628728978703     0.226445455677    12.000000000000
         H            2.372852666313    -0.560153021297    -1.432303544323     1.007825032230
         H            2.779172666313     1.001269978703    -0.732805544323     1.007825032230
         H            0.332390666313    -1.665351021297    -0.413803544323     1.007825032230
         H            0.942444666313     2.463105978703    -0.096655544323     1.007825032230
         H            3.991824666313    -0.825947021297     0.463714455677     1.007825032230
         H            2.461686666313    -1.615317021297     0.867017455677     1.007825032230
         H            2.844241666313    -0.034927021297     1.561456455677     1.007825032230
         H           -1.517216333687     2.711247978703     0.361810455677     1.007825032230
         H           -2.985492333687     0.717234978703     0.420626455677     1.007825032230

  Basis Set: AUG-CC-PVTZ
    Blend: AUG-CC-PVTZ
  Basis Set: (AUG-CC-PVTZ AUX)
    Blend: AUG-CC-PVTZ-JKFIT
	 Reference Energy          =    -399.7825195454246909 [Eh]
	 Singles Energy            =      -0.0000000000000000 [Eh]
	 Same-Spin Energy          =      -0.4212642895574474 [Eh]
	 Opposite-Spin Energy      =      -1.3361609381005519 [Eh]
	 Correlation Energy        =      -1.7574252276579994 [Eh]
	 Total Energy              =    -401.5399447730827092 [Eh]

	 ================> DF-SCS-MP2 Energies <==================
	-----------------------------------------------------------
	 SCS Same-Spin Scale       =       0.3333333333333333 [-]
	 SCS Opposite-Spin Scale   =       1.2000000000000000 [-]
	 SCS Same-Spin Energy      =      -0.1404214298524825 [Eh]
	 SCS Opposite-Spin Energy  =      -1.6033931257206622 [Eh]
	 SCS Correlation Energy    =      -1.7438145555731446 [Eh]
	 SCS Total Energy          =    -401.5263341009978149 [Eh]
	-----------------------------------------------------------

  Dipole Moment: [D]
     X:     3.9894      Y:     2.6184      Z:    -0.2602     Total:     4.7790

*** Psi4 exiting successfully. Buy a developer a beer!
