                               Psi4 1.3.2 release

  ==> Input File <==

--------------------------------------------------------------------------
#psi4
#
memory 32 gb

molecule  {
0 1
  O       -2.1484710    -1.7769200    -0.0056360
  N       -0.1180990    -0.7430760    -0.2511680
  C        0.7299860     0.3339780    -0.2958210
  C        2.1818620     0.0407190    -0.5352160
  C        0.2064650     1.5802430    -0.0751780
  C        2.8433400    -0.6629840     0.6549670
  C       -1.4955344    -0.6255830     0.0022793
  C       -1.1865830     1.7077900     0.1829230
  C       -2.0093520     0.6149060     0.2198470
  H        2.2852110    -0.5739760    -1.4389020
  H        2.6915310     0.9874470    -0.7394040
  H        0.2447490    -1.6791740    -0.4204020
  H        0.8548030     2.4492830    -0.1032540
  H        3.9041830    -0.8397700     0.4571160
  H        2.3740450    -1.6291400     0.8604190
  H        2.7566000    -0.0487500     1.5548580
  H       -1.6048580     2.6974250     0.3552120
  H       -3.0731340     0.7034120     0.4140280
units angstrom
no_reorient  #important for SAPT in psi4, default
symmetry c1  #important for SAPT in psi4, default
}

set PROPERTIES_ORIGIN ["COM"]
properties('MP2/aug-cc-pvtz', properties = ['dipole'])
--------------------------------------------------------------------------

    Molecular point group: c1
  Charge       = 0
  Multiplicity = 1
  Basis Set: AUG-CC-PVTZ
    Blend: AUG-CC-PVTZ
  Basis Set: (AUG-CC-PVTZ AUX)
    Blend: AUG-CC-PVTZ-JKFIT

    Orbital Energies [Eh]
    ---------------------

    Doubly Occupied:

       1A    -20.484835     2A    -15.628978     3A    -11.345025
       4A    -11.322446     5A    -11.282420     6A    -11.265719
       7A    -11.245959     8A    -11.242493     9A    -11.231382
      10A     -1.333383    11A     -1.248009    12A     -1.115611
      13A     -1.092444    14A     -1.015876    15A     -0.913769
      16A     -0.878057    17A     -0.832207    18A     -0.748678
      19A     -0.700369    20A     -0.667088    21A     -0.644516
      22A     -0.629455    23A     -0.605501    24A     -0.590844
      25A     -0.568086    26A     -0.544012    27A     -0.540534
      28A     -0.521199    29A     -0.514999    30A     -0.447474
      31A     -0.426364    32A     -0.403928    33A     -0.311795

  @DF-RHF Final Energy:  -399.76310869995694

   => Energetics <=

    Nuclear Repulsion Energy =            426.8677883934870465
    One-Electron Energy =               -1388.5748793607906464
    Two-Electron Energy =                 561.9439822673467688
    Total Energy =                       -399.7631086999568879
  Basis Set: (AUG-CC-PVTZ AUX)
    Blend: AUG-CC-PVTZ-RI
    Molecular point group: c1

    Geometry (in Angstrom), charge = 0, multiplicity = 1:

       Center              X                  Y                   Z               Mass
    ------------   -----------------  -----------------  -----------------  -----------------
         O           -2.065091470358    -1.769807903267     0.000983341621    15.994914619570
         N           -0.034719470358    -0.735963903267    -0.244548658379    14.003074004430
         C            0.813365529642     0.341090096733    -0.289201658379    12.000000000000
         C            2.265241529642     0.047831096733    -0.528596658379    12.000000000000
         C            0.289844529642     1.587355096733    -0.068558658379    12.000000000000
         C            2.926719529642    -0.655871903267     0.661586341621    12.000000000000
         C           -1.412154870358    -0.618470903267     0.008898641621    12.000000000000
         C           -1.103203470358     1.714902096733     0.189542341621    12.000000000000
         C           -1.925972470358     0.622018096733     0.226466341621    12.000000000000
         H            2.368590529642    -0.566863903267    -1.432282658379     1.007825032230
         H            2.774910529642     0.994559096733    -0.732784658379     1.007825032230
         H            0.328128529642    -1.672061903267    -0.413782658379     1.007825032230
         H            0.938182529642     2.456395096733    -0.096634658379     1.007825032230
         H            3.987562529642    -0.832657903267     0.463735341621     1.007825032230
         H            2.457424529642    -1.622027903267     0.867038341621     1.007825032230
         H            2.839979529642    -0.041637903267     1.561477341621     1.007825032230
         H           -1.521478470358     2.704537096733     0.361831341621     1.007825032230
         H           -2.989754470358     0.710524096733     0.420647341621     1.007825032230

  Basis Set: AUG-CC-PVTZ
    Blend: AUG-CC-PVTZ
  Basis Set: (AUG-CC-PVTZ AUX)
    Blend: AUG-CC-PVTZ-JKFIT
	 Reference Energy          =    -399.7631086999569447 [Eh]
	 Singles Energy            =      -0.0000000000000000 [Eh]
	 Same-Spin Energy          =      -0.4246789532286723 [Eh]
	 Opposite-Spin Energy      =      -1.3405333171947240 [Eh]
	 Correlation Energy        =      -1.7652122704233963 [Eh]
	 Total Energy              =    -401.5283209703803209 [Eh]

	 ================> DF-SCS-MP2 Energies <==================
	-----------------------------------------------------------
	 SCS Same-Spin Scale       =       0.3333333333333333 [-]
	 SCS Opposite-Spin Scale   =       1.2000000000000000 [-]
	 SCS Same-Spin Energy      =      -0.1415596510762241 [Eh]
	 SCS Opposite-Spin Energy  =      -1.6086399806336689 [Eh]
	 SCS Correlation Energy    =      -1.7501996317098929 [Eh]
	 SCS Total Energy          =    -401.5133083316668490 [Eh]
	-----------------------------------------------------------

  Dipole Moment: [D]
     X:     4.5780      Y:     3.2636      Z:    -0.2694     Total:     5.6286

*** Psi4 exiting successfully. Buy a developer a beer!
