                               Psi4 1.3.2 release

  ==> Input File <==

--------------------------------------------------------------------------
#psi4
#
memory 32 gb

molecule  {
0 1
  O       -2.1484710    -1.7769200    -0.0056360
  N       -0.1180990    -0.7430760    -0.2511680
  C        0.7299860     0.3339780    -0.2958210
  C        2.1818620     0.0407190    -0.5352160
  C        0.2064650     1.5802430    -0.0751780
  C        2.8433400    -0.6629840     0.6549670
  C       -1.4996903    -0.6742301    -0.0025033
  C       -1.1865830     1.7077900     0.1829230
  C       -2.0093520     0.6149060     0.2198470
  H        2.2852110    -0.5739760    -1.4389020
  H        2.6915310     0.9874470    -0.7394040
  H        0.2447490    -1.6791740    -0.4204020
  H        0.8548030     2.4492830    -0.1032540
  H        3.9041830    -0.8397700     0.4571160
  H        2.3740450    -1.6291400     0.8604190
  H        2.7566000    -0.0487500     1.5548580
  H       -1.6048580     2.6974250     0.3552120
  H       -3.0731340     0.7034120     0.4140280
units angstrom
no_reorient  #important for SAPT in psi4, default
symmetry c1  #important for SAPT in psi4, default
}

set PROPERTIES_ORIGIN ["COM"]
properties('MP2/aug-cc-pvtz', properties = ['dipole'])
--------------------------------------------------------------------------

    Molecular point group: c1
  Charge       = 0
  Multiplicity = 1
  Basis Set: AUG-CC-PVTZ
    Blend: AUG-CC-PVTZ
  Basis Set: (AUG-CC-PVTZ AUX)
    Blend: AUG-CC-PVTZ-JKFIT

    Orbital Energies [Eh]
    ---------------------

    Doubly Occupied:

       1A    -20.496115     2A    -15.624463     3A    -11.348695
       4A    -11.318574     5A    -11.276420     6A    -11.263520
       7A    -11.244059     8A    -11.238687     9A    -11.233057
      10A     -1.346011    11A     -1.263499    12A     -1.108394
      13A     -1.090341    14A     -1.010164    15A     -0.908108
      16A     -0.872918    17A     -0.832945    18A     -0.742808
      19A     -0.696065    20A     -0.664417    21A     -0.640601
      22A     -0.627744    23A     -0.605670    24A     -0.595271
      25A     -0.565117    26A     -0.549017    27A     -0.541914
      28A     -0.523984    29A     -0.512866    30A     -0.458308
      31A     -0.423162    32A     -0.414031    33A     -0.309961

  @DF-RHF Final Energy:  -399.77679212633814

   => Energetics <=

    Nuclear Repulsion Energy =            426.7074893719926081
    One-Electron Energy =               -1388.2747511890913756
    Two-Electron Energy =                 561.7904696907606876
    Total Energy =                       -399.7767921263381368
  Basis Set: (AUG-CC-PVTZ AUX)
    Blend: AUG-CC-PVTZ-RI
    Molecular point group: c1

    Geometry (in Angstrom), charge = 0, multiplicity = 1:

       Center              X                  Y                   Z               Mass
    ------------   -----------------  -----------------  -----------------  -----------------
         O           -2.064686242092    -1.765064483071     0.001449677362    15.994914619570
         N           -0.034314242092    -0.731220483071    -0.244082322638    14.003074004430
         C            0.813770757908     0.345833516929    -0.288735322638    12.000000000000
         C            2.265646757908     0.052574516929    -0.528130322638    12.000000000000
         C            0.290249757908     1.592098516929    -0.068092322638    12.000000000000
         C            2.927124757908    -0.651128483071     0.662052677362    12.000000000000
         C           -1.415905542092    -0.662374583071     0.004582377362    12.000000000000
         C           -1.102798242092     1.719645516929     0.190008677362    12.000000000000
         C           -1.925567242092     0.626761516929     0.226932677362    12.000000000000
         H            2.368995757908    -0.562120483071    -1.431816322638     1.007825032230
         H            2.775315757908     0.999302516929    -0.732318322638     1.007825032230
         H            0.328533757908    -1.667318483071    -0.413316322638     1.007825032230
         H            0.938587757908     2.461138516929    -0.096168322638     1.007825032230
         H            3.987967757908    -0.827914483071     0.464201677362     1.007825032230
         H            2.457829757908    -1.617284483071     0.867504677362     1.007825032230
         H            2.840384757908    -0.036894483071     1.561943677362     1.007825032230
         H           -1.521073242092     2.709280516929     0.362297677362     1.007825032230
         H           -2.989349242092     0.715267516929     0.421113677362     1.007825032230

  Basis Set: AUG-CC-PVTZ
    Blend: AUG-CC-PVTZ
  Basis Set: (AUG-CC-PVTZ AUX)
    Blend: AUG-CC-PVTZ-JKFIT
	 Reference Energy          =    -399.7767921263381368 [Eh]
	 Singles Energy            =      -0.0000000000000000 [Eh]
	 Same-Spin Energy          =      -0.4234466602106703 [Eh]
	 Opposite-Spin Energy      =      -1.3388277129007171 [Eh]
	 Correlation Energy        =      -1.7622743731113875 [Eh]
	 Total Energy              =    -401.5390664994495182 [Eh]

	 ================> DF-SCS-MP2 Energies <==================
	-----------------------------------------------------------
	 SCS Same-Spin Scale       =       0.3333333333333333 [-]
	 SCS Opposite-Spin Scale   =       1.2000000000000000 [-]
	 SCS Same-Spin Energy      =      -0.1411488867368901 [Eh]
	 SCS Opposite-Spin Energy  =      -1.6065932554808604 [Eh]
	 SCS Correlation Energy    =      -1.7477421422177506 [Eh]
	 SCS Total Energy          =    -401.5245342685558967 [Eh]
	-----------------------------------------------------------

  Dipole Moment: [D]
     X:     4.3311      Y:     2.9247      Z:    -0.2705     Total:     5.2332

*** Psi4 exiting successfully. Buy a developer a beer!
