                               Psi4 1.3.2 release

  ==> Input File <==

--------------------------------------------------------------------------
#psi4
#
memory 32 gb

molecule  {
0 1
  O       -2.1484710    -1.7769200    -0.0056360
  N       -0.1180990    -0.7430760    -0.2511680
  C        0.6548328     0.3897374    -0.2756139
  C        2.1818620     0.0407190    -0.5352160
  C        0.2064650     1.5802430    -0.0751780
  C        2.8433400    -0.6629840     0.6549670
  C       -1.5021630    -0.7229610    -0.0075890
  C       -1.1865830     1.7077900     0.1829230
  C       -2.0093520     0.6149060     0.2198470
  H        2.2852110    -0.5739760    -1.4389020
  H        2.6915310     0.9874470    -0.7394040
  H        0.2447490    -1.6791740    -0.4204020
  H        0.8548030     2.4492830    -0.1032540
  H        3.9041830    -0.8397700     0.4571160
  H        2.3740450    -1.6291400     0.8604190
  H        2.7566000    -0.0487500     1.5548580
  H       -1.6048580     2.6974250     0.3552120
  H       -3.0731340     0.7034120     0.4140280
units angstrom
no_reorient  #important for SAPT in psi4, default
symmetry c1  #important for SAPT in psi4, default
}

set PROPERTIES_ORIGIN ["COM"]
properties('MP2/aug-cc-pvtz', properties = ['dipole'])
--------------------------------------------------------------------------

    Molecular point group: c1
  Charge       = 0
  Multiplicity = 1
  Basis Set: AUG-CC-PVTZ
    Blend: AUG-CC-PVTZ
  Basis Set: (AUG-CC-PVTZ AUX)
    Blend: AUG-CC-PVTZ-JKFIT

    Orbital Energies [Eh]
    ---------------------

    Doubly Occupied:

       1A    -20.507957     2A    -15.616495     3A    -11.350118
       4A    -11.303909     5A    -11.271933     6A    -11.260983
       7A    -11.238464     8A    -11.236634     9A    -11.227539
      10A     -1.367444    11A     -1.271984    12A     -1.112728
      13A     -1.074677    14A     -1.012183    15A     -0.894195
      16A     -0.869917    17A     -0.828207    18A     -0.744240
      19A     -0.696054    20A     -0.661482    21A     -0.630118
      22A     -0.624915    23A     -0.611120    24A     -0.598745
      25A     -0.562636    26A     -0.560161    27A     -0.537355
      28A     -0.515046    29A     -0.499621    30A     -0.476169
      31A     -0.421289    32A     -0.418542    33A     -0.319454

  @DF-RHF Final Energy:  -399.77467119793141

   => Energetics <=

    Nuclear Repulsion Energy =            427.1808255000578356
    One-Electron Energy =               -1389.2663692513099249
    Two-Electron Energy =                 562.3108725533206780
    Total Energy =                       -399.7746711979314114
  Basis Set: (AUG-CC-PVTZ AUX)
    Blend: AUG-CC-PVTZ-RI
    Molecular point group: c1

    Geometry (in Angstrom), charge = 0, multiplicity = 1:

       Center              X                  Y                   Z               Mass
    ------------   -----------------  -----------------  -----------------  -----------------
         O           -2.057117193541    -1.765749809202    -0.000024761076    15.994914619570
         N           -0.026745193541    -0.731905809202    -0.245556761076    14.003074004430
         C            0.746186606459     0.400907590798    -0.270002661076    12.000000000000
         C            2.273215806459     0.051889190798    -0.529604761076    12.000000000000
         C            0.297818806459     1.591413190798    -0.069566761076    12.000000000000
         C            2.934693806459    -0.651813809202     0.660578238924    12.000000000000
         C           -1.410809193541    -0.711790809202    -0.001977761076    12.000000000000
         C           -1.095229193541     1.718960190798     0.188534238924    12.000000000000
         C           -1.917998193541     0.626076190798     0.225458238924    12.000000000000
         H            2.376564806459    -0.562805809202    -1.433290761076     1.007825032230
         H            2.782884806459     0.998617190798    -0.733792761076     1.007825032230
         H            0.336102806459    -1.668003809202    -0.414790761076     1.007825032230
         H            0.946156806459     2.460453190798    -0.097642761076     1.007825032230
         H            3.995536806459    -0.828599809202     0.462727238924     1.007825032230
         H            2.465398806459    -1.617969809202     0.866030238924     1.007825032230
         H            2.847953806459    -0.037579809202     1.560469238924     1.007825032230
         H           -1.513504193541     2.708595190798     0.360823238924     1.007825032230
         H           -2.981780193541     0.714582190798     0.419639238924     1.007825032230

  Basis Set: AUG-CC-PVTZ
    Blend: AUG-CC-PVTZ
  Basis Set: (AUG-CC-PVTZ AUX)
    Blend: AUG-CC-PVTZ-JKFIT
	 Reference Energy          =    -399.7746711979314114 [Eh]
	 Singles Energy            =      -0.0000000000000000 [Eh]
	 Same-Spin Energy          =      -0.4205718471357988 [Eh]
	 Opposite-Spin Energy      =      -1.3355559016903049 [Eh]
	 Correlation Energy        =      -1.7561277488261036 [Eh]
	 Total Energy              =    -401.5307989467574998 [Eh]

	 ================> DF-SCS-MP2 Energies <==================
	-----------------------------------------------------------
	 SCS Same-Spin Scale       =       0.3333333333333333 [-]
	 SCS Opposite-Spin Scale   =       1.2000000000000000 [-]
	 SCS Same-Spin Energy      =      -0.1401906157119329 [Eh]
	 SCS Opposite-Spin Energy  =      -1.6026670820283659 [Eh]
	 SCS Correlation Energy    =      -1.7428576977402988 [Eh]
	 SCS Total Energy          =    -401.5175288956717168 [Eh]
	-----------------------------------------------------------

  Dipole Moment: [D]
     X:     3.8862      Y:     2.6596      Z:    -0.2460     Total:     4.7155

*** Psi4 exiting successfully. Buy a developer a beer!
