                               Psi4 1.3.2 release

  ==> Input File <==

--------------------------------------------------------------------------
#psi4
#
memory 32 gb

molecule  {
0 1
  O       -2.1484710    -1.7769200    -0.0056360
  N       -0.0994904    -0.7576239    -0.2550590
  C        0.7299860     0.3339780    -0.2958210
  C        2.1818620     0.0407190    -0.5352160
  C        0.2064650     1.5802430    -0.0751780
  C        2.8433400    -0.6629840     0.6549670
  C       -1.5021630    -0.7229610    -0.0075890
  C       -1.1865830     1.7077900     0.1829230
  C       -2.0093520     0.6149060     0.2198470
  H        2.2852110    -0.5739760    -1.4389020
  H        2.6915310     0.9874470    -0.7394040
  H        0.2447490    -1.6791740    -0.4204020
  H        0.8548030     2.4492830    -0.1032540
  H        3.9041830    -0.8397700     0.4571160
  H        2.3740450    -1.6291400     0.8604190
  H        2.7566000    -0.0487500     1.5548580
  H       -1.6048580     2.6974250     0.3552120
  H       -3.0731340     0.7034120     0.4140280
units angstrom
no_reorient  #important for SAPT in psi4, default
symmetry c1  #important for SAPT in psi4, default
}

set PROPERTIES_ORIGIN ["COM"]
properties('MP2/aug-cc-pvtz', properties = ['dipole'])
--------------------------------------------------------------------------

    Molecular point group: c1
  Charge       = 0
  Multiplicity = 1
  Basis Set: AUG-CC-PVTZ
    Blend: AUG-CC-PVTZ
  Basis Set: (AUG-CC-PVTZ AUX)
    Blend: AUG-CC-PVTZ-JKFIT

    Orbital Energies [Eh]
    ---------------------

    Doubly Occupied:

       1A    -20.508968     2A    -15.618172     3A    -11.353372
       4A    -11.315136     5A    -11.271404     6A    -11.260228
       7A    -11.241674     8A    -11.234740     9A    -11.234303
      10A     -1.366571    11A     -1.271626    12A     -1.103578
      13A     -1.085848    14A     -1.003420    15A     -0.903065
      16A     -0.867668    17A     -0.830178    18A     -0.740626
      19A     -0.692274    20A     -0.664074    21A     -0.637535
      22A     -0.625896    23A     -0.611029    24A     -0.597643
      25A     -0.563193    26A     -0.554474    27A     -0.540990
      28A     -0.523404    29A     -0.511017    30A     -0.469929
      31A     -0.421342    32A     -0.420716    33A     -0.307219

  @DF-RHF Final Energy:  -399.78298074958906

   => Energetics <=

    Nuclear Repulsion Energy =            426.3068590422975603
    One-Electron Energy =               -1387.4770521904904399
    Two-Electron Energy =                 561.3872123986037650
    Total Energy =                       -399.7829807495891146
  Basis Set: (AUG-CC-PVTZ AUX)
    Blend: AUG-CC-PVTZ-RI
    Molecular point group: c1

    Geometry (in Angstrom), charge = 0, multiplicity = 1:

       Center              X                  Y                   Z               Mass
    ------------   -----------------  -----------------  -----------------  -----------------
         O           -2.066562476582    -1.758657590390     0.002388296438    15.994914619570
         N           -0.017581876582    -0.739361490390    -0.247034703562    14.003074004430
         C            0.811894523418     0.352240409610    -0.287796703562    12.000000000000
         C            2.263770523418     0.058981409610    -0.527191703562    12.000000000000
         C            0.288373523418     1.598505409610    -0.067153703562    12.000000000000
         C            2.925248523418    -0.644721590390     0.662991296438    12.000000000000
         C           -1.420254476582    -0.704698590390     0.000435296438    12.000000000000
         C           -1.104674476582     1.726052409610     0.190947296438    12.000000000000
         C           -1.927443476582     0.633168409610     0.227871296438    12.000000000000
         H            2.367119523418    -0.555713590390    -1.430877703562     1.007825032230
         H            2.773439523418     1.005709409610    -0.731379703562     1.007825032230
         H            0.326657523418    -1.660911590390    -0.412377703562     1.007825032230
         H            0.936711523418     2.467545409610    -0.095229703562     1.007825032230
         H            3.986091523418    -0.821507590390     0.465140296438     1.007825032230
         H            2.455953523418    -1.610877590390     0.868443296438     1.007825032230
         H            2.838508523418    -0.030487590390     1.562882296438     1.007825032230
         H           -1.522949476582     2.715687409610     0.363236296438     1.007825032230
         H           -2.991225476582     0.721674409610     0.422052296438     1.007825032230

  Basis Set: AUG-CC-PVTZ
    Blend: AUG-CC-PVTZ
  Basis Set: (AUG-CC-PVTZ AUX)
    Blend: AUG-CC-PVTZ-JKFIT
	 Reference Energy          =    -399.7829807495890577 [Eh]
	 Singles Energy            =      -0.0000000000000000 [Eh]
	 Same-Spin Energy          =      -0.4220037722080394 [Eh]
	 Opposite-Spin Energy      =      -1.3370271626454935 [Eh]
	 Correlation Energy        =      -1.7590309348535329 [Eh]
	 Total Energy              =    -401.5420116844425706 [Eh]

	 ================> DF-SCS-MP2 Energies <==================
	-----------------------------------------------------------
	 SCS Same-Spin Scale       =       0.3333333333333333 [-]
	 SCS Opposite-Spin Scale   =       1.2000000000000000 [-]
	 SCS Same-Spin Energy      =      -0.1406679240693465 [Eh]
	 SCS Opposite-Spin Energy  =      -1.6044325951745921 [Eh]
	 SCS Correlation Energy    =      -1.7451005192439386 [Eh]
	 SCS Total Energy          =    -401.5280812688329775 [Eh]
	-----------------------------------------------------------

  Dipole Moment: [D]
     X:     4.0006      Y:     2.5543      Z:    -0.2645     Total:     4.7539

*** Psi4 exiting successfully. Buy a developer a beer!
