                               Psi4 1.3.2 release

  ==> Input File <==

--------------------------------------------------------------------------
#psi4
#
memory 32 gb

molecule  {
0 1
  O       -2.1484710    -1.7769200    -0.0056360
  N       -0.1180990    -0.7430760    -0.2511680
  C        0.7274387     0.3555809    -0.3434617
  C        2.1818620     0.0407190    -0.5352160
  C        0.2064650     1.5802430    -0.0751780
  C        2.8433400    -0.6629840     0.6549670
  C       -1.5021630    -0.7229610    -0.0075890
  C       -1.1865830     1.7077900     0.1829230
  C       -2.0093520     0.6149060     0.2198470
  H        2.2852110    -0.5739760    -1.4389020
  H        2.6915310     0.9874470    -0.7394040
  H        0.2447490    -1.6791740    -0.4204020
  H        0.8548030     2.4492830    -0.1032540
  H        3.9041830    -0.8397700     0.4571160
  H        2.3740450    -1.6291400     0.8604190
  H        2.7566000    -0.0487500     1.5548580
  H       -1.6048580     2.6974250     0.3552120
  H       -3.0731340     0.7034120     0.4140280
units angstrom
no_reorient  #important for SAPT in psi4, default
symmetry c1  #important for SAPT in psi4, default
}

set PROPERTIES_ORIGIN ["COM"]
properties('MP2/aug-cc-pvtz', properties = ['dipole'])
--------------------------------------------------------------------------

    Molecular point group: c1
  Charge       = 0
  Multiplicity = 1
  Basis Set: AUG-CC-PVTZ
    Blend: AUG-CC-PVTZ
  Basis Set: (AUG-CC-PVTZ AUX)
    Blend: AUG-CC-PVTZ-JKFIT

    Orbital Energies [Eh]
    ---------------------

    Doubly Occupied:

       1A    -20.506827     2A    -15.617543     3A    -11.350803
       4A    -11.313592     5A    -11.271188     6A    -11.260773
       7A    -11.242295     8A    -11.235802     9A    -11.235603
      10A     -1.365784    11A     -1.267100    12A     -1.103422
      13A     -1.086638    14A     -1.006025    15A     -0.903692
      16A     -0.867233    17A     -0.829334    18A     -0.736204
      19A     -0.692369    20A     -0.661699    21A     -0.634882
      22A     -0.626232    23A     -0.611371    24A     -0.597545
      25A     -0.564546    26A     -0.552924    27A     -0.541328
      28A     -0.523012    29A     -0.512025    30A     -0.468512
      31A     -0.420660    32A     -0.419197    33A     -0.310509

  @DF-RHF Final Energy:  -399.78201170763703

   => Energetics <=

    Nuclear Repulsion Energy =            426.3584975745450834
    One-Electron Energy =               -1387.6076835374221901
    Two-Electron Energy =                 561.4671742552401383
    Total Energy =                       -399.7820117076370252
  Basis Set: (AUG-CC-PVTZ AUX)
    Blend: AUG-CC-PVTZ-RI
    Molecular point group: c1

    Geometry (in Angstrom), charge = 0, multiplicity = 1:

       Center              X                  Y                   Z               Mass
    ------------   -----------------  -----------------  -----------------  -----------------
         O           -2.064196758250    -1.762419320192     0.006590856808    15.994914619570
         N           -0.033824758250    -0.728575320192    -0.238941143192    14.003074004430
         C            0.811712941750     0.370081579808    -0.331234843192    12.000000000000
         C            2.266136241750     0.055219679808    -0.522989143192    12.000000000000
         C            0.290739241750     1.594743679808    -0.062951143192    12.000000000000
         C            2.927614241750    -0.648483320192     0.667193856808    12.000000000000
         C           -1.417888758250    -0.708460320192     0.004637856808    12.000000000000
         C           -1.102308758250     1.722290679808     0.195149856808    12.000000000000
         C           -1.925077758250     0.629406679808     0.232073856808    12.000000000000
         H            2.369485241750    -0.559475320192    -1.426675143192     1.007825032230
         H            2.775805241750     1.001947679808    -0.727177143192     1.007825032230
         H            0.329023241750    -1.664673320192    -0.408175143192     1.007825032230
         H            0.939077241750     2.463783679808    -0.091027143192     1.007825032230
         H            3.988457241750    -0.825269320192     0.469342856808     1.007825032230
         H            2.458319241750    -1.614639320192     0.872645856808     1.007825032230
         H            2.840874241750    -0.034249320192     1.567084856808     1.007825032230
         H           -1.520583758250     2.711925679808     0.367438856808     1.007825032230
         H           -2.988859758250     0.717912679808     0.426254856808     1.007825032230

  Basis Set: AUG-CC-PVTZ
    Blend: AUG-CC-PVTZ
  Basis Set: (AUG-CC-PVTZ AUX)
    Blend: AUG-CC-PVTZ-JKFIT
	 Reference Energy          =    -399.7820117076370252 [Eh]
	 Singles Energy            =      -0.0000000000000000 [Eh]
	 Same-Spin Energy          =      -0.4220221300798814 [Eh]
	 Opposite-Spin Energy      =      -1.3373593635591110 [Eh]
	 Correlation Energy        =      -1.7593814936389924 [Eh]
	 Total Energy              =    -401.5413932012760370 [Eh]

	 ================> DF-SCS-MP2 Energies <==================
	-----------------------------------------------------------
	 SCS Same-Spin Scale       =       0.3333333333333333 [-]
	 SCS Opposite-Spin Scale   =       1.2000000000000000 [-]
	 SCS Same-Spin Energy      =      -0.1406740433599605 [Eh]
	 SCS Opposite-Spin Energy  =      -1.6048312362709332 [Eh]
	 SCS Correlation Energy    =      -1.7455052796308936 [Eh]
	 SCS Total Energy          =    -401.5275169872679157 [Eh]
	-----------------------------------------------------------

  Dipole Moment: [D]
     X:     4.0582      Y:     2.6279      Z:    -0.2511     Total:     4.8412

*** Psi4 exiting successfully. Buy a developer a beer!
