                               Psi4 1.3.2 release

  ==> Input File <==

--------------------------------------------------------------------------
#psi4
#
memory 32 gb

molecule  {
0 1
  O       -2.1484710    -1.7769200    -0.0056360
  N       -0.1180990    -0.7430760    -0.2511680
  C        0.7587084     0.3881922    -0.2109462
  C        2.1818620     0.0407190    -0.5352160
  C        0.2064650     1.5802430    -0.0751780
  C        2.8433400    -0.6629840     0.6549670
  C       -1.5021630    -0.7229610    -0.0075890
  C       -1.1865830     1.7077900     0.1829230
  C       -2.0093520     0.6149060     0.2198470
  H        2.2852110    -0.5739760    -1.4389020
  H        2.6915310     0.9874470    -0.7394040
  H        0.2447490    -1.6791740    -0.4204020
  H        0.8548030     2.4492830    -0.1032540
  H        3.9041830    -0.8397700     0.4571160
  H        2.3740450    -1.6291400     0.8604190
  H        2.7566000    -0.0487500     1.5548580
  H       -1.6048580     2.6974250     0.3552120
  H       -3.0731340     0.7034120     0.4140280
units angstrom
no_reorient  #important for SAPT in psi4, default
symmetry c1  #important for SAPT in psi4, default
}

set PROPERTIES_ORIGIN ["COM"]
properties('MP2/aug-cc-pvtz', properties = ['dipole'])
--------------------------------------------------------------------------

    Molecular point group: c1
  Charge       = 0
  Multiplicity = 1
  Basis Set: AUG-CC-PVTZ
    Blend: AUG-CC-PVTZ
  Basis Set: (AUG-CC-PVTZ AUX)
    Blend: AUG-CC-PVTZ-JKFIT

    Orbital Energies [Eh]
    ---------------------

    Doubly Occupied:

       1A    -20.506617     2A    -15.611291     3A    -11.349618
       4A    -11.309606     5A    -11.272463     6A    -11.259842
       7A    -11.239720     8A    -11.238982     9A    -11.234707
      10A     -1.363294    11A     -1.255671    12A     -1.106167
      13A     -1.087378    14A     -1.010172    15A     -0.901200
      16A     -0.867541    17A     -0.820258    18A     -0.734817
      19A     -0.692889    20A     -0.666929    21A     -0.631799
      22A     -0.624026    23A     -0.610597    24A     -0.596202
      25A     -0.562238    26A     -0.551999    27A     -0.541111
      28A     -0.518311    29A     -0.515733    30A     -0.468265
      31A     -0.419633    32A     -0.416214    33A     -0.318002

  @DF-RHF Final Energy:  -399.77651822571545

   => Energetics <=

    Nuclear Repulsion Energy =            426.4050286151637579
    One-Electron Energy =               -1387.7565047180530655
    Two-Electron Energy =                 561.5749578771739152
    Total Energy =                       -399.7765182257154493
  Basis Set: (AUG-CC-PVTZ AUX)
    Blend: AUG-CC-PVTZ-RI
    Molecular point group: c1

    Geometry (in Angstrom), charge = 0, multiplicity = 1:

       Center              X                  Y                   Z               Mass
    ------------   -----------------  -----------------  -----------------  -----------------
         O           -2.067245764799    -1.765599141786    -0.006330297771    15.994914619570
         N           -0.036873764799    -0.731755141786    -0.251862297771    14.003074004430
         C            0.839933635201     0.399513058214    -0.211640497771    12.000000000000
         C            2.263087235201     0.052039858214    -0.535910297771    12.000000000000
         C            0.287690235201     1.591563858214    -0.075872297771    12.000000000000
         C            2.924565235201    -0.651663141786     0.654272702229    12.000000000000
         C           -1.420937764799    -0.711640141786    -0.008283297771    12.000000000000
         C           -1.105357764799     1.719110858214     0.182228702229    12.000000000000
         C           -1.928126764799     0.626226858214     0.219152702229    12.000000000000
         H            2.366436235201    -0.562655141786    -1.439596297771     1.007825032230
         H            2.772756235201     0.998767858214    -0.740098297771     1.007825032230
         H            0.325974235201    -1.667853141786    -0.421096297771     1.007825032230
         H            0.936028235201     2.460603858214    -0.103948297771     1.007825032230
         H            3.985408235201    -0.828449141786     0.456421702229     1.007825032230
         H            2.455270235201    -1.617819141786     0.859724702229     1.007825032230
         H            2.837825235201    -0.037429141786     1.554163702229     1.007825032230
         H           -1.523632764799     2.708745858214     0.354517702229     1.007825032230
         H           -2.991908764799     0.714732858214     0.413333702229     1.007825032230

  Basis Set: AUG-CC-PVTZ
    Blend: AUG-CC-PVTZ
  Basis Set: (AUG-CC-PVTZ AUX)
    Blend: AUG-CC-PVTZ-JKFIT
	 Reference Energy          =    -399.7765182257154493 [Eh]
	 Singles Energy            =      -0.0000000000000000 [Eh]
	 Same-Spin Energy          =      -0.4214342499433128 [Eh]
	 Opposite-Spin Energy      =      -1.3376043900568653 [Eh]
	 Correlation Energy        =      -1.7590386400001781 [Eh]
	 Total Energy              =    -401.5355568657156482 [Eh]

	 ================> DF-SCS-MP2 Energies <==================
	-----------------------------------------------------------
	 SCS Same-Spin Scale       =       0.3333333333333333 [-]
	 SCS Opposite-Spin Scale   =       1.2000000000000000 [-]
	 SCS Same-Spin Energy      =      -0.1404780833144376 [Eh]
	 SCS Opposite-Spin Energy  =      -1.6051252680682382 [Eh]
	 SCS Correlation Energy    =      -1.7456033513826759 [Eh]
	 SCS Total Energy          =    -401.5221215770981189 [Eh]
	-----------------------------------------------------------

  Dipole Moment: [D]
     X:     4.0109      Y:     2.7542      Z:    -0.2582     Total:     4.8723

*** Psi4 exiting successfully. Buy a developer a beer!
