                               Psi4 1.3.2 release

  ==> Input File <==

--------------------------------------------------------------------------
#psi4
#
memory 32 gb

molecule  {
0 1
  O       -2.1484710    -1.7769200    -0.0056360
  N       -0.1180990    -0.7430760    -0.2511680
  C        0.7756797     0.4146807    -0.1690757
  C        2.1818620     0.0407190    -0.5352160
  C        0.2064650     1.5802430    -0.0751780
  C        2.8433400    -0.6629840     0.6549670
  C       -1.5021630    -0.7229610    -0.0075890
  C       -1.1865830     1.7077900     0.1829230
  C       -2.0093520     0.6149060     0.2198470
  H        2.2852110    -0.5739760    -1.4389020
  H        2.6915310     0.9874470    -0.7394040
  H        0.2447490    -1.6791740    -0.4204020
  H        0.8548030     2.4492830    -0.1032540
  H        3.9041830    -0.8397700     0.4571160
  H        2.3740450    -1.6291400     0.8604190
  H        2.7566000    -0.0487500     1.5548580
  H       -1.6048580     2.6974250     0.3552120
  H       -3.0731340     0.7034120     0.4140280
units angstrom
no_reorient  #important for SAPT in psi4, default
symmetry c1  #important for SAPT in psi4, default
}

set PROPERTIES_ORIGIN ["COM"]
properties('MP2/aug-cc-pvtz', properties = ['dipole'])
--------------------------------------------------------------------------

    Molecular point group: c1
  Charge       = 0
  Multiplicity = 1
  Basis Set: AUG-CC-PVTZ
    Blend: AUG-CC-PVTZ
  Basis Set: (AUG-CC-PVTZ AUX)
    Blend: AUG-CC-PVTZ-JKFIT

    Orbital Energies [Eh]
    ---------------------

    Doubly Occupied:

       1A    -20.506462     2A    -15.606774     3A    -11.348722
       4A    -11.307678     5A    -11.273317     6A    -11.259448
       7A    -11.241517     8A    -11.238548     9A    -11.235217
      10A     -1.361743    11A     -1.247712    12A     -1.107655
      13A     -1.087572    14A     -1.012901    15A     -0.900627
      16A     -0.867658    17A     -0.813824    18A     -0.733436
      19A     -0.692529    20A     -0.669194    21A     -0.630256
      22A     -0.622248    23A     -0.610262    24A     -0.593955
      25A     -0.562084    26A     -0.550772    27A     -0.540935
      28A     -0.519190    29A     -0.512824    30A     -0.468232
      31A     -0.418781    32A     -0.413446    33A     -0.322907

  @DF-RHF Final Energy:  -399.76736430425291

   => Energetics <=

    Nuclear Repulsion Energy =            426.2278775525819583
    One-Electron Energy =               -1387.4336325065942219
    Two-Electron Energy =                 561.4383906497594126
    Total Energy =                       -399.7673643042528511
  Basis Set: (AUG-CC-PVTZ AUX)
    Blend: AUG-CC-PVTZ-RI
    Molecular point group: c1

    Geometry (in Angstrom), charge = 0, multiplicity = 1:

       Center              X                  Y                   Z               Mass
    ------------   -----------------  -----------------  -----------------  -----------------
         O           -2.068900580958    -1.768181949103    -0.010412953784    15.994914619570
         N           -0.038528580958    -0.734337949103    -0.255944953784    14.003074004430
         C            0.855250119042     0.423418750897    -0.173852653784    12.000000000000
         C            2.261432419042     0.049457050897    -0.539992953784    12.000000000000
         C            0.286035419042     1.588981050897    -0.079954953784    12.000000000000
         C            2.922910419042    -0.654245949103     0.650190046216    12.000000000000
         C           -1.422592580958    -0.714222949103    -0.012365953784    12.000000000000
         C           -1.107012580958     1.716528050897     0.178146046216    12.000000000000
         C           -1.929781580958     0.623644050897     0.215070046216    12.000000000000
         H            2.364781419042    -0.565237949103    -1.443678953784     1.007825032230
         H            2.771101419042     0.996185050897    -0.744180953784     1.007825032230
         H            0.324319419042    -1.670435949103    -0.425178953784     1.007825032230
         H            0.934373419042     2.458021050897    -0.108030953784     1.007825032230
         H            3.983753419042    -0.831031949103     0.452339046216     1.007825032230
         H            2.453615419042    -1.620401949103     0.855642046216     1.007825032230
         H            2.836170419042    -0.040011949103     1.550081046216     1.007825032230
         H           -1.525287580958     2.706163050897     0.350435046216     1.007825032230
         H           -2.993563580958     0.712150050897     0.409251046216     1.007825032230

  Basis Set: AUG-CC-PVTZ
    Blend: AUG-CC-PVTZ
  Basis Set: (AUG-CC-PVTZ AUX)
    Blend: AUG-CC-PVTZ-JKFIT
	 Reference Energy          =    -399.7673643042529079 [Eh]
	 Singles Energy            =      -0.0000000000000000 [Eh]
	 Same-Spin Energy          =      -0.4212443508603109 [Eh]
	 Opposite-Spin Energy      =      -1.3382709342730355 [Eh]
	 Correlation Energy        =      -1.7595152851333462 [Eh]
	 Total Energy              =    -401.5268795893862261 [Eh]

	 ================> DF-SCS-MP2 Energies <==================
	-----------------------------------------------------------
	 SCS Same-Spin Scale       =       0.3333333333333333 [-]
	 SCS Opposite-Spin Scale   =       1.2000000000000000 [-]
	 SCS Same-Spin Energy      =      -0.1404147836201036 [Eh]
	 SCS Opposite-Spin Energy  =      -1.6059251211276424 [Eh]
	 SCS Correlation Energy    =      -1.7463399047477459 [Eh]
	 SCS Total Energy          =    -401.5137042090006503 [Eh]
	-----------------------------------------------------------

  Dipole Moment: [D]
     X:     3.9727      Y:     2.8493      Z:    -0.2484     Total:     4.8952

*** Psi4 exiting successfully. Buy a developer a beer!
