                               Psi4 1.3.2 release

  ==> Input File <==

--------------------------------------------------------------------------
#psi4
#
memory 32 gb

molecule  {
0 1
  O       -2.1484710    -1.7769200    -0.0056360
  N       -0.1180990    -0.7430760    -0.2511680
  C        0.6545304     0.3899066    -0.2772768
  C        2.1818620     0.0407190    -0.5352160
  C        0.2064650     1.5802430    -0.0751780
  C        2.8433400    -0.6629840     0.6549670
  C       -1.5021630    -0.7229610    -0.0075890
  C       -1.1865830     1.7077900     0.1829230
  C       -2.0093520     0.6149060     0.2198470
  H        2.2852110    -0.5739760    -1.4389020
  H        2.6915310     0.9874470    -0.7394040
  H        0.2447490    -1.6791740    -0.4204020
  H        0.8548030     2.4492830    -0.1032540
  H        3.9041830    -0.8397700     0.4571160
  H        2.3740450    -1.6291400     0.8604190
  H        2.7566000    -0.0487500     1.5548580
  H       -1.6048580     2.6974250     0.3552120
  H       -3.0731340     0.7034120     0.4140280
units angstrom
no_reorient  #important for SAPT in psi4, default
symmetry c1  #important for SAPT in psi4, default
}

set PROPERTIES_ORIGIN ["COM"]
properties('MP2/aug-cc-pvtz', properties = ['dipole'])
--------------------------------------------------------------------------

    Molecular point group: c1
  Charge       = 0
  Multiplicity = 1
  Basis Set: AUG-CC-PVTZ
    Blend: AUG-CC-PVTZ
  Basis Set: (AUG-CC-PVTZ AUX)
    Blend: AUG-CC-PVTZ-JKFIT

    Orbital Energies [Eh]
    ---------------------

    Doubly Occupied:

       1A    -20.507958     2A    -15.616494     3A    -11.350119
       4A    -11.303908     5A    -11.271934     6A    -11.260981
       7A    -11.238484     8A    -11.236638     9A    -11.227543
      10A     -1.367445    11A     -1.271983    12A     -1.112730
      13A     -1.074658    14A     -1.012186    15A     -0.894213
      16A     -0.869926    17A     -0.828198    18A     -0.744238
      19A     -0.696053    20A     -0.661450    21A     -0.630104
      22A     -0.624920    23A     -0.611128    24A     -0.598714
      25A     -0.562662    26A     -0.560167    27A     -0.537356
      28A     -0.515048    29A     -0.499607    30A     -0.476172
      31A     -0.421290    32A     -0.418543    33A     -0.319457

  @DF-RHF Final Energy:  -399.77466135089878

   => Energetics <=

    Nuclear Repulsion Energy =            427.1773017551927296
    One-Electron Energy =               -1389.2593115681233940
    Two-Electron Energy =                 562.3073484620318823
    Total Energy =                       -399.7746613508987821
  Basis Set: (AUG-CC-PVTZ AUX)
    Blend: AUG-CC-PVTZ-RI
    Molecular point group: c1

    Geometry (in Angstrom), charge = 0, multiplicity = 1:

       Center              X                  Y                   Z               Mass
    ------------   -----------------  -----------------  -----------------  -----------------
         O           -2.057087707502    -1.765766307343     0.000137382884    15.994914619570
         N           -0.026715707502    -0.731922307343    -0.245394617116    14.003074004430
         C            0.745913692498     0.401060292657    -0.271503417116    12.000000000000
         C            2.273245292498     0.051872692657    -0.529442617116    12.000000000000
         C            0.297848292498     1.591396692657    -0.069404617116    12.000000000000
         C            2.934723292498    -0.651830307343     0.660740382884    12.000000000000
         C           -1.410779707502    -0.711807307343    -0.001815617116    12.000000000000
         C           -1.095199707502     1.718943692657     0.188696382884    12.000000000000
         C           -1.917968707502     0.626059692657     0.225620382884    12.000000000000
         H            2.376594292498    -0.562822307343    -1.433128617116     1.007825032230
         H            2.782914292498     0.998600692657    -0.733630617116     1.007825032230
         H            0.336132292498    -1.668020307343    -0.414628617116     1.007825032230
         H            0.946186292498     2.460436692657    -0.097480617116     1.007825032230
         H            3.995566292498    -0.828616307343     0.462889382884     1.007825032230
         H            2.465428292498    -1.617986307343     0.866192382884     1.007825032230
         H            2.847983292498    -0.037596307343     1.560631382884     1.007825032230
         H           -1.513474707502     2.708578692657     0.360985382884     1.007825032230
         H           -2.981750707502     0.714565692657     0.419801382884     1.007825032230

  Basis Set: AUG-CC-PVTZ
    Blend: AUG-CC-PVTZ
  Basis Set: (AUG-CC-PVTZ AUX)
    Blend: AUG-CC-PVTZ-JKFIT
	 Reference Energy          =    -399.7746613508987821 [Eh]
	 Singles Energy            =      -0.0000000000000000 [Eh]
	 Same-Spin Energy          =      -0.4205717715348988 [Eh]
	 Opposite-Spin Energy      =      -1.3355555184026588 [Eh]
	 Correlation Energy        =      -1.7561272899375577 [Eh]
	 Total Energy              =    -401.5307886408363629 [Eh]

	 ================> DF-SCS-MP2 Energies <==================
	-----------------------------------------------------------
	 SCS Same-Spin Scale       =       0.3333333333333333 [-]
	 SCS Opposite-Spin Scale   =       1.2000000000000000 [-]
	 SCS Same-Spin Energy      =      -0.1401905905116329 [Eh]
	 SCS Opposite-Spin Energy  =      -1.6026666220831907 [Eh]
	 SCS Correlation Energy    =      -1.7428572125948236 [Eh]
	 SCS Total Energy          =    -401.5175185634935815 [Eh]
	-----------------------------------------------------------

  Dipole Moment: [D]
     X:     3.8860      Y:     2.6595      Z:    -0.2457     Total:     4.7154

*** Psi4 exiting successfully. Buy a developer a beer!
