                               Psi4 1.3.2 release

  ==> Input File <==

--------------------------------------------------------------------------
#psi4
#
memory 32 gb

molecule  {
0 1
  O       -2.1484710    -1.7769200    -0.0056360
  N       -0.1180990    -0.7430760    -0.2511680
  C        0.7482182     0.3191647    -0.3004266
  C        2.1818620     0.0407190    -0.5352160
  C        0.2064650     1.5802430    -0.0751780
  C        2.8433400    -0.6629840     0.6549670
  C       -1.5021630    -0.7229610    -0.0075890
  C       -1.1865830     1.7077900     0.1829230
  C       -2.0093520     0.6149060     0.2198470
  H        2.2852110    -0.5739760    -1.4389020
  H        2.6915310     0.9874470    -0.7394040
  H        0.2447490    -1.6791740    -0.4204020
  H        0.8548030     2.4492830    -0.1032540
  H        3.9041830    -0.8397700     0.4571160
  H        2.3740450    -1.6291400     0.8604190
  H        2.7566000    -0.0487500     1.5548580
  H       -1.6048580     2.6974250     0.3552120
  H       -3.0731340     0.7034120     0.4140280
units angstrom
no_reorient  #important for SAPT in psi4, default
symmetry c1  #important for SAPT in psi4, default
}

set PROPERTIES_ORIGIN ["COM"]
properties('MP2/aug-cc-pvtz', properties = ['dipole'])
--------------------------------------------------------------------------

    Molecular point group: c1
  Charge       = 0
  Multiplicity = 1
  Basis Set: AUG-CC-PVTZ
    Blend: AUG-CC-PVTZ
  Basis Set: (AUG-CC-PVTZ AUX)
    Blend: AUG-CC-PVTZ-JKFIT

    Orbital Energies [Eh]
    ---------------------

    Doubly Occupied:

       1A    -20.506486     2A    -15.621232     3A    -11.351334
       4A    -11.317807     5A    -11.270138     6A    -11.261424
       7A    -11.243308     8A    -11.236819     9A    -11.233235
      10A     -1.366837    11A     -1.272788    12A     -1.100552
      13A     -1.091260    14A     -1.002413    15A     -0.905155
      16A     -0.865881    17A     -0.835062    18A     -0.735641
      19A     -0.692040    20A     -0.663718    21A     -0.639192
      22A     -0.627078    23A     -0.611344    24A     -0.599189
      25A     -0.563658    26A     -0.551171    27A     -0.542210
      28A     -0.527812    29A     -0.511365    30A     -0.467700
      31A     -0.421223    32A     -0.419709    33A     -0.304516

  @DF-RHF Final Energy:  -399.78147732192122

   => Energetics <=

    Nuclear Repulsion Energy =            426.4976364306993446
    One-Electron Energy =               -1387.8396401709492238
    Two-Electron Energy =                 561.5605264183286636
    Total Energy =                       -399.7814773219212157
  Basis Set: (AUG-CC-PVTZ AUX)
    Blend: AUG-CC-PVTZ-RI
    Molecular point group: c1

    Geometry (in Angstrom), charge = 0, multiplicity = 1:

       Center              X                  Y                   Z               Mass
    ------------   -----------------  -----------------  -----------------  -----------------
         O           -2.066222899581    -1.758868495199     0.002394644444    15.994914619570
         N           -0.035850899581    -0.725024495199    -0.243137355556    14.003074004430
         C            0.830466300419     0.337216204801    -0.292395955556    12.000000000000
         C            2.264110100419     0.058770504801    -0.527185355556    12.000000000000
         C            0.288713100419     1.598294504801    -0.067147355556    12.000000000000
         C            2.925588100419    -0.644932495199     0.662997644444    12.000000000000
         C           -1.419914899581    -0.704909495199     0.000441644444    12.000000000000
         C           -1.104334899581     1.725841504801     0.190953644444    12.000000000000
         C           -1.927103899581     0.632957504801     0.227877644444    12.000000000000
         H            2.367459100419    -0.555924495199    -1.430871355556     1.007825032230
         H            2.773779100419     1.005498504801    -0.731373355556     1.007825032230
         H            0.326997100419    -1.661122495199    -0.412371355556     1.007825032230
         H            0.937051100419     2.467334504801    -0.095223355556     1.007825032230
         H            3.986431100419    -0.821718495199     0.465146644444     1.007825032230
         H            2.456293100419    -1.611088495199     0.868449644444     1.007825032230
         H            2.838848100419    -0.030698495199     1.562888644444     1.007825032230
         H           -1.522609899581     2.715476504801     0.363242644444     1.007825032230
         H           -2.990885899581     0.721463504801     0.422058644444     1.007825032230

  Basis Set: AUG-CC-PVTZ
    Blend: AUG-CC-PVTZ
  Basis Set: (AUG-CC-PVTZ AUX)
    Blend: AUG-CC-PVTZ-JKFIT
	 Reference Energy          =    -399.7814773219212157 [Eh]
	 Singles Energy            =      -0.0000000000000000 [Eh]
	 Same-Spin Energy          =      -0.4227662707639338 [Eh]
	 Opposite-Spin Energy      =      -1.3378256129553461 [Eh]
	 Correlation Energy        =      -1.7605918837192798 [Eh]
	 Total Energy              =    -401.5420692056404732 [Eh]

	 ================> DF-SCS-MP2 Energies <==================
	-----------------------------------------------------------
	 SCS Same-Spin Scale       =       0.3333333333333333 [-]
	 SCS Opposite-Spin Scale   =       1.2000000000000000 [-]
	 SCS Same-Spin Energy      =      -0.1409220902546446 [Eh]
	 SCS Opposite-Spin Energy  =      -1.6053907355464152 [Eh]
	 SCS Correlation Energy    =      -1.7463128258010598 [Eh]
	 SCS Total Energy          =    -401.5277901477222713 [Eh]
	-----------------------------------------------------------

  Dipole Moment: [D]
     X:     4.1444      Y:     2.5592      Z:    -0.2801     Total:     4.8789

*** Psi4 exiting successfully. Buy a developer a beer!
