                               Psi4 1.4a3.dev225

  ==> Input File <==

--------------------------------------------------------------------------
#psi4
#
memory 32 gb

molecule  {
0 1
  O       -2.1484710    -1.7769200    -0.0056360
  N       -0.1180990    -0.7430760    -0.2511680
  C        0.7299860     0.3339780    -0.2958210
  C        2.1625090     0.0446280    -0.5320250
  C        0.2064650     1.5802430    -0.0751780
  C        2.8433400    -0.6629840     0.6549670
  C       -1.5021630    -0.7229610    -0.0075890
  C       -1.1865830     1.7077900     0.1829230
  C       -2.0093520     0.6149060     0.2198470
  H        2.2852110    -0.5739760    -1.4389020
  H        2.6915310     0.9874470    -0.7394040
  H        0.2447490    -1.6791740    -0.4204020
  H        0.8548030     2.4492830    -0.1032540
  H        3.9041830    -0.8397700     0.4571160
  H        2.3740450    -1.6291400     0.8604190
  H        2.7566000    -0.0487500     1.5548580
  H       -1.6048580     2.6974250     0.3552120
  H       -3.0731340     0.7034120     0.4140280
units angstrom
no_reorient  #important for SAPT in psi4, default
symmetry c1  #important for SAPT in psi4, default
}

set PROPERTIES_ORIGIN ["COM"]
properties('MP2/aug-cc-pvtz', properties = ['dipole'])
--------------------------------------------------------------------------

    Molecular point group: c1
  Charge       = 0
  Multiplicity = 1
  Basis Set: AUG-CC-PVTZ
    Blend: AUG-CC-PVTZ
  Basis Set: (AUG-CC-PVTZ AUX)
    Blend: AUG-CC-PVTZ-JKFIT

    Orbital Energies [Eh]
    ---------------------

    Doubly Occupied:

       1A    -20.506946     2A    -15.620083     3A    -11.351247
       4A    -11.314303     5A    -11.270637     6A    -11.261293
       7A    -11.242733     8A    -11.235364     9A    -11.234245
      10A     -1.367117    11A     -1.273156    12A     -1.102858
      13A     -1.088471    14A     -1.003842    15A     -0.904166
      16A     -0.867408    17A     -0.833102    18A     -0.737325
      19A     -0.692860    20A     -0.664032    21A     -0.637975
      22A     -0.625126    23A     -0.611285    24A     -0.599732
      25A     -0.563724    26A     -0.553296    27A     -0.538994
      28A     -0.525881    29A     -0.510772    30A     -0.468370
      31A     -0.421206    32A     -0.420167    33A     -0.307613

  @DF-RHF Final Energy:  -399.78285003043624

   => Energetics <=

    Nuclear Repulsion Energy =            426.8943455987875950
    One-Electron Energy =               -1388.6437354529257391
    Two-Electron Energy =                 561.9665398237018508
    Total Energy =                       -399.7828500304362933
  Basis Set: (AUG-CC-PVTZ AUX)
    Blend: AUG-CC-PVTZ-RI
    Molecular point group: c1

    Geometry (in Angstrom), charge = 0, multiplicity = 1:

       Center              X                  Y                   Z               Mass
    ------------   -----------------  -----------------  -----------------  -----------------
         O           -2.062558089208    -1.760694045662     0.001634423385    15.994914619570
         N           -0.032186089208    -0.726850045662    -0.243897576615    14.003074004430
         C            0.815898910792     0.350203954338    -0.288550576615    12.000000000000
         C            2.248421910792     0.060853954338    -0.524754576615    12.000000000000
         C            0.292377910792     1.596468954338    -0.067907576615    12.000000000000
         C            2.929252910792    -0.646758045662     0.662237423385    12.000000000000
         C           -1.416250089208    -0.706735045662    -0.000318576615    12.000000000000
         C           -1.100670089208     1.724015954338     0.190193423385    12.000000000000
         C           -1.923439089208     0.631131954338     0.227117423385    12.000000000000
         H            2.371123910792    -0.557750045662    -1.431631576615     1.007825032230
         H            2.777443910792     1.003672954338    -0.732133576615     1.007825032230
         H            0.330661910792    -1.662948045662    -0.413131576615     1.007825032230
         H            0.940715910792     2.465508954338    -0.095983576615     1.007825032230
         H            3.990095910792    -0.823544045662     0.464386423385     1.007825032230
         H            2.459957910792    -1.612914045662     0.867689423385     1.007825032230
         H            2.842512910792    -0.032524045662     1.562128423385     1.007825032230
         H           -1.518945089208     2.713650954338     0.362482423385     1.007825032230
         H           -2.987221089208     0.719637954338     0.421298423385     1.007825032230

  Basis Set: AUG-CC-PVTZ
    Blend: AUG-CC-PVTZ
  Basis Set: (AUG-CC-PVTZ AUX)
    Blend: AUG-CC-PVTZ-JKFIT
	 Reference Energy          =    -399.7828500304362365 [Eh]
	 Singles Energy            =      -0.0000000000000000 [Eh]
	 Same-Spin Energy          =      -0.4223644208956899 [Eh]
	 Opposite-Spin Energy      =      -1.3373570302877964 [Eh]
	 Correlation Energy        =      -1.7597214511834864 [Eh]
	 Total Energy              =    -401.5425714816197456 [Eh]

	 ================> DF-SCS-MP2 Energies <==================
	-----------------------------------------------------------
	 SCS Same-Spin Scale       =       0.3333333333333333 [-]
	 SCS Opposite-Spin Scale   =       1.2000000000000000 [-]
	 SCS Same-Spin Energy      =      -0.1407881402985633 [Eh]
	 SCS Opposite-Spin Energy  =      -1.6048284363453555 [Eh]
	 SCS Correlation Energy    =      -1.7456165766439189 [Eh]
	 SCS Total Energy          =    -401.5284666070801336 [Eh]
	-----------------------------------------------------------

  Dipole Moment: [D]
     X:     4.0858      Y:     2.5825      Z:    -0.2724     Total:     4.8412

*** Psi4 exiting successfully. Buy a developer a beer!
