                               Psi4 1.3.2 release

  ==> Input File <==

--------------------------------------------------------------------------
#psi4
#
memory 32 gb

molecule  {
0 1
  O       -2.1484710    -1.7769200    -0.0056360
  N       -0.1180990    -0.7430760    -0.2511680
  C        0.8010074     0.2729713    -0.3158105
  C        2.1818620     0.0407190    -0.5352160
  C        0.2064650     1.5802430    -0.0751780
  C        2.8433400    -0.6629840     0.6549670
  C       -1.5021630    -0.7229610    -0.0075890
  C       -1.1865830     1.7077900     0.1829230
  C       -2.0093520     0.6149060     0.2198470
  H        2.2852110    -0.5739760    -1.4389020
  H        2.6915310     0.9874470    -0.7394040
  H        0.2447490    -1.6791740    -0.4204020
  H        0.8548030     2.4492830    -0.1032540
  H        3.9041830    -0.8397700     0.4571160
  H        2.3740450    -1.6291400     0.8604190
  H        2.7566000    -0.0487500     1.5548580
  H       -1.6048580     2.6974250     0.3552120
  H       -3.0731340     0.7034120     0.4140280
units angstrom
no_reorient  #important for SAPT in psi4, default
symmetry c1  #important for SAPT in psi4, default
}

set PROPERTIES_ORIGIN ["COM"]
properties('MP2/aug-cc-pvtz', properties = ['dipole'])
--------------------------------------------------------------------------

    Molecular point group: c1
  Charge       = 0
  Multiplicity = 1
  Basis Set: AUG-CC-PVTZ
    Blend: AUG-CC-PVTZ
  Basis Set: (AUG-CC-PVTZ AUX)
    Blend: AUG-CC-PVTZ-JKFIT

    Orbital Energies [Eh]
    ---------------------

    Doubly Occupied:

       1A    -20.505348     2A    -15.624926     3A    -11.351805
       4A    -11.326529     5A    -11.268731     6A    -11.261511
       7A    -11.247035     8A    -11.241230     9A    -11.230373
      10A     -1.366439    11A     -1.274307    12A     -1.105212
      13A     -1.094739    14A     -0.996299    15A     -0.912589
      16A     -0.861814    17A     -0.839012    18A     -0.731091
      19A     -0.692698    20A     -0.669648    21A     -0.642844
      22A     -0.629468    23A     -0.610902    24A     -0.598474
      25A     -0.565499    26A     -0.547473    27A     -0.543736
      28A     -0.536623    29A     -0.508221    30A     -0.463719
      31A     -0.421738    32A     -0.418586    33A     -0.295178

  @DF-RHF Final Energy:  -399.76585409090683

   => Energetics <=

    Nuclear Repulsion Energy =            426.2197380030537488
    One-Electron Energy =               -1387.2035910471895477
    Two-Electron Energy =                 561.2179989532289710
    Total Energy =                       -399.7658540909068279
  Basis Set: (AUG-CC-PVTZ AUX)
    Blend: AUG-CC-PVTZ-RI
    Molecular point group: c1

    Geometry (in Angstrom), charge = 0, multiplicity = 1:

       Center              X                  Y                   Z               Mass
    ------------   -----------------  -----------------  -----------------  -----------------
         O           -2.071370202450    -1.754364327295     0.003894678402    15.994914619570
         N           -0.040998202450    -0.720520327295    -0.241637321598    14.003074004430
         C            0.878108197550     0.295526972705    -0.306279821598    12.000000000000
         C            2.258962797550     0.063274672705    -0.525685321598    12.000000000000
         C            0.283565797550     1.602798672705    -0.065647321598    12.000000000000
         C            2.920440797550    -0.640428327295     0.664497678402    12.000000000000
         C           -1.425062202450    -0.700405327295     0.001941678402    12.000000000000
         C           -1.109482202450     1.730345672705     0.192453678402    12.000000000000
         C           -1.932251202450     0.637461672705     0.229377678402    12.000000000000
         H            2.362311797550    -0.551420327295    -1.429371321598     1.007825032230
         H            2.768631797550     1.010002672705    -0.729873321598     1.007825032230
         H            0.321849797550    -1.656618327295    -0.410871321598     1.007825032230
         H            0.931903797550     2.471838672705    -0.093723321598     1.007825032230
         H            3.981283797550    -0.817214327295     0.466646678402     1.007825032230
         H            2.451145797550    -1.606584327295     0.869949678402     1.007825032230
         H            2.833700797550    -0.026194327295     1.564388678402     1.007825032230
         H           -1.527757202450     2.719980672705     0.364742678402     1.007825032230
         H           -2.996033202450     0.725967672705     0.423558678402     1.007825032230

  Basis Set: AUG-CC-PVTZ
    Blend: AUG-CC-PVTZ
  Basis Set: (AUG-CC-PVTZ AUX)
    Blend: AUG-CC-PVTZ-JKFIT
	 Reference Energy          =    -399.7658540909068279 [Eh]
	 Singles Energy            =      -0.0000000000000000 [Eh]
	 Same-Spin Energy          =      -0.4247545057313979 [Eh]
	 Opposite-Spin Energy      =      -1.3403092325300769 [Eh]
	 Correlation Energy        =      -1.7650637382614749 [Eh]
	 Total Energy              =    -401.5309178291682883 [Eh]

	 ================> DF-SCS-MP2 Energies <==================
	-----------------------------------------------------------
	 SCS Same-Spin Scale       =       0.3333333333333333 [-]
	 SCS Opposite-Spin Scale   =       1.2000000000000000 [-]
	 SCS Same-Spin Energy      =      -0.1415848352437993 [Eh]
	 SCS Opposite-Spin Energy  =      -1.6083710790360923 [Eh]
	 SCS Correlation Energy    =      -1.7499559142798917 [Eh]
	 SCS Total Energy          =    -401.5158100051867223 [Eh]
	-----------------------------------------------------------

  Dipole Moment: [D]
     X:     4.3038      Y:     2.5036      Z:    -0.2982     Total:     4.9880

*** Psi4 exiting successfully. Buy a developer a beer!
