                               Psi4 1.3.2 release

  ==> Input File <==

--------------------------------------------------------------------------
#psi4
#
memory 32 gb

molecule  {
0 1
  O       -2.1484710    -1.7769200    -0.0056360
  N       -0.1180990    -0.7430760    -0.2511680
  C        0.7239059     0.3201907    -0.3172382
  C        2.1818620     0.0407190    -0.5352160
  C        0.2064650     1.5802430    -0.0751780
  C        2.8433400    -0.6629840     0.6549670
  C       -1.5021630    -0.7229610    -0.0075890
  C       -1.1865830     1.7077900     0.1829230
  C       -2.0093520     0.6149060     0.2198470
  H        2.2852110    -0.5739760    -1.4389020
  H        2.6915310     0.9874470    -0.7394040
  H        0.2447490    -1.6791740    -0.4204020
  H        0.8548030     2.4492830    -0.1032540
  H        3.9041830    -0.8397700     0.4571160
  H        2.3740450    -1.6291400     0.8604190
  H        2.7566000    -0.0487500     1.5548580
  H       -1.6048580     2.6974250     0.3552120
  H       -3.0731340     0.7034120     0.4140280
units angstrom
no_reorient  #important for SAPT in psi4, default
symmetry c1  #important for SAPT in psi4, default
}

set PROPERTIES_ORIGIN ["COM"]
properties('MP2/aug-cc-pvtz', properties = ['dipole'])
--------------------------------------------------------------------------

    Molecular point group: c1
  Charge       = 0
  Multiplicity = 1
  Basis Set: AUG-CC-PVTZ
    Blend: AUG-CC-PVTZ
  Basis Set: (AUG-CC-PVTZ AUX)
    Blend: AUG-CC-PVTZ-JKFIT

    Orbital Energies [Eh]
    ---------------------

    Doubly Occupied:

       1A    -20.506849     2A    -15.622298     3A    -11.351439
       4A    -11.316494     5A    -11.270006     6A    -11.261932
       7A    -11.242875     8A    -11.235459     9A    -11.232851
      10A     -1.368022    11A     -1.276663    12A     -1.101546
      13A     -1.087507    14A     -1.003108    15A     -0.903181
      16A     -0.866912    17A     -0.836966    18A     -0.737766
      19A     -0.692066    20A     -0.661609    21A     -0.638908
      22A     -0.627111    23A     -0.611979    24A     -0.599451
      25A     -0.563685    26A     -0.553006    27A     -0.541336
      28A     -0.526004    29A     -0.509357    30A     -0.469666
      31A     -0.421196    32A     -0.420523    33A     -0.304931

  @DF-RHF Final Energy:  -399.78268739253315

   => Energetics <=

    Nuclear Repulsion Energy =            426.6315661584091572
    One-Electron Energy =               -1388.1031057174629950
    Two-Electron Energy =                 561.6888521665206326
    Total Energy =                       -399.7826873925331483
  Basis Set: (AUG-CC-PVTZ AUX)
    Blend: AUG-CC-PVTZ-RI
    Molecular point group: c1

    Geometry (in Angstrom), charge = 0, multiplicity = 1:

       Center              X                  Y                   Z               Mass
    ------------   -----------------  -----------------  -----------------  -----------------
         O           -2.063852286434    -1.758968537116     0.004033888777    15.994914619570
         N           -0.033480286434    -0.725124537116    -0.241498111223    14.003074004430
         C            0.808524613566     0.338142162884    -0.307568311223    12.000000000000
         C            2.266480713566     0.058670462884    -0.525546111223    12.000000000000
         C            0.291083713566     1.598194462884    -0.065508111223    12.000000000000
         C            2.927958713566    -0.645032537116     0.664636888777    12.000000000000
         C           -1.417544286434    -0.705009537116     0.002080888777    12.000000000000
         C           -1.101964286434     1.725741462884     0.192592888777    12.000000000000
         C           -1.924733286434     0.632857462884     0.229516888777    12.000000000000
         H            2.369829713566    -0.556024537116    -1.429232111223     1.007825032230
         H            2.776149713566     1.005398462884    -0.729734111223     1.007825032230
         H            0.329367713566    -1.661222537116    -0.410732111223     1.007825032230
         H            0.939421713566     2.467234462884    -0.093584111223     1.007825032230
         H            3.988801713566    -0.821818537116     0.466785888777     1.007825032230
         H            2.458663713566    -1.611188537116     0.870088888777     1.007825032230
         H            2.841218713566    -0.030798537116     1.564527888777     1.007825032230
         H           -1.520239286434     2.715376462884     0.364881888777     1.007825032230
         H           -2.988515286434     0.721363462884     0.423697888777     1.007825032230

  Basis Set: AUG-CC-PVTZ
    Blend: AUG-CC-PVTZ
  Basis Set: (AUG-CC-PVTZ AUX)
    Blend: AUG-CC-PVTZ-JKFIT
	 Reference Energy          =    -399.7826873925331483 [Eh]
	 Singles Energy            =      -0.0000000000000000 [Eh]
	 Same-Spin Energy          =      -0.4224727254390780 [Eh]
	 Opposite-Spin Energy      =      -1.3372630168370110 [Eh]
	 Correlation Energy        =      -1.7597357422760891 [Eh]
	 Total Energy              =    -401.5424231348092121 [Eh]

	 ================> DF-SCS-MP2 Energies <==================
	-----------------------------------------------------------
	 SCS Same-Spin Scale       =       0.3333333333333333 [-]
	 SCS Opposite-Spin Scale   =       1.2000000000000000 [-]
	 SCS Same-Spin Energy      =      -0.1408242418130260 [Eh]
	 SCS Opposite-Spin Energy  =      -1.6047156202044131 [Eh]
	 SCS Correlation Energy    =      -1.7455398620174392 [Eh]
	 SCS Total Energy          =    -401.5282272545505862 [Eh]
	-----------------------------------------------------------

  Dipole Moment: [D]
     X:     4.1127      Y:     2.5387      Z:    -0.2761     Total:     4.8410

*** Psi4 exiting successfully. Buy a developer a beer!
