                               Psi4 1.3.2 release

  ==> Input File <==

--------------------------------------------------------------------------
#psi4
#
memory 32 gb

molecule  {
0 1
  O       -2.1484710    -1.7769200    -0.0056360
  N       -0.1180990    -0.7430760    -0.2511680
  C        0.7299860     0.3339780    -0.2958210
  C        2.1818620     0.0407190    -0.5352160
  C        0.2064650     1.5802430    -0.0751780
  C        2.8433400    -0.6629840     0.6549670
  C       -1.5029494    -0.7717164    -0.0129714
  C       -1.1865830     1.7077900     0.1829230
  C       -2.0093520     0.6149060     0.2198470
  H        2.2852110    -0.5739760    -1.4389020
  H        2.6915310     0.9874470    -0.7394040
  H        0.2447490    -1.6791740    -0.4204020
  H        0.8548030     2.4492830    -0.1032540
  H        3.9041830    -0.8397700     0.4571160
  H        2.3740450    -1.6291400     0.8604190
  H        2.7566000    -0.0487500     1.5548580
  H       -1.6048580     2.6974250     0.3552120
  H       -3.0731340     0.7034120     0.4140280
units angstrom
no_reorient  #important for SAPT in psi4, default
symmetry c1  #important for SAPT in psi4, default
}

set PROPERTIES_ORIGIN ["COM"]
properties('MP2/aug-cc-pvtz', properties = ['dipole'])
--------------------------------------------------------------------------

    Molecular point group: c1
  Charge       = 0
  Multiplicity = 1
  Basis Set: AUG-CC-PVTZ
    Blend: AUG-CC-PVTZ
  Basis Set: (AUG-CC-PVTZ AUX)
    Blend: AUG-CC-PVTZ-JKFIT

    Orbital Energies [Eh]
    ---------------------

    Doubly Occupied:

       1A    -20.516916     2A    -15.616112     3A    -11.352636
       4A    -11.311541     5A    -11.264756     6A    -11.259395
       7A    -11.240482     8A    -11.234167     9A    -11.231808
      10A     -1.394284    11A     -1.276390    12A     -1.098219
      13A     -1.083623    14A     -0.999054    15A     -0.897866
      16A     -0.860482    17A     -0.834445    18A     -0.732078
      19A     -0.689955    20A     -0.662693    21A     -0.635931
      22A     -0.626627    23A     -0.618884    24A     -0.601946
      25A     -0.563078    26A     -0.553909    27A     -0.541321
      28A     -0.524705    29A     -0.509890    30A     -0.478988
      31A     -0.423363    32A     -0.417000    33A     -0.304825

  @DF-RHF Final Energy:  -399.78269355827956

   => Energetics <=

    Nuclear Repulsion Energy =            426.5762523459792988
    One-Electron Energy =               -1388.0031560745042043
    Two-Electron Energy =                 561.6442101702452874
    Total Energy =                       -399.7826935582795613
  Basis Set: (AUG-CC-PVTZ AUX)
    Blend: AUG-CC-PVTZ-RI
    Molecular point group: c1

    Geometry (in Angstrom), charge = 0, multiplicity = 1:

       Center              X                  Y                   Z               Mass
    ------------   -----------------  -----------------  -----------------  -----------------
         O           -2.064368457871    -1.755558911635     0.002470387681    15.994914619570
         N           -0.033996457871    -0.721714911635    -0.243061612319    14.003074004430
         C            0.814088542129     0.355339088365    -0.287714612319    12.000000000000
         C            2.265964542129     0.062080088365    -0.527109612319    12.000000000000
         C            0.290567542129     1.601604088365    -0.067071612319    12.000000000000
         C            2.927442542129    -0.641622911635     0.663073387681    12.000000000000
         C           -1.418846857871    -0.750355311635    -0.004865012319    12.000000000000
         C           -1.102480457871     1.729151088365     0.191029387681    12.000000000000
         C           -1.925249457871     0.636267088365     0.227953387681    12.000000000000
         H            2.369313542129    -0.552614911635    -1.430795612319     1.007825032230
         H            2.775633542129     1.008808088365    -0.731297612319     1.007825032230
         H            0.328851542129    -1.657812911635    -0.412295612319     1.007825032230
         H            0.938905542129     2.470644088365    -0.095147612319     1.007825032230
         H            3.988285542129    -0.818408911635     0.465222387681     1.007825032230
         H            2.458147542129    -1.607778911635     0.868525387681     1.007825032230
         H            2.840702542129    -0.027388911635     1.562964387681     1.007825032230
         H           -1.520755457871     2.718786088365     0.363318387681     1.007825032230
         H           -2.989031457871     0.724773088365     0.422134387681     1.007825032230

  Basis Set: AUG-CC-PVTZ
    Blend: AUG-CC-PVTZ
  Basis Set: (AUG-CC-PVTZ AUX)
    Blend: AUG-CC-PVTZ-JKFIT
	 Reference Energy          =    -399.7826935582795613 [Eh]
	 Singles Energy            =      -0.0000000000000000 [Eh]
	 Same-Spin Energy          =      -0.4210533884314365 [Eh]
	 Opposite-Spin Energy      =      -1.3356938655700199 [Eh]
	 Correlation Energy        =      -1.7567472540014564 [Eh]
	 Total Energy              =    -401.5394408122810432 [Eh]

	 ================> DF-SCS-MP2 Energies <==================
	-----------------------------------------------------------
	 SCS Same-Spin Scale       =       0.3333333333333333 [-]
	 SCS Opposite-Spin Scale   =       1.2000000000000000 [-]
	 SCS Same-Spin Energy      =      -0.1403511294771455 [Eh]
	 SCS Opposite-Spin Energy  =      -1.6028326386840239 [Eh]
	 SCS Correlation Energy    =      -1.7431837681611695 [Eh]
	 SCS Total Energy          =    -401.5258773264407068 [Eh]
	-----------------------------------------------------------

  Dipole Moment: [D]
     X:     3.8610      Y:     2.2202      Z:    -0.2790     Total:     4.4626

*** Psi4 exiting successfully. Buy a developer a beer!
