                               Psi4 1.3.2 release

  ==> Input File <==

--------------------------------------------------------------------------
#psi4
#
memory 32 gb

molecule  {
0 1
  O       -2.1484710    -1.7769200    -0.0056360
  N       -0.1180990    -0.7430760    -0.2511680
  C        0.7343021     0.3120178    -0.2484720
  C        2.1818620     0.0407190    -0.5352160
  C        0.2064650     1.5802430    -0.0751780
  C        2.8433400    -0.6629840     0.6549670
  C       -1.5021630    -0.7229610    -0.0075890
  C       -1.1865830     1.7077900     0.1829230
  C       -2.0093520     0.6149060     0.2198470
  H        2.2852110    -0.5739760    -1.4389020
  H        2.6915310     0.9874470    -0.7394040
  H        0.2447490    -1.6791740    -0.4204020
  H        0.8548030     2.4492830    -0.1032540
  H        3.9041830    -0.8397700     0.4571160
  H        2.3740450    -1.6291400     0.8604190
  H        2.7566000    -0.0487500     1.5548580
  H       -1.6048580     2.6974250     0.3552120
  H       -3.0731340     0.7034120     0.4140280
units angstrom
no_reorient  #important for SAPT in psi4, default
symmetry c1  #important for SAPT in psi4, default
}

set PROPERTIES_ORIGIN ["COM"]
properties('MP2/aug-cc-pvtz', properties = ['dipole'])
--------------------------------------------------------------------------

    Molecular point group: c1
  Charge       = 0
  Multiplicity = 1
  Basis Set: AUG-CC-PVTZ
    Blend: AUG-CC-PVTZ
  Basis Set: (AUG-CC-PVTZ AUX)
    Blend: AUG-CC-PVTZ-JKFIT

    Orbital Energies [Eh]
    ---------------------

    Doubly Occupied:

       1A    -20.506803     2A    -15.622574     3A    -11.351389
       4A    -11.316687     5A    -11.269888     6A    -11.262061
       7A    -11.242147     8A    -11.235338     9A    -11.232551
      10A     -1.368117    11A     -1.277191    12A     -1.101466
      13A     -1.088280    14A     -1.002768    15A     -0.901849
      16A     -0.866670    17A     -0.837517    18A     -0.738053
      19A     -0.692328    20A     -0.663563    21A     -0.639471
      22A     -0.626564    23A     -0.611681    24A     -0.600673
      25A     -0.561827    26A     -0.552926    27A     -0.541853
      28A     -0.525403    29A     -0.509680    30A     -0.469695
      31A     -0.421267    32A     -0.420308    33A     -0.304576

  @DF-RHF Final Energy:  -399.78206465872324

   => Energetics <=

    Nuclear Repulsion Energy =            426.7875659883261505
    One-Electron Energy =               -1388.4129322084233991
    Two-Electron Energy =                 561.8433015613740054
    Total Energy =                       -399.7820646587232432
  Basis Set: (AUG-CC-PVTZ AUX)
    Blend: AUG-CC-PVTZ-RI
    Molecular point group: c1

    Geometry (in Angstrom), charge = 0, multiplicity = 1:

       Center              X                  Y                   Z               Mass
    ------------   -----------------  -----------------  -----------------  -----------------
         O           -2.064865986019    -1.758171624270    -0.002671279298    15.994914619570
         N           -0.034493986019    -0.724327624270    -0.248203279298    14.003074004430
         C            0.817907113981     0.330766175730    -0.245507279298    12.000000000000
         C            2.265467013981     0.059467375730    -0.532251279298    12.000000000000
         C            0.290070013981     1.598991375730    -0.072213279298    12.000000000000
         C            2.926945013981    -0.644235624270     0.657931720702    12.000000000000
         C           -1.418557986019    -0.704212624270    -0.004624279298    12.000000000000
         C           -1.102977986019     1.726538375730     0.185887720702    12.000000000000
         C           -1.925746986019     0.633654375730     0.222811720702    12.000000000000
         H            2.368816013981    -0.555227624270    -1.435937279298     1.007825032230
         H            2.775136013981     1.006195375730    -0.736439279298     1.007825032230
         H            0.328354013981    -1.660425624270    -0.417437279298     1.007825032230
         H            0.938408013981     2.468031375730    -0.100289279298     1.007825032230
         H            3.987788013981    -0.821021624270     0.460080720702     1.007825032230
         H            2.457650013981    -1.610391624270     0.863383720702     1.007825032230
         H            2.840205013981    -0.030001624270     1.557822720702     1.007825032230
         H           -1.521252986019     2.716173375730     0.358176720702     1.007825032230
         H           -2.989528986019     0.722160375730     0.416992720702     1.007825032230

  Basis Set: AUG-CC-PVTZ
    Blend: AUG-CC-PVTZ
  Basis Set: (AUG-CC-PVTZ AUX)
    Blend: AUG-CC-PVTZ-JKFIT
	 Reference Energy          =    -399.7820646587232432 [Eh]
	 Singles Energy            =      -0.0000000000000000 [Eh]
	 Same-Spin Energy          =      -0.4225323633130035 [Eh]
	 Opposite-Spin Energy      =      -1.3373588157913692 [Eh]
	 Correlation Energy        =      -1.7598911791043728 [Eh]
	 Total Energy              =    -401.5419558378276292 [Eh]

	 ================> DF-SCS-MP2 Energies <==================
	-----------------------------------------------------------
	 SCS Same-Spin Scale       =       0.3333333333333333 [-]
	 SCS Opposite-Spin Scale   =       1.2000000000000000 [-]
	 SCS Same-Spin Energy      =      -0.1408441211043345 [Eh]
	 SCS Opposite-Spin Energy  =      -1.6048305789496429 [Eh]
	 SCS Correlation Energy    =      -1.7456747000539774 [Eh]
	 SCS Total Energy          =    -401.5277393587772394 [Eh]
	-----------------------------------------------------------

  Dipole Moment: [D]
     X:     4.1163      Y:     2.5390      Z:    -0.2936     Total:     4.8453

*** Psi4 exiting successfully. Buy a developer a beer!
