                               Psi4 1.3.2 release

  ==> Input File <==

--------------------------------------------------------------------------
#psi4
#
memory 32 gb

molecule  {
0 1
  O       -2.1484710    -1.7769200    -0.0056360
  N       -0.1180990    -0.7430760    -0.2511680
  C        0.7299860     0.3339780    -0.2958210
  C        1.9883325     0.0798093    -0.5033056
  C        0.2064650     1.5802430    -0.0751780
  C        2.8433400    -0.6629840     0.6549670
  C       -1.5021630    -0.7229610    -0.0075890
  C       -1.1865830     1.7077900     0.1829230
  C       -2.0093520     0.6149060     0.2198470
  H        2.2852110    -0.5739760    -1.4389020
  H        2.6915310     0.9874470    -0.7394040
  H        0.2447490    -1.6791740    -0.4204020
  H        0.8548030     2.4492830    -0.1032540
  H        3.9041830    -0.8397700     0.4571160
  H        2.3740450    -1.6291400     0.8604190
  H        2.7566000    -0.0487500     1.5548580
  H       -1.6048580     2.6974250     0.3552120
  H       -3.0731340     0.7034120     0.4140280
units angstrom
no_reorient  #important for SAPT in psi4, default
symmetry c1  #important for SAPT in psi4, default
}

set PROPERTIES_ORIGIN ["COM"]
properties('MP2/aug-cc-pvtz', properties = ['dipole'])
--------------------------------------------------------------------------

    Molecular point group: c1
  Charge       = 0
  Multiplicity = 1
  Basis Set: AUG-CC-PVTZ
    Blend: AUG-CC-PVTZ
  Basis Set: (AUG-CC-PVTZ AUX)
    Blend: AUG-CC-PVTZ-JKFIT

    Orbital Energies [Eh]
    ---------------------

    Doubly Occupied:

       1A    -20.507469     2A    -15.618265     3A    -11.351531
       4A    -11.303463     5A    -11.270856     6A    -11.263438
       7A    -11.250575     8A    -11.237303     9A    -11.235552
      10A     -1.368025    11A     -1.281275    12A     -1.111387
      13A     -1.100876    14A     -0.995907    15A     -0.920293
      16A     -0.870764    17A     -0.826687    18A     -0.736375
      19A     -0.698020    20A     -0.680107    21A     -0.642150
      22A     -0.623230    23A     -0.608672    24A     -0.598697
      25A     -0.571234    26A     -0.555459    27A     -0.541462
      28A     -0.524162    29A     -0.487998    30A     -0.453874
      31A     -0.422237    32A     -0.420395    33A     -0.305565

  @DF-RHF Final Energy:  -399.73080147970097

   => Energetics <=

    Nuclear Repulsion Energy =            429.6929429220207339
    One-Electron Energy =               -1394.0808823832842336
    Two-Electron Energy =                 564.6571379815625278
    Total Energy =                       -399.7308014797009719
  Basis Set: (AUG-CC-PVTZ AUX)
    Blend: AUG-CC-PVTZ-RI
    Molecular point group: c1

    Geometry (in Angstrom), charge = 0, multiplicity = 1:

       Center              X                  Y                   Z               Mass
    ------------   -----------------  -----------------  -----------------  -----------------
         O           -2.045574706278    -1.764124459581    -0.001165911722    15.994914619570
         N           -0.015202706278    -0.730280459581    -0.246697911722    14.003074004430
         C            0.832882293722     0.346773540419    -0.291350911722    12.000000000000
         C            2.091228793722     0.092604840419    -0.498835511722    12.000000000000
         C            0.309361293722     1.593038540419    -0.070707911722    12.000000000000
         C            2.946236293722    -0.650188459581     0.659437088278    12.000000000000
         C           -1.399266706278    -0.710165459581    -0.003118911722    12.000000000000
         C           -1.083686706278     1.720585540419     0.187393088278    12.000000000000
         C           -1.906455706278     0.627701540419     0.224317088278    12.000000000000
         H            2.388107293722    -0.561180459581    -1.434431911722     1.007825032230
         H            2.794427293722     1.000242540419    -0.734933911722     1.007825032230
         H            0.347645293722    -1.666378459581    -0.415931911722     1.007825032230
         H            0.957699293722     2.462078540419    -0.098783911722     1.007825032230
         H            4.007079293722    -0.826974459581     0.461586088278     1.007825032230
         H            2.476941293722    -1.616344459581     0.864889088278     1.007825032230
         H            2.859496293722    -0.035954459581     1.559328088278     1.007825032230
         H           -1.501961706278     2.710220540419     0.359682088278     1.007825032230
         H           -2.970237706278     0.716207540419     0.418498088278     1.007825032230

  Basis Set: AUG-CC-PVTZ
    Blend: AUG-CC-PVTZ
  Basis Set: (AUG-CC-PVTZ AUX)
    Blend: AUG-CC-PVTZ-JKFIT
	 Reference Energy          =    -399.7308014797009719 [Eh]
	 Singles Energy            =      -0.0000000000000000 [Eh]
	 Same-Spin Energy          =      -0.4257024779778876 [Eh]
	 Opposite-Spin Energy      =      -1.3421187550956413 [Eh]
	 Correlation Energy        =      -1.7678212330735290 [Eh]
	 Total Energy              =    -401.4986227127744769 [Eh]

	 ================> DF-SCS-MP2 Energies <==================
	-----------------------------------------------------------
	 SCS Same-Spin Scale       =       0.3333333333333333 [-]
	 SCS Opposite-Spin Scale   =       1.2000000000000000 [-]
	 SCS Same-Spin Energy      =      -0.1419008259926292 [Eh]
	 SCS Opposite-Spin Energy  =      -1.6105425061147696 [Eh]
	 SCS Correlation Energy    =      -1.7524433321073989 [Eh]
	 SCS Total Energy          =    -401.4832448118083903 [Eh]
	-----------------------------------------------------------

  Dipole Moment: [D]
     X:     4.0669      Y:     2.6132      Z:    -0.2378     Total:     4.8399

*** Psi4 exiting successfully. Buy a developer a beer!
