                               Psi4 1.3.2 release

  ==> Input File <==

--------------------------------------------------------------------------
#psi4
#
memory 32 gb

molecule  {
0 1
  O       -2.1484710    -1.7769200    -0.0056360
  N       -0.1180990    -0.7430760    -0.2511680
  C        0.7403819     0.2897271    -0.2014723
  C        2.1818620     0.0407190    -0.5352160
  C        0.2064650     1.5802430    -0.0751780
  C        2.8433400    -0.6629840     0.6549670
  C       -1.5021630    -0.7229610    -0.0075890
  C       -1.1865830     1.7077900     0.1829230
  C       -2.0093520     0.6149060     0.2198470
  H        2.2852110    -0.5739760    -1.4389020
  H        2.6915310     0.9874470    -0.7394040
  H        0.2447490    -1.6791740    -0.4204020
  H        0.8548030     2.4492830    -0.1032540
  H        3.9041830    -0.8397700     0.4571160
  H        2.3740450    -1.6291400     0.8604190
  H        2.7566000    -0.0487500     1.5548580
  H       -1.6048580     2.6974250     0.3552120
  H       -3.0731340     0.7034120     0.4140280
units angstrom
no_reorient  #important for SAPT in psi4, default
symmetry c1  #important for SAPT in psi4, default
}

set PROPERTIES_ORIGIN ["COM"]
properties('MP2/aug-cc-pvtz', properties = ['dipole'])
--------------------------------------------------------------------------

    Molecular point group: c1
  Charge       = 0
  Multiplicity = 1
  Basis Set: AUG-CC-PVTZ
    Blend: AUG-CC-PVTZ
  Basis Set: (AUG-CC-PVTZ AUX)
    Blend: AUG-CC-PVTZ-JKFIT

    Orbital Energies [Eh]
    ---------------------

    Doubly Occupied:

       1A    -20.506779     2A    -15.624879     3A    -11.351603
       4A    -11.318832     5A    -11.269260     6A    -11.262726
       7A    -11.242055     8A    -11.236242     9A    -11.231370
      10A     -1.369218    11A     -1.281240    12A     -1.100269
      13A     -1.089223    14A     -1.000828    15A     -0.901006
      16A     -0.866060    17A     -0.840766    18A     -0.738554
      19A     -0.692134    20A     -0.664495    21A     -0.641377
      22A     -0.626536    23A     -0.611828    24A     -0.601830
      25A     -0.560350    26A     -0.552526    27A     -0.542754
      28A     -0.525817    29A     -0.507974    30A     -0.469978
      31A     -0.421546    32A     -0.420239    33A     -0.301523

  @DF-RHF Final Energy:  -399.77768874433349

   => Energetics <=

    Nuclear Repulsion Energy =            426.8878287206244977
    One-Electron Energy =               -1388.5873953522775537
    Two-Electron Energy =                 561.9218778873195106
    Total Energy =                       -399.7776887443335454
  Basis Set: (AUG-CC-PVTZ AUX)
    Blend: AUG-CC-PVTZ-RI
    Molecular point group: c1

    Geometry (in Angstrom), charge = 0, multiplicity = 1:

       Center              X                  Y                   Z               Mass
    ------------   -----------------  -----------------  -----------------  -----------------
         O           -2.065458807504    -1.755998130751    -0.007254066888    15.994914619570
         N           -0.035086807504    -0.722154130751    -0.252786066888    14.003074004430
         C            0.823394092496     0.310648969249    -0.203090366888    12.000000000000
         C            2.264874192496     0.061640869249    -0.536834066888    12.000000000000
         C            0.289477192496     1.601164869249    -0.076796066888    12.000000000000
         C            2.926352192496    -0.642062130751     0.653348933112    12.000000000000
         C           -1.419150807504    -0.702039130751    -0.009207066888    12.000000000000
         C           -1.103570807504     1.728711869249     0.181304933112    12.000000000000
         C           -1.926339807504     0.635827869249     0.218228933112    12.000000000000
         H            2.368223192496    -0.553054130751    -1.440520066888     1.007825032230
         H            2.774543192496     1.008368869249    -0.741022066888     1.007825032230
         H            0.327761192496    -1.658252130751    -0.422020066888     1.007825032230
         H            0.937815192496     2.470204869249    -0.104872066888     1.007825032230
         H            3.987195192496    -0.818848130751     0.455497933112     1.007825032230
         H            2.457057192496    -1.608218130751     0.858800933112     1.007825032230
         H            2.839612192496    -0.027828130751     1.553239933112     1.007825032230
         H           -1.521845807504     2.718346869249     0.353593933112     1.007825032230
         H           -2.990121807504     0.724333869249     0.412409933112     1.007825032230

  Basis Set: AUG-CC-PVTZ
    Blend: AUG-CC-PVTZ
  Basis Set: (AUG-CC-PVTZ AUX)
    Blend: AUG-CC-PVTZ-JKFIT
	 Reference Energy          =    -399.7776887443334886 [Eh]
	 Singles Energy            =      -0.0000000000000000 [Eh]
	 Same-Spin Energy          =      -0.4230013493279839 [Eh]
	 Opposite-Spin Energy      =      -1.3379232137443529 [Eh]
	 Correlation Energy        =      -1.7609245630723369 [Eh]
	 Total Energy              =    -401.5386133074058534 [Eh]

	 ================> DF-SCS-MP2 Energies <==================
	-----------------------------------------------------------
	 SCS Same-Spin Scale       =       0.3333333333333333 [-]
	 SCS Opposite-Spin Scale   =       1.2000000000000000 [-]
	 SCS Same-Spin Energy      =      -0.1410004497759946 [Eh]
	 SCS Opposite-Spin Energy  =      -1.6055078564932235 [Eh]
	 SCS Correlation Energy    =      -1.7465083062692182 [Eh]
	 SCS Total Energy          =    -401.5241970506027087 [Eh]
	-----------------------------------------------------------

  Dipole Moment: [D]
     X:     4.1275      Y:     2.5110      Z:    -0.3115     Total:     4.8413

*** Psi4 exiting successfully. Buy a developer a beer!
