                               Psi4 1.3.2 release

  ==> Input File <==

--------------------------------------------------------------------------
#psi4
#
memory 32 gb

molecule  {
0 1
  O       -2.1484710    -1.7769200    -0.0056360
  N       -0.2241325    -0.6490611    -0.2281491
  C        0.7299860     0.3339780    -0.2958210
  C        2.1818620     0.0407190    -0.5352160
  C        0.2064650     1.5802430    -0.0751780
  C        2.8433400    -0.6629840     0.6549670
  C       -1.5021630    -0.7229610    -0.0075890
  C       -1.1865830     1.7077900     0.1829230
  C       -2.0093520     0.6149060     0.2198470
  H        2.2852110    -0.5739760    -1.4389020
  H        2.6915310     0.9874470    -0.7394040
  H        0.2447490    -1.6791740    -0.4204020
  H        0.8548030     2.4492830    -0.1032540
  H        3.9041830    -0.8397700     0.4571160
  H        2.3740450    -1.6291400     0.8604190
  H        2.7566000    -0.0487500     1.5548580
  H       -1.6048580     2.6974250     0.3552120
  H       -3.0731340     0.7034120     0.4140280
units angstrom
no_reorient  #important for SAPT in psi4, default
symmetry c1  #important for SAPT in psi4, default
}

set PROPERTIES_ORIGIN ["COM"]
properties('MP2/aug-cc-pvtz', properties = ['dipole'])
--------------------------------------------------------------------------

    Molecular point group: c1
  Charge       = 0
  Multiplicity = 1
  Basis Set: AUG-CC-PVTZ
    Blend: AUG-CC-PVTZ
  Basis Set: (AUG-CC-PVTZ AUX)
    Blend: AUG-CC-PVTZ-JKFIT

    Orbital Energies [Eh]
    ---------------------

    Doubly Occupied:

       1A    -20.494585     2A    -15.630696     3A    -11.337806
       4A    -11.315547     5A    -11.268281     6A    -11.265498
       7A    -11.245172     8A    -11.238643     9A    -11.233550
      10A     -1.373220    11A     -1.279121    12A     -1.104178
      13A     -1.092287    14A     -1.013965    15A     -0.903093
      16A     -0.868553    17A     -0.848791    18A     -0.721553
      19A     -0.693148    20A     -0.655934    21A     -0.636159
      22A     -0.628162    23A     -0.613093    24A     -0.606940
      25A     -0.564471    26A     -0.547579    27A     -0.537691
      28A     -0.530173    29A     -0.506788    30A     -0.465626
      31A     -0.415867    32A     -0.415595    33A     -0.311157

  @DF-RHF Final Energy:  -399.75353250106366

   => Energetics <=

    Nuclear Repulsion Energy =            428.5775754216739415
    One-Electron Energy =               -1391.9363746664414521
    Two-Electron Energy =                 563.6052667437038508
    Total Energy =                       -399.7535325010636598
  Basis Set: (AUG-CC-PVTZ AUX)
    Blend: AUG-CC-PVTZ-RI
    Molecular point group: c1

    Geometry (in Angstrom), charge = 0, multiplicity = 1:

       Center              X                  Y                   Z               Mass
    ------------   -----------------  -----------------  -----------------  -----------------
         O           -2.052380344101    -1.771010174406    -0.000673588485    15.994914619570
         N           -0.128041844101    -0.643151274406    -0.223186688485    14.003074004430
         C            0.826076655899     0.339887825594    -0.290858588485    12.000000000000
         C            2.277952655899     0.046628825594    -0.530253588485    12.000000000000
         C            0.302555655899     1.586152825594    -0.070215588485    12.000000000000
         C            2.939430655899    -0.657074174406     0.659929411515    12.000000000000
         C           -1.406072344101    -0.717051174406    -0.002626588485    12.000000000000
         C           -1.090492344101     1.713699825594     0.187885411515    12.000000000000
         C           -1.913261344101     0.620815825594     0.224809411515    12.000000000000
         H            2.381301655899    -0.568066174406    -1.433939588485     1.007825032230
         H            2.787621655899     0.993356825594    -0.734441588485     1.007825032230
         H            0.340839655899    -1.673264174406    -0.415439588485     1.007825032230
         H            0.950893655899     2.455192825594    -0.098291588485     1.007825032230
         H            4.000273655899    -0.833860174406     0.462078411515     1.007825032230
         H            2.470135655899    -1.623230174406     0.865381411515     1.007825032230
         H            2.852690655899    -0.042840174406     1.559820411515     1.007825032230
         H           -1.508767344101     2.703334825594     0.360174411515     1.007825032230
         H           -2.977043344101     0.709321825594     0.418990411515     1.007825032230

  Basis Set: AUG-CC-PVTZ
    Blend: AUG-CC-PVTZ
  Basis Set: (AUG-CC-PVTZ AUX)
    Blend: AUG-CC-PVTZ-JKFIT
	 Reference Energy          =    -399.7535325010636598 [Eh]
	 Singles Energy            =      -0.0000000000000000 [Eh]
	 Same-Spin Energy          =      -0.4242876146874347 [Eh]
	 Opposite-Spin Energy      =      -1.3403070139751649 [Eh]
	 Correlation Energy        =      -1.7645946286625995 [Eh]
	 Total Energy              =    -401.5181271297262811 [Eh]

	 ================> DF-SCS-MP2 Energies <==================
	-----------------------------------------------------------
	 SCS Same-Spin Scale       =       0.3333333333333333 [-]
	 SCS Opposite-Spin Scale   =       1.2000000000000000 [-]
	 SCS Same-Spin Energy      =      -0.1414292048958116 [Eh]
	 SCS Opposite-Spin Energy  =      -1.6083684167701979 [Eh]
	 SCS Correlation Energy    =      -1.7497976216660094 [Eh]
	 SCS Total Energy          =    -401.5033301227296647 [Eh]
	-----------------------------------------------------------

  Dipole Moment: [D]
     X:     4.5975      Y:     2.7654      Z:    -0.3168     Total:     5.3745

*** Psi4 exiting successfully. Buy a developer a beer!
