                               Psi4 1.3.2 release

  ==> Input File <==

--------------------------------------------------------------------------
#psi4
#
memory 32 gb

molecule  {
0 1
  O       -2.1484710    -1.7769200    -0.0056360
  N       -0.1180990    -0.7430760    -0.2511680
  C        0.7660353     0.3041126    -0.3058491
  C        2.1818620     0.0407190    -0.5352160
  C        0.2064650     1.5802430    -0.0751780
  C        2.8433400    -0.6629840     0.6549670
  C       -1.5021630    -0.7229610    -0.0075890
  C       -1.1865830     1.7077900     0.1829230
  C       -2.0093520     0.6149060     0.2198470
  H        2.2852110    -0.5739760    -1.4389020
  H        2.6915310     0.9874470    -0.7394040
  H        0.2447490    -1.6791740    -0.4204020
  H        0.8548030     2.4492830    -0.1032540
  H        3.9041830    -0.8397700     0.4571160
  H        2.3740450    -1.6291400     0.8604190
  H        2.7566000    -0.0487500     1.5548580
  H       -1.6048580     2.6974250     0.3552120
  H       -3.0731340     0.7034120     0.4140280
units angstrom
no_reorient  #important for SAPT in psi4, default
symmetry c1  #important for SAPT in psi4, default
}

set PROPERTIES_ORIGIN ["COM"]
properties('MP2/aug-cc-pvtz', properties = ['dipole'])
--------------------------------------------------------------------------

    Molecular point group: c1
  Charge       = 0
  Multiplicity = 1
  Basis Set: AUG-CC-PVTZ
    Blend: AUG-CC-PVTZ
  Basis Set: (AUG-CC-PVTZ AUX)
    Blend: AUG-CC-PVTZ-JKFIT

    Orbital Energies [Eh]
    ---------------------

    Doubly Occupied:

       1A    -20.506133     2A    -15.622404     3A    -11.351521
       4A    -11.320705     5A    -11.269711     6A    -11.261439
       7A    -11.244471     8A    -11.238420     9A    -11.232364
      10A     -1.366713    11A     -1.273214    12A     -1.099030
      13A     -1.095078    14A     -1.000325    15A     -0.907625
      16A     -0.864595    17A     -0.836429    18A     -0.734074
      19A     -0.691916    20A     -0.665243    21A     -0.640798
      22A     -0.627803    23A     -0.611141    24A     -0.599061
      25A     -0.564196    26A     -0.549423    27A     -0.543004
      28A     -0.531004    29A     -0.511006    30A     -0.466288
      31A     -0.421468    32A     -0.419362    33A     -0.301420

  @DF-RHF Final Energy:  -399.77784348886070

   => Energetics <=

    Nuclear Repulsion Energy =            426.3934321799664531
    One-Electron Energy =               -1387.6077868979109553
    Two-Electron Energy =                 561.4365112290837487
    Total Energy =                       -399.7778434888607535
  Basis Set: (AUG-CC-PVTZ AUX)
    Blend: AUG-CC-PVTZ-RI
    Molecular point group: c1

    Geometry (in Angstrom), charge = 0, multiplicity = 1:

       Center              X                  Y                   Z               Mass
    ------------   -----------------  -----------------  -----------------  -----------------
         O           -2.067960186942    -1.757400813978     0.002923374749    15.994914619570
         N           -0.037588186942    -0.723556813978    -0.242608625251    14.003074004430
         C            0.846546113058     0.323631786022    -0.297289725251    12.000000000000
         C            2.262372813058     0.060238186022    -0.526656625251    12.000000000000
         C            0.286975813058     1.599762186022    -0.066618625251    12.000000000000
         C            2.923850813058    -0.643464813978     0.663526374749    12.000000000000
         C           -1.421652186942    -0.703441813978     0.000970374749    12.000000000000
         C           -1.106072186942     1.727309186022     0.191482374749    12.000000000000
         C           -1.928841186942     0.634425186022     0.228406374749    12.000000000000
         H            2.365721813058    -0.554456813978    -1.430342625251     1.007825032230
         H            2.772041813058     1.006966186022    -0.730844625251     1.007825032230
         H            0.325259813058    -1.659654813978    -0.411842625251     1.007825032230
         H            0.935313813058     2.468802186022    -0.094694625251     1.007825032230
         H            3.984693813058    -0.820250813978     0.465675374749     1.007825032230
         H            2.454555813058    -1.609620813978     0.868978374749     1.007825032230
         H            2.837110813058    -0.029230813978     1.563417374749     1.007825032230
         H           -1.524347186942     2.716944186022     0.363771374749     1.007825032230
         H           -2.992623186942     0.722931186022     0.422587374749     1.007825032230

  Basis Set: AUG-CC-PVTZ
    Blend: AUG-CC-PVTZ
  Basis Set: (AUG-CC-PVTZ AUX)
    Blend: AUG-CC-PVTZ-JKFIT
	 Reference Energy          =    -399.7778434888606967 [Eh]
	 Singles Energy            =      -0.0000000000000000 [Eh]
	 Same-Spin Energy          =      -0.4233791718896042 [Eh]
	 Opposite-Spin Energy      =      -1.3385681098150679 [Eh]
	 Correlation Energy        =      -1.7619472817046722 [Eh]
	 Total Energy              =    -401.5397907705653893 [Eh]

	 ================> DF-SCS-MP2 Energies <==================
	-----------------------------------------------------------
	 SCS Same-Spin Scale       =       0.3333333333333333 [-]
	 SCS Opposite-Spin Scale   =       1.2000000000000000 [-]
	 SCS Same-Spin Energy      =      -0.1411263906298680 [Eh]
	 SCS Opposite-Spin Energy  =      -1.6062817317780815 [Eh]
	 SCS Correlation Energy    =      -1.7474081224079496 [Eh]
	 SCS Total Energy          =    -401.5252516112686294 [Eh]
	-----------------------------------------------------------

  Dipole Moment: [D]
     X:     4.1968      Y:     2.5402      Z:    -0.2862     Total:     4.9141

*** Psi4 exiting successfully. Buy a developer a beer!
