                               Psi4 1.3.2 release

  ==> Input File <==

--------------------------------------------------------------------------
#psi4
#
memory 32 gb

molecule  {
0 1
  O       -2.1484710    -1.7769200    -0.0056360
  N       -0.1180990    -0.7430760    -0.2511680
  C        0.7299860     0.3339780    -0.2958210
  C        2.1818620     0.0407190    -0.5352160
  C        0.2064650     1.5802430    -0.0751780
  C        2.8433400    -0.6629840     0.6549670
  C       -1.5020486    -0.8204370    -0.0186440
  C       -1.1865830     1.7077900     0.1829230
  C       -2.0093520     0.6149060     0.2198470
  H        2.2852110    -0.5739760    -1.4389020
  H        2.6915310     0.9874470    -0.7394040
  H        0.2447490    -1.6791740    -0.4204020
  H        0.8548030     2.4492830    -0.1032540
  H        3.9041830    -0.8397700     0.4571160
  H        2.3740450    -1.6291400     0.8604190
  H        2.7566000    -0.0487500     1.5548580
  H       -1.6048580     2.6974250     0.3552120
  H       -3.0731340     0.7034120     0.4140280
units angstrom
no_reorient  #important for SAPT in psi4, default
symmetry c1  #important for SAPT in psi4, default
}

set PROPERTIES_ORIGIN ["COM"]
properties('MP2/aug-cc-pvtz', properties = ['dipole'])
--------------------------------------------------------------------------

    Molecular point group: c1
  Charge       = 0
  Multiplicity = 1
  Basis Set: AUG-CC-PVTZ
    Blend: AUG-CC-PVTZ
  Basis Set: (AUG-CC-PVTZ AUX)
    Blend: AUG-CC-PVTZ-JKFIT

    Orbital Energies [Eh]
    ---------------------

    Doubly Occupied:

       1A    -20.526545     2A    -15.612575     3A    -11.353669
       4A    -11.308404     5A    -11.259027     6A    -11.257514
       7A    -11.238835     8A    -11.233286     9A    -11.228796
      10A     -1.425346    11A     -1.277683    12A     -1.095208
      13A     -1.079219    14A     -0.993896    15A     -0.893552
      16A     -0.853347    17A     -0.835306    18A     -0.727284
      19A     -0.689523    20A     -0.666376    21A     -0.638475
      22A     -0.627273    23A     -0.620758    24A     -0.606323
      25A     -0.564861    26A     -0.553346    27A     -0.541879
      28A     -0.524685    29A     -0.509332    30A     -0.486685
      31A     -0.420887    32A     -0.414013    33A     -0.301782

  @DF-RHF Final Energy:  -399.77384529686850

   => Energetics <=

    Nuclear Repulsion Energy =            426.5995322099486202
    One-Electron Energy =               -1388.0153750893289271
    Two-Electron Energy =                 561.6419975825117490
    Total Energy =                       -399.7738452968685579
  Basis Set: (AUG-CC-PVTZ AUX)
    Blend: AUG-CC-PVTZ-RI
    Molecular point group: c1

    Geometry (in Angstrom), charge = 0, multiplicity = 1:

       Center              X                  Y                   Z               Mass
    ------------   -----------------  -----------------  -----------------  -----------------
         O           -2.064456291944    -1.750808324694     0.003023504422    15.994914619570
         N           -0.034084291944    -0.716964324694    -0.242508495578    14.003074004430
         C            0.814000708056     0.360089675306    -0.287161495578    12.000000000000
         C            2.265876708056     0.066830675306    -0.526556495578    12.000000000000
         C            0.290479708056     1.606354675306    -0.066518495578    12.000000000000
         C            2.927354708056    -0.636872324694     0.663626504422    12.000000000000
         C           -1.418033891944    -0.794325324694    -0.009984495578    12.000000000000
         C           -1.102568291944     1.733901675306     0.191582504422    12.000000000000
         C           -1.925337291944     0.641017675306     0.228506504422    12.000000000000
         H            2.369225708056    -0.547864324694    -1.430242495578     1.007825032230
         H            2.775545708056     1.013558675306    -0.730744495578     1.007825032230
         H            0.328763708056    -1.653062324694    -0.411742495578     1.007825032230
         H            0.938817708056     2.475394675306    -0.094594495578     1.007825032230
         H            3.988197708056    -0.813658324694     0.465775504422     1.007825032230
         H            2.458059708056    -1.603028324694     0.869078504422     1.007825032230
         H            2.840614708056    -0.022638324694     1.563517504422     1.007825032230
         H           -1.520843291944     2.723536675306     0.363871504422     1.007825032230
         H           -2.989119291944     0.729523675306     0.422687504422     1.007825032230

  Basis Set: AUG-CC-PVTZ
    Blend: AUG-CC-PVTZ
  Basis Set: (AUG-CC-PVTZ AUX)
    Blend: AUG-CC-PVTZ-JKFIT
	 Reference Energy          =    -399.7738452968685010 [Eh]
	 Singles Energy            =      -0.0000000000000000 [Eh]
	 Same-Spin Energy          =      -0.4200584227200300 [Eh]
	 Opposite-Spin Energy      =      -1.3344886308396189 [Eh]
	 Correlation Energy        =      -1.7545470535596488 [Eh]
	 Total Energy              =    -401.5283923504281347 [Eh]

	 ================> DF-SCS-MP2 Energies <==================
	-----------------------------------------------------------
	 SCS Same-Spin Scale       =       0.3333333333333333 [-]
	 SCS Opposite-Spin Scale   =       1.2000000000000000 [-]
	 SCS Same-Spin Energy      =      -0.1400194742400100 [Eh]
	 SCS Opposite-Spin Energy  =      -1.6013863570075426 [Eh]
	 SCS Correlation Energy    =      -1.7414058312475527 [Eh]
	 SCS Total Energy          =    -401.5152511281160628 [Eh]
	-----------------------------------------------------------

  Dipole Moment: [D]
     X:     3.6395      Y:     1.8481      Z:    -0.2875     Total:     4.0919

*** Psi4 exiting successfully. Buy a developer a beer!
