                               Psi4 1.3.2 release

  ==> Input File <==

--------------------------------------------------------------------------
#psi4
#
memory 32 gb

molecule  {
0 1
  O       -2.1484710    -1.7769200    -0.0056360
  N       -0.0027737    -0.8252905    -0.2746762
  C        0.7299860     0.3339780    -0.2958210
  C        2.1818620     0.0407190    -0.5352160
  C        0.2064650     1.5802430    -0.0751780
  C        2.8433400    -0.6629840     0.6549670
  C       -1.5021630    -0.7229610    -0.0075890
  C       -1.1865830     1.7077900     0.1829230
  C       -2.0093520     0.6149060     0.2198470
  H        2.2852110    -0.5739760    -1.4389020
  H        2.6915310     0.9874470    -0.7394040
  H        0.2447490    -1.6791740    -0.4204020
  H        0.8548030     2.4492830    -0.1032540
  H        3.9041830    -0.8397700     0.4571160
  H        2.3740450    -1.6291400     0.8604190
  H        2.7566000    -0.0487500     1.5548580
  H       -1.6048580     2.6974250     0.3552120
  H       -3.0731340     0.7034120     0.4140280
units angstrom
no_reorient  #important for SAPT in psi4, default
symmetry c1  #important for SAPT in psi4, default
}

set PROPERTIES_ORIGIN ["COM"]
properties('MP2/aug-cc-pvtz', properties = ['dipole'])
--------------------------------------------------------------------------

    Molecular point group: c1
  Charge       = 0
  Multiplicity = 1
  Basis Set: AUG-CC-PVTZ
    Blend: AUG-CC-PVTZ
  Basis Set: (AUG-CC-PVTZ AUX)
    Blend: AUG-CC-PVTZ-JKFIT

    Orbital Energies [Eh]
    ---------------------

    Doubly Occupied:

       1A    -20.519813     2A    -15.607747     3A    -11.364047
       4A    -11.317483     5A    -11.275738     6A    -11.254410
       7A    -11.238734     8A    -11.236246     9A    -11.233844
      10A     -1.366608    11A     -1.269453    12A     -1.110102
      13A     -1.079157    14A     -1.000092    15A     -0.907770
      16A     -0.869673    17A     -0.817621    18A     -0.753911
      19A     -0.692238    20A     -0.669073    21A     -0.637837
      22A     -0.623662    23A     -0.606789    24A     -0.590792
      25A     -0.565690    26A     -0.557578    27A     -0.538696
      28A     -0.517802    29A     -0.510064    30A     -0.473568
      31A     -0.423770    32A     -0.420759    33A     -0.306267

  @DF-RHF Final Energy:  -399.75517684937199

   => Energetics <=

    Nuclear Repulsion Energy =            424.9113730802549753
    One-Electron Energy =               -1384.6190250248109805
    Two-Electron Energy =                 559.9524750951840133
    Total Energy =                       -399.7551768493719919
  Basis Set: (AUG-CC-PVTZ AUX)
    Blend: AUG-CC-PVTZ-RI
    Molecular point group: c1

    Geometry (in Angstrom), charge = 0, multiplicity = 1:

       Center              X                  Y                   Z               Mass
    ------------   -----------------  -----------------  -----------------  -----------------
         O           -2.077567177663    -1.750958292274     0.004620397224    15.994914619570
         N            0.068130122337    -0.799328792274    -0.264419802776    14.003074004430
         C            0.800889822337     0.359939707726    -0.285564602776    12.000000000000
         C            2.252765822337     0.066680707726    -0.524959602776    12.000000000000
         C            0.277368822337     1.606204707726    -0.064921602776    12.000000000000
         C            2.914243822337    -0.637022292274     0.665223397224    12.000000000000
         C           -1.431259177663    -0.696999292274     0.002667397224    12.000000000000
         C           -1.115679177663     1.733751707726     0.193179397224    12.000000000000
         C           -1.938448177663     0.640867707726     0.230103397224    12.000000000000
         H            2.356114822337    -0.548014292274    -1.428645602776     1.007825032230
         H            2.762434822337     1.013408707726    -0.729147602776     1.007825032230
         H            0.315652822337    -1.653212292274    -0.410145602776     1.007825032230
         H            0.925706822337     2.475244707726    -0.092997602776     1.007825032230
         H            3.975086822337    -0.813808292274     0.467372397224     1.007825032230
         H            2.444948822337    -1.603178292274     0.870675397224     1.007825032230
         H            2.827503822337    -0.022788292274     1.565114397224     1.007825032230
         H           -1.533954177663     2.723386707726     0.365468397224     1.007825032230
         H           -3.002230177663     0.729373707726     0.424284397224     1.007825032230

  Basis Set: AUG-CC-PVTZ
    Blend: AUG-CC-PVTZ
  Basis Set: (AUG-CC-PVTZ AUX)
    Blend: AUG-CC-PVTZ-JKFIT
	 Reference Energy          =    -399.7551768493719919 [Eh]
	 Singles Energy            =      -0.0000000000000000 [Eh]
	 Same-Spin Energy          =      -0.4217097381805171 [Eh]
	 Opposite-Spin Energy      =      -1.3380493733524428 [Eh]
	 Correlation Energy        =      -1.7597591115329598 [Eh]
	 Total Energy              =    -401.5149359609049498 [Eh]

	 ================> DF-SCS-MP2 Energies <==================
	-----------------------------------------------------------
	 SCS Same-Spin Scale       =       0.3333333333333333 [-]
	 SCS Opposite-Spin Scale   =       1.2000000000000000 [-]
	 SCS Same-Spin Energy      =      -0.1405699127268390 [Eh]
	 SCS Opposite-Spin Energy  =      -1.6056592480229313 [Eh]
	 SCS Correlation Energy    =      -1.7462291607497702 [Eh]
	 SCS Total Energy          =    -401.5014060101217410 [Eh]
	-----------------------------------------------------------

  Dipole Moment: [D]
     X:     3.5224      Y:     2.4588      Z:    -0.2138     Total:     4.3010

*** Psi4 exiting successfully. Buy a developer a beer!
