                               Psi4 1.3.2 release

  ==> Input File <==

--------------------------------------------------------------------------
#psi4
#
memory 32 gb

molecule  {
0 1
  O       -2.1484710    -1.7769200    -0.0056360
  N       -0.1180990    -0.7430760    -0.2511680
  C        0.7299860     0.3339780    -0.2958210
  C        2.2786268     0.0211738    -0.5511712
  C        0.2064650     1.5802430    -0.0751780
  C        2.8433400    -0.6629840     0.6549670
  C       -1.5021630    -0.7229610    -0.0075890
  C       -1.1865830     1.7077900     0.1829230
  C       -2.0093520     0.6149060     0.2198470
  H        2.2852110    -0.5739760    -1.4389020
  H        2.6915310     0.9874470    -0.7394040
  H        0.2447490    -1.6791740    -0.4204020
  H        0.8548030     2.4492830    -0.1032540
  H        3.9041830    -0.8397700     0.4571160
  H        2.3740450    -1.6291400     0.8604190
  H        2.7566000    -0.0487500     1.5548580
  H       -1.6048580     2.6974250     0.3552120
  H       -3.0731340     0.7034120     0.4140280
units angstrom
no_reorient  #important for SAPT in psi4, default
symmetry c1  #important for SAPT in psi4, default
}

set PROPERTIES_ORIGIN ["COM"]
properties('MP2/aug-cc-pvtz', properties = ['dipole'])
--------------------------------------------------------------------------

    Molecular point group: c1
  Charge       = 0
  Multiplicity = 1
  Basis Set: AUG-CC-PVTZ
    Blend: AUG-CC-PVTZ
  Basis Set: (AUG-CC-PVTZ AUX)
    Blend: AUG-CC-PVTZ-JKFIT

    Orbital Energies [Eh]
    ---------------------

    Doubly Occupied:

       1A    -20.505949     2A    -15.619907     3A    -11.350212
       4A    -11.316379     5A    -11.269751     6A    -11.263564
       7A    -11.240823     8A    -11.233611     9A    -11.232758
      10A     -1.365941    11A     -1.269118    12A     -1.100911
      13A     -1.084640    14A     -1.006935    15A     -0.896905
      16A     -0.865457    17A     -0.835886    18A     -0.736524
      19A     -0.690619    20A     -0.657769    21A     -0.637346
      22A     -0.630568    23A     -0.611241    24A     -0.597163
      25A     -0.565220    26A     -0.552563    27A     -0.550433
      28A     -0.527260    29A     -0.497100    30A     -0.471421
      31A     -0.419129    32A     -0.418540    33A     -0.306908

  @DF-RHF Final Energy:  -399.77574706571056

   => Energetics <=

    Nuclear Repulsion Energy =            425.2484473312707109
    One-Electron Energy =               -1385.3912865841941766
    Two-Electron Energy =                 560.3670921872129611
    Total Energy =                       -399.7757470657105614
  Basis Set: (AUG-CC-PVTZ AUX)
    Blend: AUG-CC-PVTZ-RI
    Molecular point group: c1

    Geometry (in Angstrom), charge = 0, multiplicity = 1:

       Center              X                  Y                   Z               Mass
    ------------   -----------------  -----------------  -----------------  -----------------
         O           -2.073880357495    -1.758407103050     0.003501306956    15.994914619570
         N           -0.043508357495    -0.724563103050    -0.242030693044    14.003074004430
         C            0.804576642505     0.352490896950    -0.286683693044    12.000000000000
         C            2.353217442505     0.039686696950    -0.542033893044    12.000000000000
         C            0.281055642505     1.598755896950    -0.066040693044    12.000000000000
         C            2.917930642505    -0.644471103050     0.664104306956    12.000000000000
         C           -1.427572357495    -0.704448103050     0.001548306956    12.000000000000
         C           -1.111992357495     1.726302896950     0.192060306956    12.000000000000
         C           -1.934761357495     0.633418896950     0.228984306956    12.000000000000
         H            2.359801642505    -0.555463103050    -1.429764693044     1.007825032230
         H            2.766121642505     1.005959896950    -0.730266693044     1.007825032230
         H            0.319339642505    -1.660661103050    -0.411264693044     1.007825032230
         H            0.929393642505     2.467795896950    -0.094116693044     1.007825032230
         H            3.978773642505    -0.821257103050     0.466253306956     1.007825032230
         H            2.448635642505    -1.610627103050     0.869556306956     1.007825032230
         H            2.831190642505    -0.030237103050     1.563995306956     1.007825032230
         H           -1.530267357495     2.715937896950     0.364349306956     1.007825032230
         H           -2.998543357495     0.721924896950     0.423165306956     1.007825032230

  Basis Set: AUG-CC-PVTZ
    Blend: AUG-CC-PVTZ
  Basis Set: (AUG-CC-PVTZ AUX)
    Blend: AUG-CC-PVTZ-JKFIT
	 Reference Energy          =    -399.7757470657105614 [Eh]
	 Singles Energy            =      -0.0000000000000000 [Eh]
	 Same-Spin Energy          =      -0.4219506592036565 [Eh]
	 Opposite-Spin Energy      =      -1.3371455602943731 [Eh]
	 Correlation Energy        =      -1.7590962194980297 [Eh]
	 Total Energy              =    -401.5348432852085807 [Eh]

	 ================> DF-SCS-MP2 Energies <==================
	-----------------------------------------------------------
	 SCS Same-Spin Scale       =       0.3333333333333333 [-]
	 SCS Opposite-Spin Scale   =       1.2000000000000000 [-]
	 SCS Same-Spin Energy      =      -0.1406502197345522 [Eh]
	 SCS Opposite-Spin Energy  =      -1.6045746723532477 [Eh]
	 SCS Correlation Energy    =      -1.7452248920878000 [Eh]
	 SCS Total Energy          =    -401.5209719577983378 [Eh]
	-----------------------------------------------------------

  Dipole Moment: [D]
     X:     4.1417      Y:     2.5551      Z:    -0.2727     Total:     4.8740

*** Psi4 exiting successfully. Buy a developer a beer!
