                               Psi4 1.3.2 release

  ==> Input File <==

--------------------------------------------------------------------------
#psi4
#
memory 32 gb

molecule  {
0 1
  O       -2.1484710    -1.7769200    -0.0056360
  N       -0.1898944    -0.6816495    -0.2357520
  C        0.7299860     0.3339780    -0.2958210
  C        2.1818620     0.0407190    -0.5352160
  C        0.2064650     1.5802430    -0.0751780
  C        2.8433400    -0.6629840     0.6549670
  C       -1.5021630    -0.7229610    -0.0075890
  C       -1.1865830     1.7077900     0.1829230
  C       -2.0093520     0.6149060     0.2198470
  H        2.2852110    -0.5739760    -1.4389020
  H        2.6915310     0.9874470    -0.7394040
  H        0.2447490    -1.6791740    -0.4204020
  H        0.8548030     2.4492830    -0.1032540
  H        3.9041830    -0.8397700     0.4571160
  H        2.3740450    -1.6291400     0.8604190
  H        2.7566000    -0.0487500     1.5548580
  H       -1.6048580     2.6974250     0.3552120
  H       -3.0731340     0.7034120     0.4140280
units angstrom
no_reorient  #important for SAPT in psi4, default
symmetry c1  #important for SAPT in psi4, default
}

set PROPERTIES_ORIGIN ["COM"]
properties('MP2/aug-cc-pvtz', properties = ['dipole'])
--------------------------------------------------------------------------

    Molecular point group: c1
  Charge       = 0
  Multiplicity = 1
  Basis Set: AUG-CC-PVTZ
    Blend: AUG-CC-PVTZ
  Basis Set: (AUG-CC-PVTZ AUX)
    Blend: AUG-CC-PVTZ-JKFIT

    Orbital Energies [Eh]
    ---------------------

    Doubly Occupied:

       1A    -20.498473     2A    -15.627382     3A    -11.342114
       4A    -11.314981     5A    -11.267119     6A    -11.266041
       7A    -11.244271     8A    -11.237230     9A    -11.233475
      10A     -1.370284    11A     -1.276654    12A     -1.101364
      13A     -1.092296    14A     -1.010303    15A     -0.902709
      16A     -0.866286    17A     -0.845896    18A     -0.725502
      19A     -0.693065    20A     -0.657320    21A     -0.636011
      22A     -0.627995    23A     -0.612990    24A     -0.605054
      25A     -0.563991    26A     -0.548037    27A     -0.540351
      28A     -0.528629    29A     -0.509444    30A     -0.466614
      31A     -0.417885    32A     -0.417122    33A     -0.309702

  @DF-RHF Final Energy:  -399.76954507877986

   => Energetics <=

    Nuclear Repulsion Energy =            427.8987144618157572
    One-Electron Energy =               -1390.6233360043854645
    Two-Electron Energy =                 562.9550764637898510
    Total Energy =                       -399.7695450787798563
  Basis Set: (AUG-CC-PVTZ AUX)
    Blend: AUG-CC-PVTZ-RI
    Molecular point group: c1

    Geometry (in Angstrom), charge = 0, multiplicity = 1:

       Center              X                  Y                   Z               Mass
    ------------   -----------------  -----------------  -----------------  -----------------
         O           -2.056276052454    -1.767302173609     0.000191491091    15.994914619570
         N           -0.097699452454    -0.672031673609    -0.229924508909    14.003074004430
         C            0.822180947546     0.343595826391    -0.289993508909    12.000000000000
         C            2.274056947546     0.050336826391    -0.529388508909    12.000000000000
         C            0.298659947546     1.589860826391    -0.069350508909    12.000000000000
         C            2.935534947546    -0.653366173609     0.660794491091    12.000000000000
         C           -1.409968052454    -0.713343173609    -0.001761508909    12.000000000000
         C           -1.094388052454     1.717407826391     0.188750491091    12.000000000000
         C           -1.917157052454     0.624523826391     0.225674491091    12.000000000000
         H            2.377405947546    -0.564358173609    -1.433074508909     1.007825032230
         H            2.783725947546     0.997064826391    -0.733576508909     1.007825032230
         H            0.336943947546    -1.669556173609    -0.414574508909     1.007825032230
         H            0.946997947546     2.458900826391    -0.097426508909     1.007825032230
         H            3.996377947546    -0.830152173609     0.462943491091     1.007825032230
         H            2.466239947546    -1.619522173609     0.866246491091     1.007825032230
         H            2.848794947546    -0.039132173609     1.560685491091     1.007825032230
         H           -1.512663052454     2.707042826391     0.361039491091     1.007825032230
         H           -2.980939052454     0.713029826391     0.419855491091     1.007825032230

  Basis Set: AUG-CC-PVTZ
    Blend: AUG-CC-PVTZ
  Basis Set: (AUG-CC-PVTZ AUX)
    Blend: AUG-CC-PVTZ-JKFIT
	 Reference Energy          =    -399.7695450787798563 [Eh]
	 Singles Energy            =      -0.0000000000000000 [Eh]
	 Same-Spin Energy          =      -0.4234388931041817 [Eh]
	 Opposite-Spin Energy      =      -1.3388522263818197 [Eh]
	 Correlation Energy        =      -1.7622911194860014 [Eh]
	 Total Energy              =    -401.5318361982658644 [Eh]

	 ================> DF-SCS-MP2 Energies <==================
	-----------------------------------------------------------
	 SCS Same-Spin Scale       =       0.3333333333333333 [-]
	 SCS Opposite-Spin Scale   =       1.2000000000000000 [-]
	 SCS Same-Spin Energy      =      -0.1411462977013939 [Eh]
	 SCS Opposite-Spin Energy  =      -1.6066226716581835 [Eh]
	 SCS Correlation Energy    =      -1.7477689693595775 [Eh]
	 SCS Total Energy          =    -401.5173140481394398 [Eh]
	-----------------------------------------------------------

  Dipole Moment: [D]
     X:     4.4399      Y:     2.6945      Z:    -0.3050     Total:     5.2025

*** Psi4 exiting successfully. Buy a developer a beer!
