                               Psi4 1.4a3.dev225

  ==> Input File <==

--------------------------------------------------------------------------
#psi4
#
memory 32 gb

molecule  {
0 1
  O        2.9010780     0.5011950     0.0183730
  O        2.1944840    -1.5825690    -0.0155730
  N        2.0004400    -0.3550420     0.0007840
  C       -1.7439870    -0.3903860    -0.0134210
  C       -0.4149410    -0.8260390    -0.0069050
  C        0.6078280     0.1182930    -0.0000420
  C       -2.0019250     0.9878490    -0.0097750
  C        0.3698600     1.4898450     0.0029890
  C       -0.9581720     1.9149540    -0.0034080
  C       -2.8357755    -1.3534226     0.0159408
  H       -0.1670670    -1.8828790    -0.0128300
  H       -3.0325330     1.3382220    -0.0189380
  H        1.1996540     2.1873670     0.0051620
  H       -1.1788090     2.9793360    -0.0051500
  H       -2.5655400    -2.3420280    -0.4153900
  H       -3.1994760    -1.5736770     1.0454250
  H       -3.7361930    -1.0182010    -0.5444970
units angstrom
no_reorient  #important for SAPT in psi4, default
symmetry c1  #important for SAPT in psi4, default
}

set PROPERTIES_ORIGIN ["COM"]
properties('MP2/aug-cc-pvtz', properties = ['dipole'])
--------------------------------------------------------------------------

    Molecular point group: c1
  Charge       = 0
  Multiplicity = 1
  Basis Set: AUG-CC-PVTZ
    Blend: AUG-CC-PVTZ
  Basis Set: (AUG-CC-PVTZ AUX)
    Blend: AUG-CC-PVTZ-JKFIT

    Orbital Energies [Eh]
    ---------------------

    Doubly Occupied:

       1A    -20.603428     2A    -20.603375     3A    -15.853503
       4A    -11.311666     5A    -11.272118     6A    -11.271314
       7A    -11.270156     8A    -11.268472     9A    -11.265453
      10A    -11.246680    11A     -1.586743    12A     -1.385268
      13A     -1.199568    14A     -1.104560    15A     -1.067842
      16A     -0.968826    17A     -0.955190    18A     -0.848472
      19A     -0.817178    20A     -0.762884    21A     -0.722665
      22A     -0.707302    23A     -0.702955    24A     -0.665673
      25A     -0.637847    26A     -0.609928    27A     -0.593931
      28A     -0.559897    29A     -0.541680    30A     -0.524481
      31A     -0.518475    32A     -0.493626    33A     -0.491706
      34A     -0.451359    35A     -0.373966    36A     -0.354945

  @DF-RHF Final Energy:  -473.36967273714339

   => Energetics <=

    Nuclear Repulsion Energy =            494.4107474266202757
    One-Electron Energy =               -1624.3345771995309406
    Two-Electron Energy =                 656.5541570357672754
    Total Energy =                       -473.3696727371434463
  Basis Set: (AUG-CC-PVTZ AUX)
    Blend: AUG-CC-PVTZ-RI
    Molecular point group: c1

    Geometry (in Angstrom), charge = 0, multiplicity = 1:

       Center              X                  Y                   Z               Mass
    ------------   -----------------  -----------------  -----------------  -----------------
         O            2.806141307102     0.496009532498     0.018850843798    15.994914619570
         O            2.099547307102    -1.587754467502    -0.015095156202    15.994914619570
         N            1.905503307102    -0.360227467502     0.001261843798    14.003074004430
         C           -1.838923692898    -0.395571467502    -0.012943156202    12.000000000000
         C           -0.509877692898    -0.831224467502    -0.006427156202    12.000000000000
         C            0.512891307102     0.113107532498     0.000435843798    12.000000000000
         C           -2.096861692898     0.982663532498    -0.009297156202    12.000000000000
         C            0.274923307102     1.484659532498     0.003466843798    12.000000000000
         C           -1.053108692898     1.909768532498    -0.002930156202    12.000000000000
         C           -2.930712192898    -1.358608067502     0.016418643798    12.000000000000
         H           -0.262003692898    -1.888064467502    -0.012352156202     1.007825032230
         H           -3.127469692898     1.333036532498    -0.018460156202     1.007825032230
         H            1.104717307102     2.182181532498     0.005639843798     1.007825032230
         H           -1.273745692898     2.974150532498    -0.004672156202     1.007825032230
         H           -2.660476692898    -2.347213467502    -0.414912156202     1.007825032230
         H           -3.294412692898    -1.578862467502     1.045902843798     1.007825032230
         H           -3.831129692898    -1.023386467502    -0.544019156202     1.007825032230

  Basis Set: AUG-CC-PVTZ
    Blend: AUG-CC-PVTZ
  Basis Set: (AUG-CC-PVTZ AUX)
    Blend: AUG-CC-PVTZ-JKFIT
	 Reference Energy          =    -473.3696727371433894 [Eh]
	 Singles Energy            =      -0.0000000000000000 [Eh]
	 Same-Spin Energy          =      -0.5034898916213806 [Eh]
	 Opposite-Spin Energy      =      -1.5166032157429039 [Eh]
	 Correlation Energy        =      -2.0200931073642847 [Eh]
	 Total Energy              =    -475.3897658445076786 [Eh]

	 ================> DF-SCS-MP2 Energies <==================
	-----------------------------------------------------------
	 SCS Same-Spin Scale       =       0.3333333333333333 [-]
	 SCS Opposite-Spin Scale   =       1.2000000000000000 [-]
	 SCS Same-Spin Energy      =      -0.1678299638737935 [Eh]
	 SCS Opposite-Spin Energy  =      -1.8199238588914846 [Eh]
	 SCS Correlation Energy    =      -1.9877538227652780 [Eh]
	 SCS Total Energy          =    -475.3574265599086743 [Eh]
	-----------------------------------------------------------

  Dipole Moment: [D]
     X:    -4.5735      Y:     1.0500      Z:     0.0375     Total:     4.6926

*** Psi4 exiting successfully. Buy a developer a beer!
