                               Psi4 1.3.2 release

  ==> Input File <==

--------------------------------------------------------------------------
#psi4
#
memory 32 gb

molecule  {
0 1
  O        2.9010970     0.5011680     0.0190930
  O        2.1944780    -1.5825590    -0.0163220
  N        2.0004500    -0.3550410     0.0008100
  C       -1.7439920    -0.3903900    -0.0133100
  C       -0.4149300    -0.8260450    -0.0068870
  C        0.5343454     0.0504623    -0.0003629
  C       -2.0019240     0.9878430    -0.0100420
  C        0.3698690     1.4898440     0.0027510
  C       -0.9581620     1.9149690    -0.0035660
  C       -2.8732770    -1.3864780     0.0172390
  H       -0.1671010    -1.8828910    -0.0126110
  H       -3.0325270     1.3382360    -0.0191480
  H        1.1996340     2.1873950     0.0050900
  H       -1.1788320     2.9793390    -0.0057220
  H       -2.5659080    -2.3418330    -0.4157720
  H       -3.1988470    -1.5742060     1.0458220
  H       -3.7365580    -1.0178890    -0.5434620
units angstrom
no_reorient  #important for SAPT in psi4, default
symmetry c1  #important for SAPT in psi4, default
}

set PROPERTIES_ORIGIN ["COM"]
properties('MP2/aug-cc-pvtz', properties = ['dipole'])
--------------------------------------------------------------------------

    Molecular point group: c1
  Charge       = 0
  Multiplicity = 1
  Basis Set: AUG-CC-PVTZ
    Blend: AUG-CC-PVTZ
  Basis Set: (AUG-CC-PVTZ AUX)
    Blend: AUG-CC-PVTZ-JKFIT

    Orbital Energies [Eh]
    ---------------------

    Doubly Occupied:

       1A    -20.605638     2A    -20.602222     3A    -15.851250
       4A    -11.311876     5A    -11.274241     6A    -11.273353
       7A    -11.265186     8A    -11.263946     9A    -11.260130
      10A    -11.245382    11A     -1.582920    12A     -1.384016
      13A     -1.204105    14A     -1.092731    15A     -1.068378
      16A     -0.974464    17A     -0.946385    18A     -0.844329
      19A     -0.820994    20A     -0.764121    21A     -0.720220
      22A     -0.702669    23A     -0.702208    24A     -0.665729
      25A     -0.636071    26A     -0.604888    27A     -0.599187
      28A     -0.563806    29A     -0.544925    30A     -0.526244
      31A     -0.523195    32A     -0.491721    33A     -0.483654
      34A     -0.450841    35A     -0.386054    36A     -0.348954

  @DF-RHF Final Energy:  -473.35837677084800

   => Energetics <=

    Nuclear Repulsion Energy =            493.7484751439076831
    One-Electron Energy =               -1623.0416382478483683
    Two-Electron Energy =                 655.9347863330928021
    Total Energy =                       -473.3583767708479400
  Basis Set: (AUG-CC-PVTZ AUX)
    Blend: AUG-CC-PVTZ-RI
    Molecular point group: c1

    Geometry (in Angstrom), charge = 0, multiplicity = 1:

       Center              X                  Y                   Z               Mass
    ------------   -----------------  -----------------  -----------------  -----------------
         O            2.815874631486     0.504818173042     0.019529704285    15.994914619570
         O            2.109255631486    -1.578908826958    -0.015885295715    15.994914619570
         N            1.915227631486    -0.351390826958     0.001246704285    14.003074004430
         C           -1.829214368514    -0.386739826958    -0.012873295715    12.000000000000
         C           -0.500152368514    -0.822394826958    -0.006450295715    12.000000000000
         C            0.449123031486     0.054112473042     0.000073804285    12.000000000000
         C           -2.087146368514     0.991493173042    -0.009605295715    12.000000000000
         C            0.284646631486     1.493494173042     0.003187704285    12.000000000000
         C           -1.043384368514     1.918619173042    -0.003129295715    12.000000000000
         C           -2.958499368514    -1.382827826958     0.017675704285    12.000000000000
         H           -0.252323368514    -1.879240826958    -0.012174295715     1.007825032230
         H           -3.117749368514     1.341886173042    -0.018711295715     1.007825032230
         H            1.114411631486     2.191045173042     0.005526704285     1.007825032230
         H           -1.264054368514     2.982989173042    -0.005285295715     1.007825032230
         H           -2.651130368514    -2.338182826958    -0.415335295715     1.007825032230
         H           -3.284069368514    -1.570555826958     1.046258704285     1.007825032230
         H           -3.821780368514    -1.014238826958    -0.543025295715     1.007825032230

  Basis Set: AUG-CC-PVTZ
    Blend: AUG-CC-PVTZ
  Basis Set: (AUG-CC-PVTZ AUX)
    Blend: AUG-CC-PVTZ-JKFIT
	 Reference Energy          =    -473.3583767708479968 [Eh]
	 Singles Energy            =      -0.0000000000000000 [Eh]
	 Same-Spin Energy          =      -0.5028874986481595 [Eh]
	 Opposite-Spin Energy      =      -1.5167179953860441 [Eh]
	 Correlation Energy        =      -2.0196054940342036 [Eh]
	 Total Energy              =    -475.3779822648821778 [Eh]

	 ================> DF-SCS-MP2 Energies <==================
	-----------------------------------------------------------
	 SCS Same-Spin Scale       =       0.3333333333333333 [-]
	 SCS Opposite-Spin Scale   =       1.2000000000000000 [-]
	 SCS Same-Spin Energy      =      -0.1676291662160532 [Eh]
	 SCS Opposite-Spin Energy  =      -1.8200615944632528 [Eh]
	 SCS Correlation Energy    =      -1.9876907606793059 [Eh]
	 SCS Total Energy          =    -475.3460675315272965 [Eh]
	-----------------------------------------------------------

  Dipole Moment: [D]
     X:    -4.5339      Y:     0.9872      Z:     0.0350     Total:     4.6402

*** Psi4 exiting successfully. Buy a developer a beer!
