                               Psi4 1.3.2 release

  ==> Input File <==

--------------------------------------------------------------------------
#psi4
#
memory 32 gb

molecule  {
0 1
  O        2.8066481     0.5906203     0.0198505
  O        2.1944780    -1.5825590    -0.0163220
  N        2.0004500    -0.3550410     0.0008100
  C       -1.7439920    -0.3903900    -0.0133100
  C       -0.4149300    -0.8260450    -0.0068870
  C        0.6078150     0.1183000     0.0001420
  C       -2.0019240     0.9878430    -0.0100420
  C        0.3698690     1.4898440     0.0027510
  C       -0.9581620     1.9149690    -0.0035660
  C       -2.8732770    -1.3864780     0.0172390
  H       -0.1671010    -1.8828910    -0.0126110
  H       -3.0325270     1.3382360    -0.0191480
  H        1.1996340     2.1873950     0.0050900
  H       -1.1788320     2.9793390    -0.0057220
  H       -2.5659080    -2.3418330    -0.4157720
  H       -3.1988470    -1.5742060     1.0458220
  H       -3.7365580    -1.0178890    -0.5434620
units angstrom
no_reorient  #important for SAPT in psi4, default
symmetry c1  #important for SAPT in psi4, default
}

set PROPERTIES_ORIGIN ["COM"]
properties('MP2/aug-cc-pvtz', properties = ['dipole'])
--------------------------------------------------------------------------

    Molecular point group: c1
  Charge       = 0
  Multiplicity = 1
  Basis Set: AUG-CC-PVTZ
    Blend: AUG-CC-PVTZ
  Basis Set: (AUG-CC-PVTZ AUX)
    Blend: AUG-CC-PVTZ-JKFIT

    Orbital Energies [Eh]
    ---------------------

    Doubly Occupied:

       1A    -20.611806     2A    -20.607437     3A    -15.856579
       4A    -11.306201     5A    -11.270235     6A    -11.267639
       7A    -11.267059     8A    -11.265401     9A    -11.262339
      10A    -11.243231    11A     -1.587983    12A     -1.398281
      13A     -1.194076    14A     -1.095752    15A     -1.062624
      16A     -0.965545    17A     -0.953636    18A     -0.846909
      19A     -0.818390    20A     -0.762718    21A     -0.727874
      22A     -0.710492    23A     -0.699117    24A     -0.663727
      25A     -0.632971    26A     -0.601169    27A     -0.596034
      28A     -0.563415    29A     -0.540129    30A     -0.518672
      31A     -0.518038    32A     -0.501504    33A     -0.488148
      34A     -0.459049    35A     -0.370677    36A     -0.353280

  @DF-RHF Final Energy:  -473.36783135314715

   => Energetics <=

    Nuclear Repulsion Energy =            494.6315372166478710
    One-Electron Energy =               -1624.8224659330282975
    Two-Electron Energy =                 656.8230973632331597
    Total Energy =                       -473.3678313531471531
  Basis Set: (AUG-CC-PVTZ AUX)
    Blend: AUG-CC-PVTZ-RI
    Molecular point group: c1

    Geometry (in Angstrom), charge = 0, multiplicity = 1:

       Center              X                  Y                   Z               Mass
    ------------   -----------------  -----------------  -----------------  -----------------
         O            2.726015863172     0.577890521728     0.020154586585    15.994914619570
         O            2.113845763172    -1.595288778272    -0.016017913415    15.994914619570
         N            1.919817763172    -0.367770778272     0.001114086585    14.003074004430
         C           -1.824624236828    -0.403119778272    -0.013005913415    12.000000000000
         C           -0.495562236828    -0.838774778272    -0.006582913415    12.000000000000
         C            0.527182763172     0.105570221728     0.000446086585    12.000000000000
         C           -2.082556236828     0.975113221728    -0.009737913415    12.000000000000
         C            0.289236763172     1.477114221728     0.003055086585    12.000000000000
         C           -1.038794236828     1.902239221728    -0.003261913415    12.000000000000
         C           -2.953909236828    -1.399207778272     0.017543086585    12.000000000000
         H           -0.247733236828    -1.895620778272    -0.012306913415     1.007825032230
         H           -3.113159236828     1.325506221728    -0.018843913415     1.007825032230
         H            1.119001763172     2.174665221728     0.005394086585     1.007825032230
         H           -1.259464236828     2.966609221728    -0.005417913415     1.007825032230
         H           -2.646540236828    -2.354562778272    -0.415467913415     1.007825032230
         H           -3.279479236828    -1.586935778272     1.046126086585     1.007825032230
         H           -3.817190236828    -1.030618778272    -0.543157913415     1.007825032230

  Basis Set: AUG-CC-PVTZ
    Blend: AUG-CC-PVTZ
  Basis Set: (AUG-CC-PVTZ AUX)
    Blend: AUG-CC-PVTZ-JKFIT
	 Reference Energy          =    -473.3678313531471531 [Eh]
	 Singles Energy            =      -0.0000000000000000 [Eh]
	 Same-Spin Energy          =      -0.5035420299027226 [Eh]
	 Opposite-Spin Energy      =      -1.5168927647703503 [Eh]
	 Correlation Energy        =      -2.0204347946730730 [Eh]
	 Total Energy              =    -475.3882661478202181 [Eh]

	 ================> DF-SCS-MP2 Energies <==================
	-----------------------------------------------------------
	 SCS Same-Spin Scale       =       0.3333333333333333 [-]
	 SCS Opposite-Spin Scale   =       1.2000000000000000 [-]
	 SCS Same-Spin Energy      =      -0.1678473433009075 [Eh]
	 SCS Opposite-Spin Energy  =      -1.8202713177244203 [Eh]
	 SCS Correlation Energy    =      -1.9881186610253279 [Eh]
	 SCS Total Energy          =    -475.3559500141724925 [Eh]
	-----------------------------------------------------------

  Dipole Moment: [D]
     X:    -4.2209      Y:     0.9038      Z:     0.0343     Total:     4.3167

*** Psi4 exiting successfully. Buy a developer a beer!
