                               Psi4 1.4a3.dev225

  ==> Input File <==

--------------------------------------------------------------------------
#psi4
#
memory 32 gb

molecule  {
0 1
  O        2.9010780     0.5011950     0.0183730
  O        2.1944840    -1.5825690    -0.0155730
  N        2.0004400    -0.3550420     0.0007840
  C       -1.7439870    -0.3903860    -0.0134210
  C       -0.4149410    -0.8260390    -0.0069050
  C        0.5710925     0.0843748    -0.0002885
  C       -2.0019250     0.9878490    -0.0097750
  C        0.3698600     1.4898450     0.0029890
  C       -0.9581720     1.9149540    -0.0034080
  C       -2.8732650    -1.3864910     0.0169490
  H       -0.1670670    -1.8828790    -0.0128300
  H       -3.0325330     1.3382220    -0.0189380
  H        1.1996540     2.1873670     0.0051620
  H       -1.1788090     2.9793360    -0.0051500
  H       -2.5655400    -2.3420280    -0.4153900
  H       -3.1994760    -1.5736770     1.0454250
  H       -3.7361930    -1.0182010    -0.5444970
units angstrom
no_reorient  #important for SAPT in psi4, default
symmetry c1  #important for SAPT in psi4, default
}

set PROPERTIES_ORIGIN ["COM"]
properties('MP2/aug-cc-pvtz', properties = ['dipole'])
--------------------------------------------------------------------------

    Molecular point group: c1
  Charge       = 0
  Multiplicity = 1
  Basis Set: AUG-CC-PVTZ
    Blend: AUG-CC-PVTZ
  Basis Set: (AUG-CC-PVTZ AUX)
    Blend: AUG-CC-PVTZ-JKFIT

    Orbital Energies [Eh]
    ---------------------

    Doubly Occupied:

       1A    -20.604527     2A    -20.602739     3A    -15.852506
       4A    -11.311845     5A    -11.273539     6A    -11.272680
       7A    -11.266730     8A    -11.265701     9A    -11.264730
      10A    -11.245184    11A     -1.584771    12A     -1.384586
      13A     -1.200522    14A     -1.096320    15A     -1.066772
      16A     -0.972009    17A     -0.950800    18A     -0.845861
      19A     -0.819496    20A     -0.763208    21A     -0.721290
      22A     -0.704911    23A     -0.702042    24A     -0.665661
      25A     -0.635802    26A     -0.604380    27A     -0.598491
      28A     -0.564483    29A     -0.544132    30A     -0.523400
      31A     -0.522100    32A     -0.491806    33A     -0.489286
      34A     -0.451047    35A     -0.379221    36A     -0.352937

  @DF-RHF Final Energy:  -473.36947878005930

   => Energetics <=

    Nuclear Repulsion Energy =            493.6226529706983115
    One-Electron Energy =               -1622.7932338786649780
    Two-Electron Energy =                 655.8011021279073702
    Total Energy =                       -473.3694787800593531
  Basis Set: (AUG-CC-PVTZ AUX)
    Blend: AUG-CC-PVTZ-RI
    Molecular point group: c1

    Geometry (in Angstrom), charge = 0, multiplicity = 1:

       Center              X                  Y                   Z               Mass
    ------------   -----------------  -----------------  -----------------  -----------------
         O            2.812640505118     0.501874930650     0.018784148761    15.994914619570
         O            2.106046505118    -1.581889069350    -0.015161851239    15.994914619570
         N            1.912002505118    -0.354362069350     0.001195148761    14.003074004430
         C           -1.832424494882    -0.389706069350    -0.013009851239    12.000000000000
         C           -0.503378494882    -0.825359069350    -0.006493851239    12.000000000000
         C            0.482655005118     0.085054730650     0.000122648761    12.000000000000
         C           -2.090362494882     0.988528930650    -0.009363851239    12.000000000000
         C            0.281422505118     1.490524930650     0.003400148761    12.000000000000
         C           -1.046609494882     1.915633930650    -0.002996851239    12.000000000000
         C           -2.961702494882    -1.385811069350     0.017360148761    12.000000000000
         H           -0.255504494882    -1.882199069350    -0.012418851239     1.007825032230
         H           -3.120970494882     1.338901930650    -0.018526851239     1.007825032230
         H            1.111216505118     2.188046930650     0.005573148761     1.007825032230
         H           -1.267246494882     2.980015930650    -0.004738851239     1.007825032230
         H           -2.653977494882    -2.341348069350    -0.414978851239     1.007825032230
         H           -3.287913494882    -1.572997069350     1.045836148761     1.007825032230
         H           -3.824630494882    -1.017521069350    -0.544085851239     1.007825032230

  Basis Set: AUG-CC-PVTZ
    Blend: AUG-CC-PVTZ
  Basis Set: (AUG-CC-PVTZ AUX)
    Blend: AUG-CC-PVTZ-JKFIT
	 Reference Energy          =    -473.3694787800592962 [Eh]
	 Singles Energy            =      -0.0000000000000000 [Eh]
	 Same-Spin Energy          =      -0.5029537497243221 [Eh]
	 Opposite-Spin Energy      =      -1.5162320949475703 [Eh]
	 Correlation Energy        =      -2.0191858446718922 [Eh]
	 Total Energy              =    -475.3886646247311774 [Eh]

	 ================> DF-SCS-MP2 Energies <==================
	-----------------------------------------------------------
	 SCS Same-Spin Scale       =       0.3333333333333333 [-]
	 SCS Opposite-Spin Scale   =       1.2000000000000000 [-]
	 SCS Same-Spin Energy      =      -0.1676512499081073 [Eh]
	 SCS Opposite-Spin Energy  =      -1.8194785139370842 [Eh]
	 SCS Correlation Energy    =      -1.9871297638451915 [Eh]
	 SCS Total Energy          =    -475.3566085439044855 [Eh]
	-----------------------------------------------------------

  Dipole Moment: [D]
     X:    -4.5522      Y:     1.0243      Z:     0.0347     Total:     4.6661

*** Psi4 exiting successfully. Buy a developer a beer!
