                               Psi4 1.3.2 release

  ==> Input File <==

--------------------------------------------------------------------------
#psi4
#
memory 32 gb

molecule  {
0 1
  O        2.9010970     0.5011680     0.0190930
  O        2.1944780    -1.5825590    -0.0163220
  N        2.0004500    -0.3550410     0.0008100
  C       -1.7439920    -0.3903900    -0.0133100
  C       -0.3877767    -0.7323076    -0.0094607
  C        0.6078150     0.1183000     0.0001420
  C       -2.0019240     0.9878430    -0.0100420
  C        0.3698690     1.4898440     0.0027510
  C       -0.9581620     1.9149690    -0.0035660
  C       -2.8732770    -1.3864780     0.0172390
  H       -0.1671010    -1.8828910    -0.0126110
  H       -3.0325270     1.3382360    -0.0191480
  H        1.1996340     2.1873950     0.0050900
  H       -1.1788320     2.9793390    -0.0057220
  H       -2.5659080    -2.3418330    -0.4157720
  H       -3.1988470    -1.5742060     1.0458220
  H       -3.7365580    -1.0178890    -0.5434620
units angstrom
no_reorient  #important for SAPT in psi4, default
symmetry c1  #important for SAPT in psi4, default
}

set PROPERTIES_ORIGIN ["COM"]
properties('MP2/aug-cc-pvtz', properties = ['dipole'])
--------------------------------------------------------------------------

    Molecular point group: c1
  Charge       = 0
  Multiplicity = 1
  Basis Set: AUG-CC-PVTZ
    Blend: AUG-CC-PVTZ
  Basis Set: (AUG-CC-PVTZ AUX)
    Blend: AUG-CC-PVTZ-JKFIT

    Orbital Energies [Eh]
    ---------------------

    Doubly Occupied:

       1A    -20.605356     2A    -20.604858     3A    -15.855180
       4A    -11.303060     5A    -11.272521     6A    -11.269611
       7A    -11.267123     8A    -11.266392     9A    -11.262819
      10A    -11.247506    11A     -1.588197    12A     -1.386609
      13A     -1.208142    14A     -1.104076    15A     -1.063210
      16A     -0.974629    17A     -0.955222    18A     -0.845078
      19A     -0.823123    20A     -0.770204    21A     -0.723267
      22A     -0.709273    23A     -0.695519    24A     -0.667719
      25A     -0.625812    26A     -0.600256    27A     -0.597147
      28A     -0.563398    29A     -0.544400    30A     -0.528474
      31A     -0.514581    32A     -0.495220    33A     -0.489606
      34A     -0.452132    35A     -0.381805    36A     -0.353083

  @DF-RHF Final Energy:  -473.36048349969531

   => Energetics <=

    Nuclear Repulsion Energy =            495.0223414766131214
    One-Electron Energy =               -1625.5364337506080119
    Two-Electron Energy =                 657.1536087742996415
    Total Energy =                       -473.3604834996953059
  Basis Set: (AUG-CC-PVTZ AUX)
    Blend: AUG-CC-PVTZ-RI
    Molecular point group: c1

    Geometry (in Angstrom), charge = 0, multiplicity = 1:

       Center              X                  Y                   Z               Mass
    ------------   -----------------  -----------------  -----------------  -----------------
         O            2.807064013069     0.490670533172     0.019710850002    15.994914619570
         O            2.100445013069    -1.593056466828    -0.015704149998    15.994914619570
         N            1.906417013069    -0.365538466828     0.001427850002    14.003074004430
         C           -1.838024986931    -0.400887466828    -0.012692149998    12.000000000000
         C           -0.481809686931    -0.742805066828    -0.008842849998    12.000000000000
         C            0.513782013069     0.107802533172     0.000759850002    12.000000000000
         C           -2.095956986931     0.977345533172    -0.009424149998    12.000000000000
         C            0.275836013069     1.479346533172     0.003368850002    12.000000000000
         C           -1.052194986931     1.904471533172    -0.002948149998    12.000000000000
         C           -2.967309986931    -1.396975466828     0.017856850002    12.000000000000
         H           -0.261133986931    -1.893388466828    -0.011993149998     1.007825032230
         H           -3.126559986931     1.327738533172    -0.018530149998     1.007825032230
         H            1.105601013069     2.176897533172     0.005707850002     1.007825032230
         H           -1.272864986931     2.968841533172    -0.005104149998     1.007825032230
         H           -2.659940986931    -2.352330466828    -0.415154149998     1.007825032230
         H           -3.292879986931    -1.584703466828     1.046439850002     1.007825032230
         H           -3.830590986931    -1.028386466828    -0.542844149998     1.007825032230

  Basis Set: AUG-CC-PVTZ
    Blend: AUG-CC-PVTZ
  Basis Set: (AUG-CC-PVTZ AUX)
    Blend: AUG-CC-PVTZ-JKFIT
	 Reference Energy          =    -473.3604834996953059 [Eh]
	 Singles Energy            =      -0.0000000000000000 [Eh]
	 Same-Spin Energy          =      -0.5033507464414732 [Eh]
	 Opposite-Spin Energy      =      -1.5166051321006471 [Eh]
	 Correlation Energy        =      -2.0199558785421203 [Eh]
	 Total Energy              =    -475.3804393782374405 [Eh]

	 ================> DF-SCS-MP2 Energies <==================
	-----------------------------------------------------------
	 SCS Same-Spin Scale       =       0.3333333333333333 [-]
	 SCS Opposite-Spin Scale   =       1.2000000000000000 [-]
	 SCS Same-Spin Energy      =      -0.1677835821471577 [Eh]
	 SCS Opposite-Spin Energy  =      -1.8199261585207764 [Eh]
	 SCS Correlation Energy    =      -1.9877097406679343 [Eh]
	 SCS Total Energy          =    -475.3481932403632300 [Eh]
	-----------------------------------------------------------

  Dipole Moment: [D]
     X:    -4.5640      Y:     0.9969      Z:     0.0364     Total:     4.6717

*** Psi4 exiting successfully. Buy a developer a beer!
