                               Psi4 1.3.2 release

  ==> Input File <==

--------------------------------------------------------------------------
#psi4
#
memory 32 gb

molecule  {
0 1
  O        2.9010970     0.5011680     0.0190930
  O        2.1944780    -1.5825590    -0.0163220
  N        2.0004500    -0.3550410     0.0008100
  C       -1.7439920    -0.3903900    -0.0133100
  C       -0.4149300    -0.8260450    -0.0068870
  C        0.5131345     0.1504808     0.0000966
  C       -2.0019240     0.9878430    -0.0100420
  C        0.3698690     1.4898440     0.0027510
  C       -0.9581620     1.9149690    -0.0035660
  C       -2.8732770    -1.3864780     0.0172390
  H       -0.1671010    -1.8828910    -0.0126110
  H       -3.0325270     1.3382360    -0.0191480
  H        1.1996340     2.1873950     0.0050900
  H       -1.1788320     2.9793390    -0.0057220
  H       -2.5659080    -2.3418330    -0.4157720
  H       -3.1988470    -1.5742060     1.0458220
  H       -3.7365580    -1.0178890    -0.5434620
units angstrom
no_reorient  #important for SAPT in psi4, default
symmetry c1  #important for SAPT in psi4, default
}

set PROPERTIES_ORIGIN ["COM"]
properties('MP2/aug-cc-pvtz', properties = ['dipole'])
--------------------------------------------------------------------------

    Molecular point group: c1
  Charge       = 0
  Multiplicity = 1
  Basis Set: AUG-CC-PVTZ
    Blend: AUG-CC-PVTZ
  Basis Set: (AUG-CC-PVTZ AUX)
    Blend: AUG-CC-PVTZ-JKFIT

    Orbital Energies [Eh]
    ---------------------

    Doubly Occupied:

       1A    -20.601990     2A    -20.601926     3A    -15.846195
       4A    -11.313497     5A    -11.274494     6A    -11.267282
       7A    -11.265052     8A    -11.264206     9A    -11.263957
      10A    -11.245215    11A     -1.577387    12A     -1.380450
      13A     -1.207587    14A     -1.092393    15A     -1.066407
      16A     -0.969851    17A     -0.944158    18A     -0.852390
      19A     -0.815897    20A     -0.762104    21A     -0.717075
      22A     -0.697430    23A     -0.696449    24A     -0.672946
      25A     -0.636450    26A     -0.612380    27A     -0.599491
      28A     -0.566778    29A     -0.543334    30A     -0.531867
      31A     -0.526859    32A     -0.489295    33A     -0.476521
      34A     -0.448513    35A     -0.378014    36A     -0.359018

  @DF-RHF Final Energy:  -473.36320855080305

   => Energetics <=

    Nuclear Repulsion Energy =            493.7167241275769811
    One-Electron Energy =               -1623.0301455983890264
    Two-Electron Energy =                 655.9502129200089939
    Total Energy =                       -473.3632085508030514
  Basis Set: (AUG-CC-PVTZ AUX)
    Blend: AUG-CC-PVTZ-RI
    Molecular point group: c1

    Geometry (in Angstrom), charge = 0, multiplicity = 1:

       Center              X                  Y                   Z               Mass
    ------------   -----------------  -----------------  -----------------  -----------------
         O            2.817731874184     0.496060476353     0.019489470112    15.994914619570
         O            2.111112874184    -1.587666523647    -0.015925529888    15.994914619570
         N            1.917084874184    -0.360148523647     0.001206470112    14.003074004430
         C           -1.827357125816    -0.395497523647    -0.012913529888    12.000000000000
         C           -0.498295125816    -0.831152523647    -0.006490529888    12.000000000000
         C            0.429769374184     0.145373276353     0.000493070112    12.000000000000
         C           -2.085289125816     0.982735476353    -0.009645529888    12.000000000000
         C            0.286503874184     1.484736476353     0.003147470112    12.000000000000
         C           -1.041527125816     1.909861476353    -0.003169529888    12.000000000000
         C           -2.956642125816    -1.391585523647     0.017635470112    12.000000000000
         H           -0.250466125816    -1.887998523647    -0.012214529888     1.007825032230
         H           -3.115892125816     1.333128476353    -0.018751529888     1.007825032230
         H            1.116268874184     2.182287476353     0.005486470112     1.007825032230
         H           -1.262197125816     2.974231476353    -0.005325529888     1.007825032230
         H           -2.649273125816    -2.346940523647    -0.415375529888     1.007825032230
         H           -3.282212125816    -1.579313523647     1.046218470112     1.007825032230
         H           -3.819923125816    -1.022996523647    -0.543065529888     1.007825032230

  Basis Set: AUG-CC-PVTZ
    Blend: AUG-CC-PVTZ
  Basis Set: (AUG-CC-PVTZ AUX)
    Blend: AUG-CC-PVTZ-JKFIT
	 Reference Energy          =    -473.3632085508030514 [Eh]
	 Singles Energy            =      -0.0000000000000000 [Eh]
	 Same-Spin Energy          =      -0.5032374227538466 [Eh]
	 Opposite-Spin Energy      =      -1.5164201147147935 [Eh]
	 Correlation Energy        =      -2.0196575374686403 [Eh]
	 Total Energy              =    -475.3828660882716690 [Eh]

	 ================> DF-SCS-MP2 Energies <==================
	-----------------------------------------------------------
	 SCS Same-Spin Scale       =       0.3333333333333333 [-]
	 SCS Opposite-Spin Scale   =       1.2000000000000000 [-]
	 SCS Same-Spin Energy      =      -0.1677458075846155 [Eh]
	 SCS Opposite-Spin Energy  =      -1.8197041376577521 [Eh]
	 SCS Correlation Energy    =      -1.9874499452423677 [Eh]
	 SCS Total Energy          =    -475.3506584960454120 [Eh]
	-----------------------------------------------------------

  Dipole Moment: [D]
     X:    -4.5362      Y:     1.0510      Z:     0.0358     Total:     4.6565

*** Psi4 exiting successfully. Buy a developer a beer!
