                               Psi4 1.4a3.dev225

  ==> Input File <==

--------------------------------------------------------------------------
#psi4
#
memory 32 gb

molecule  {
0 1
  O        2.9010780     0.5011950     0.0183730
  O        2.1944840    -1.5825690    -0.0155730
  N        2.0004400    -0.3550420     0.0007840
  C       -1.7439870    -0.3903860    -0.0134210
  C       -0.4149410    -0.8260390    -0.0069050
  C        0.6267641     0.1118568    -0.0000308
  C       -2.0019250     0.9878490    -0.0097750
  C        0.3698600     1.4898450     0.0029890
  C       -0.9581720     1.9149540    -0.0034080
  C       -2.8732650    -1.3864910     0.0169490
  H       -0.1670670    -1.8828790    -0.0128300
  H       -3.0325330     1.3382220    -0.0189380
  H        1.1996540     2.1873670     0.0051620
  H       -1.1788090     2.9793360    -0.0051500
  H       -2.5655400    -2.3420280    -0.4153900
  H       -3.1994760    -1.5736770     1.0454250
  H       -3.7361930    -1.0182010    -0.5444970
units angstrom
no_reorient  #important for SAPT in psi4, default
symmetry c1  #important for SAPT in psi4, default
}

set PROPERTIES_ORIGIN ["COM"]
properties('MP2/aug-cc-pvtz', properties = ['dipole'])
--------------------------------------------------------------------------

    Molecular point group: c1
  Charge       = 0
  Multiplicity = 1
  Basis Set: AUG-CC-PVTZ
    Blend: AUG-CC-PVTZ
  Basis Set: (AUG-CC-PVTZ AUX)
    Blend: AUG-CC-PVTZ-JKFIT

    Orbital Energies [Eh]
    ---------------------

    Doubly Occupied:

       1A    -20.602868     2A    -20.602815     3A    -15.853818
       4A    -11.311169     5A    -11.273664     6A    -11.273176
       7A    -11.271876     8A    -11.269625     9A    -11.265268
      10A    -11.245142    11A     -1.588133    12A     -1.385537
      13A     -1.196801    14A     -1.103439    15A     -1.065430
      16A     -0.969644    17A     -0.956366    18A     -0.847670
      19A     -0.817313    20A     -0.762272    21A     -0.722998
      22A     -0.709057    23A     -0.703740    24A     -0.663180
      25A     -0.635277    26A     -0.601769    27A     -0.597749
      28A     -0.565050    29A     -0.543482    30A     -0.519614
      31A     -0.519128    32A     -0.495754    33A     -0.491751
      34A     -0.451409    35A     -0.373023    36A     -0.356068

  @DF-RHF Final Energy:  -473.37255880429217

   => Energetics <=

    Nuclear Repulsion Energy =            493.5204171434163527
    One-Electron Energy =               -1622.5638042916641552
    Two-Electron Energy =                 655.6708283439555771
    Total Energy =                       -473.3725588042922254
  Basis Set: (AUG-CC-PVTZ AUX)
    Blend: AUG-CC-PVTZ-RI
    Molecular point group: c1

    Geometry (in Angstrom), charge = 0, multiplicity = 1:

       Center              X                  Y                   Z               Mass
    ------------   -----------------  -----------------  -----------------  -----------------
         O            2.807765857058     0.499468585619     0.018761584351    15.994914619570
         O            2.101171857058    -1.584295414381    -0.015184415649    15.994914619570
         N            1.907127857058    -0.356768414381     0.001172584351    14.003074004430
         C           -1.837299142942    -0.392112414381    -0.013032415649    12.000000000000
         C           -0.508253142942    -0.827765414381    -0.006516415649    12.000000000000
         C            0.533451957058     0.110130385619     0.000357784351    12.000000000000
         C           -2.095237142942     0.986122585619    -0.009386415649    12.000000000000
         C            0.276547857058     1.488118585619     0.003377584351    12.000000000000
         C           -1.051484142942     1.913227585619    -0.003019415649    12.000000000000
         C           -2.966577142942    -1.388217414381     0.017337584351    12.000000000000
         H           -0.260379142942    -1.884605414381    -0.012441415649     1.007825032230
         H           -3.125845142942     1.336495585619    -0.018549415649     1.007825032230
         H            1.106341857058     2.185640585619     0.005550584351     1.007825032230
         H           -1.272121142942     2.977609585619    -0.004761415649     1.007825032230
         H           -2.658852142942    -2.343754414381    -0.415001415649     1.007825032230
         H           -3.292788142942    -1.575403414381     1.045813584351     1.007825032230
         H           -3.829505142942    -1.019927414381    -0.544108415649     1.007825032230

  Basis Set: AUG-CC-PVTZ
    Blend: AUG-CC-PVTZ
  Basis Set: (AUG-CC-PVTZ AUX)
    Blend: AUG-CC-PVTZ-JKFIT
	 Reference Energy          =    -473.3725588042921686 [Eh]
	 Singles Energy            =      -0.0000000000000000 [Eh]
	 Same-Spin Energy          =      -0.5029814998549400 [Eh]
	 Opposite-Spin Energy      =      -1.5160620825120070 [Eh]
	 Correlation Energy        =      -2.0190435823669470 [Eh]
	 Total Energy              =    -475.3916023866590876 [Eh]

	 ================> DF-SCS-MP2 Energies <==================
	-----------------------------------------------------------
	 SCS Same-Spin Scale       =       0.3333333333333333 [-]
	 SCS Opposite-Spin Scale   =       1.2000000000000000 [-]
	 SCS Same-Spin Energy      =      -0.1676604999516467 [Eh]
	 SCS Opposite-Spin Energy  =      -1.8192744990144083 [Eh]
	 SCS Correlation Energy    =      -1.9869349989660550 [Eh]
	 SCS Total Energy          =    -475.3594938032582036 [Eh]
	-----------------------------------------------------------

  Dipole Moment: [D]
     X:    -4.5899      Y:     1.0615      Z:     0.0344     Total:     4.7112

*** Psi4 exiting successfully. Buy a developer a beer!
