                               Psi4 1.3.2 release

  ==> Input File <==

--------------------------------------------------------------------------
#psi4
#
memory 32 gb

molecule  {
0 1
  O        2.9304352     0.4692145     0.0187955
  O        2.1944780    -1.5825590    -0.0163220
  N        2.0004500    -0.3550410     0.0008100
  C       -1.7439920    -0.3903900    -0.0133100
  C       -0.4149300    -0.8260450    -0.0068870
  C        0.6078150     0.1183000     0.0001420
  C       -2.0019240     0.9878430    -0.0100420
  C        0.3698690     1.4898440     0.0027510
  C       -0.9581620     1.9149690    -0.0035660
  C       -2.8732770    -1.3864780     0.0172390
  H       -0.1671010    -1.8828910    -0.0126110
  H       -3.0325270     1.3382360    -0.0191480
  H        1.1996340     2.1873950     0.0050900
  H       -1.1788320     2.9793390    -0.0057220
  H       -2.5659080    -2.3418330    -0.4157720
  H       -3.1988470    -1.5742060     1.0458220
  H       -3.7365580    -1.0178890    -0.5434620
units angstrom
no_reorient  #important for SAPT in psi4, default
symmetry c1  #important for SAPT in psi4, default
}

set PROPERTIES_ORIGIN ["COM"]
properties('MP2/aug-cc-pvtz', properties = ['dipole'])
--------------------------------------------------------------------------

    Molecular point group: c1
  Charge       = 0
  Multiplicity = 1
  Basis Set: AUG-CC-PVTZ
    Blend: AUG-CC-PVTZ
  Basis Set: (AUG-CC-PVTZ AUX)
    Blend: AUG-CC-PVTZ-JKFIT

    Orbital Energies [Eh]
    ---------------------

    Doubly Occupied:

       1A    -20.601630     2A    -20.600313     3A    -15.852179
       4A    -11.313224     5A    -11.273875     6A    -11.273273
       7A    -11.271499     8A    -11.269429     9A    -11.266183
      10A    -11.245580    11A     -1.586331    12A     -1.380535
      13A     -1.199398    14A     -1.102155    15A     -1.066370
      16A     -0.969802    17A     -0.956064    18A     -0.848975
      19A     -0.816843    20A     -0.761989    21A     -0.720440
      22A     -0.706081    23A     -0.703791    24A     -0.664767
      25A     -0.636159    26A     -0.604039    27A     -0.598493
      28A     -0.565920    29A     -0.544242    30A     -0.522288
      31A     -0.521497    32A     -0.494748    33A     -0.487978
      34A     -0.448551    35A     -0.374770    36A     -0.357303

  @DF-RHF Final Energy:  -473.37290084897808

   => Energetics <=

    Nuclear Repulsion Energy =            493.2253166552097809
    One-Electron Energy =               -1621.9830081345173767
    Two-Electron Energy =                 655.3847906303295758
    Total Energy =                       -473.3729008489780199
  Basis Set: (AUG-CC-PVTZ AUX)
    Blend: AUG-CC-PVTZ-RI
    Molecular point group: c1

    Geometry (in Angstrom), charge = 0, multiplicity = 1:

       Center              X                  Y                   Z               Mass
    ------------   -----------------  -----------------  -----------------  -----------------
         O            2.835355698413     0.470654063573     0.019222716252    15.994914619570
         O            2.099398498413    -1.581119436427    -0.015894783748    15.994914619570
         N            1.905370498413    -0.353601436427     0.001237216252    14.003074004430
         C           -1.839071501587    -0.388950436427    -0.012882783748    12.000000000000
         C           -0.510009501587    -0.824605436427    -0.006459783748    12.000000000000
         C            0.512735498413     0.119739563573     0.000569216252    12.000000000000
         C           -2.097003501587     0.989282563573    -0.009614783748    12.000000000000
         C            0.274789498413     1.491283563573     0.003178216252    12.000000000000
         C           -1.053241501587     1.916408563573    -0.003138783748    12.000000000000
         C           -2.968356501587    -1.385038436427     0.017666216252    12.000000000000
         H           -0.262180501587    -1.881451436427    -0.012183783748     1.007825032230
         H           -3.127606501587     1.339675563573    -0.018720783748     1.007825032230
         H            1.104554498413     2.188834563573     0.005517216252     1.007825032230
         H           -1.273911501587     2.980778563573    -0.005294783748     1.007825032230
         H           -2.660987501587    -2.340393436427    -0.415344783748     1.007825032230
         H           -3.293926501587    -1.572766436427     1.046249216252     1.007825032230
         H           -3.831637501587    -1.016449436427    -0.543034783748     1.007825032230

  Basis Set: AUG-CC-PVTZ
    Blend: AUG-CC-PVTZ
  Basis Set: (AUG-CC-PVTZ AUX)
    Blend: AUG-CC-PVTZ-JKFIT
	 Reference Energy          =    -473.3729008489780767 [Eh]
	 Singles Energy            =      -0.0000000000000000 [Eh]
	 Same-Spin Energy          =      -0.5028075690087295 [Eh]
	 Opposite-Spin Energy      =      -1.5158402180551704 [Eh]
	 Correlation Energy        =      -2.0186477870638999 [Eh]
	 Total Energy              =    -475.3915486360419891 [Eh]

	 ================> DF-SCS-MP2 Energies <==================
	-----------------------------------------------------------
	 SCS Same-Spin Scale       =       0.3333333333333333 [-]
	 SCS Opposite-Spin Scale   =       1.2000000000000000 [-]
	 SCS Same-Spin Energy      =      -0.1676025230029098 [Eh]
	 SCS Opposite-Spin Energy  =      -1.8190082616662044 [Eh]
	 SCS Correlation Energy    =      -1.9866107846691143 [Eh]
	 SCS Total Energy          =    -475.3595116336471733 [Eh]
	-----------------------------------------------------------

  Dipole Moment: [D]
     X:    -4.6766      Y:     1.1084      Z:     0.0350     Total:     4.8063

*** Psi4 exiting successfully. Buy a developer a beer!
