                               Psi4 1.3.2 release

  ==> Input File <==

--------------------------------------------------------------------------
#psi4
#
memory 32 gb

molecule  {
0 1
  O        2.8066476     0.5906191     0.0199285
  O        2.1944780    -1.5825590    -0.0163220
  N        2.0004500    -0.3550410     0.0008100
  C       -1.7439920    -0.3903900    -0.0133100
  C       -0.4149300    -0.8260450    -0.0068870
  C        0.6078150     0.1183000     0.0001420
  C       -2.0019240     0.9878430    -0.0100420
  C        0.3698690     1.4898440     0.0027510
  C       -0.9581620     1.9149690    -0.0035660
  C       -2.8732770    -1.3864780     0.0172390
  H       -0.1671010    -1.8828910    -0.0126110
  H       -3.0325270     1.3382360    -0.0191480
  H        1.1996340     2.1873950     0.0050900
  H       -1.1788320     2.9793390    -0.0057220
  H       -2.5659080    -2.3418330    -0.4157720
  H       -3.1988470    -1.5742060     1.0458220
  H       -3.7365580    -1.0178890    -0.5434620
units angstrom
no_reorient  #important for SAPT in psi4, default
symmetry c1  #important for SAPT in psi4, default
}

set PROPERTIES_ORIGIN ["COM"]
properties('MP2/aug-cc-pvtz', properties = ['dipole'])
--------------------------------------------------------------------------

    Molecular point group: c1
  Charge       = 0
  Multiplicity = 1
  Basis Set: AUG-CC-PVTZ
    Blend: AUG-CC-PVTZ
  Basis Set: (AUG-CC-PVTZ AUX)
    Blend: AUG-CC-PVTZ-JKFIT

    Orbital Energies [Eh]
    ---------------------

    Doubly Occupied:

       1A    -20.611806     2A    -20.607437     3A    -15.856579
       4A    -11.306201     5A    -11.270235     6A    -11.267639
       7A    -11.267059     8A    -11.265401     9A    -11.262339
      10A    -11.243231    11A     -1.587983    12A     -1.398281
      13A     -1.194076    14A     -1.095752    15A     -1.062624
      16A     -0.965545    17A     -0.953636    18A     -0.846909
      19A     -0.818390    20A     -0.762718    21A     -0.727874
      22A     -0.710492    23A     -0.699117    24A     -0.663727
      25A     -0.632971    26A     -0.601169    27A     -0.596034
      28A     -0.563415    29A     -0.540129    30A     -0.518672
      31A     -0.518038    32A     -0.501503    33A     -0.488148
      34A     -0.459049    35A     -0.370677    36A     -0.353280

  @DF-RHF Final Energy:  -473.36783136315063

   => Energetics <=

    Nuclear Repulsion Energy =            494.6315370743993753
    One-Electron Energy =               -1624.8224654249208925
    Two-Electron Energy =                 656.8230969873708318
    Total Energy =                       -473.3678313631506853
  Basis Set: (AUG-CC-PVTZ AUX)
    Blend: AUG-CC-PVTZ-RI
    Molecular point group: c1

    Geometry (in Angstrom), charge = 0, multiplicity = 1:

       Center              X                  Y                   Z               Mass
    ------------   -----------------  -----------------  -----------------  -----------------
         O            2.726015421528     0.577889461781     0.020223483160    15.994914619570
         O            2.113845821528    -1.595288638219    -0.016027016840    15.994914619570
         N            1.919817821528    -0.367770638219     0.001104983160    14.003074004430
         C           -1.824624178472    -0.403119638219    -0.013015016840    12.000000000000
         C           -0.495562178472    -0.838774638219    -0.006592016840    12.000000000000
         C            0.527182821528     0.105570361781     0.000436983160    12.000000000000
         C           -2.082556178472     0.975113361781    -0.009747016840    12.000000000000
         C            0.289236821528     1.477114361781     0.003045983160    12.000000000000
         C           -1.038794178472     1.902239361781    -0.003271016840    12.000000000000
         C           -2.953909178472    -1.399207638219     0.017533983160    12.000000000000
         H           -0.247733178472    -1.895620638219    -0.012316016840     1.007825032230
         H           -3.113159178472     1.325506361781    -0.018853016840     1.007825032230
         H            1.119001821528     2.174665361781     0.005384983160     1.007825032230
         H           -1.259464178472     2.966609361781    -0.005427016840     1.007825032230
         H           -2.646540178472    -2.354562638219    -0.415477016840     1.007825032230
         H           -3.279479178472    -1.586935638219     1.046116983160     1.007825032230
         H           -3.817190178472    -1.030618638219    -0.543167016840     1.007825032230

  Basis Set: AUG-CC-PVTZ
    Blend: AUG-CC-PVTZ
  Basis Set: (AUG-CC-PVTZ AUX)
    Blend: AUG-CC-PVTZ-JKFIT
	 Reference Energy          =    -473.3678313631506285 [Eh]
	 Singles Energy            =      -0.0000000000000000 [Eh]
	 Same-Spin Energy          =      -0.5035420290228646 [Eh]
	 Opposite-Spin Energy      =      -1.5168927617193615 [Eh]
	 Correlation Energy        =      -2.0204347907422262 [Eh]
	 Total Energy              =    -475.3882661538928573 [Eh]

	 ================> DF-SCS-MP2 Energies <==================
	-----------------------------------------------------------
	 SCS Same-Spin Scale       =       0.3333333333333333 [-]
	 SCS Opposite-Spin Scale   =       1.2000000000000000 [-]
	 SCS Same-Spin Energy      =      -0.1678473430076215 [Eh]
	 SCS Opposite-Spin Energy  =      -1.8202713140632336 [Eh]
	 SCS Correlation Energy    =      -1.9881186570708551 [Eh]
	 SCS Total Energy          =    -475.3559500202214849 [Eh]
	-----------------------------------------------------------

  Dipole Moment: [D]
     X:    -4.2209      Y:     0.9038      Z:     0.0342     Total:     4.3167

*** Psi4 exiting successfully. Buy a developer a beer!
