                               Psi4 1.3.2 release

  ==> Input File <==

--------------------------------------------------------------------------
#psi4
#
memory 32 gb

molecule  {
0 1
  O        2.9010970     0.5011680     0.0190930
  O        2.1944780    -1.5825590    -0.0163220
  N        2.0004500    -0.3550410     0.0008100
  C       -1.7286586    -0.4084690    -0.0246684
  C       -0.4149300    -0.8260450    -0.0068870
  C        0.6078150     0.1183000     0.0001420
  C       -2.0019240     0.9878430    -0.0100420
  C        0.3698690     1.4898440     0.0027510
  C       -0.9581620     1.9149690    -0.0035660
  C       -2.8732770    -1.3864780     0.0172390
  H       -0.1671010    -1.8828910    -0.0126110
  H       -3.0325270     1.3382360    -0.0191480
  H        1.1996340     2.1873950     0.0050900
  H       -1.1788320     2.9793390    -0.0057220
  H       -2.5659080    -2.3418330    -0.4157720
  H       -3.1988470    -1.5742060     1.0458220
  H       -3.7365580    -1.0178890    -0.5434620
units angstrom
no_reorient  #important for SAPT in psi4, default
symmetry c1  #important for SAPT in psi4, default
}

set PROPERTIES_ORIGIN ["COM"]
properties('MP2/aug-cc-pvtz', properties = ['dipole'])
--------------------------------------------------------------------------

    Molecular point group: c1
  Charge       = 0
  Multiplicity = 1
  Basis Set: AUG-CC-PVTZ
    Blend: AUG-CC-PVTZ
  Basis Set: (AUG-CC-PVTZ AUX)
    Blend: AUG-CC-PVTZ-JKFIT

    Orbital Energies [Eh]
    ---------------------

    Doubly Occupied:

       1A    -20.603116     2A    -20.602790     3A    -15.853201
       4A    -11.311337     5A    -11.272916     6A    -11.272753
       7A    -11.271025     8A    -11.267554     9A    -11.265333
      10A    -11.244930    11A     -1.586359    12A     -1.384878
      13A     -1.198389    14A     -1.099158    15A     -1.067031
      16A     -0.970171    17A     -0.954155    18A     -0.845916
      19A     -0.818695    20A     -0.763116    21A     -0.721897
      22A     -0.706984    23A     -0.702658    24A     -0.664497
      25A     -0.634641    26A     -0.604298    27A     -0.597607
      28A     -0.565258    29A     -0.546723    30A     -0.521515
      31A     -0.516461    32A     -0.493559    33A     -0.491479
      34A     -0.451070    35A     -0.373078    36A     -0.357384

  @DF-RHF Final Energy:  -473.37229850623902

   => Energetics <=

    Nuclear Repulsion Energy =            493.5920353844966826
    One-Electron Energy =               -1622.7248055914012639
    Two-Electron Energy =                 655.7604717006655619
    Total Energy =                       -473.3722985062389625
  Basis Set: (AUG-CC-PVTZ AUX)
    Blend: AUG-CC-PVTZ-RI
    Molecular point group: c1

    Geometry (in Angstrom), charge = 0, multiplicity = 1:

       Center              X                  Y                   Z               Mass
    ------------   -----------------  -----------------  -----------------  -----------------
         O            2.808098972592     0.500461263048     0.020480045082    15.994914619570
         O            2.101479972592    -1.583265736952    -0.014934954918    15.994914619570
         N            1.907451972592    -0.355747736952     0.002197045082    14.003074004430
         C           -1.821656627408    -0.409175736952    -0.023281354918    12.000000000000
         C           -0.507928027408    -0.826751736952    -0.005499954918    12.000000000000
         C            0.514816972592     0.117593263048     0.001529045082    12.000000000000
         C           -2.094922027408     0.987136263048    -0.008654954918    12.000000000000
         C            0.276870972592     1.489137263048     0.004138045082    12.000000000000
         C           -1.051160027408     1.914262263048    -0.002178954918    12.000000000000
         C           -2.966275027408    -1.387184736952     0.018626045082    12.000000000000
         H           -0.260099027408    -1.883597736952    -0.011223954918     1.007825032230
         H           -3.125525027408     1.337529263048    -0.017760954918     1.007825032230
         H            1.106635972592     2.186688263048     0.006477045082     1.007825032230
         H           -1.271830027408     2.978632263048    -0.004334954918     1.007825032230
         H           -2.658906027408    -2.342539736952    -0.414384954918     1.007825032230
         H           -3.291845027408    -1.574912736952     1.047209045082     1.007825032230
         H           -3.829556027408    -1.018595736952    -0.542074954918     1.007825032230

  Basis Set: AUG-CC-PVTZ
    Blend: AUG-CC-PVTZ
  Basis Set: (AUG-CC-PVTZ AUX)
    Blend: AUG-CC-PVTZ-JKFIT
	 Reference Energy          =    -473.3722985062390194 [Eh]
	 Singles Energy            =      -0.0000000000000000 [Eh]
	 Same-Spin Energy          =      -0.5029164073499319 [Eh]
	 Opposite-Spin Energy      =      -1.5160218969546184 [Eh]
	 Correlation Energy        =      -2.0189383043045503 [Eh]
	 Total Energy              =    -475.3912368105435462 [Eh]

	 ================> DF-SCS-MP2 Energies <==================
	-----------------------------------------------------------
	 SCS Same-Spin Scale       =       0.3333333333333333 [-]
	 SCS Opposite-Spin Scale   =       1.2000000000000000 [-]
	 SCS Same-Spin Energy      =      -0.1676388024499773 [Eh]
	 SCS Opposite-Spin Energy  =      -1.8192262763455420 [Eh]
	 SCS Correlation Energy    =      -1.9868650787955193 [Eh]
	 SCS Total Energy          =    -475.3591635850345369 [Eh]
	-----------------------------------------------------------

  Dipole Moment: [D]
     X:    -4.5732      Y:     1.0662      Z:     0.0388     Total:     4.6960

*** Psi4 exiting successfully. Buy a developer a beer!
