                               Psi4 1.3.2 release

  ==> Input File <==

--------------------------------------------------------------------------
#psi4
#
memory 32 gb

molecule  {
0 1
  O        2.9010970     0.5011680     0.0190930
  O        2.1944780    -1.5825590    -0.0163220
  N        2.0004500    -0.3550410     0.0008100
  C       -1.7439920    -0.3903900    -0.0133100
  C       -0.4149300    -0.8260450    -0.0068870
  C        0.6812846     0.1861377     0.0006469
  C       -2.0019240     0.9878430    -0.0100420
  C        0.3698690     1.4898440     0.0027510
  C       -0.9581620     1.9149690    -0.0035660
  C       -2.8732770    -1.3864780     0.0172390
  H       -0.1671010    -1.8828910    -0.0126110
  H       -3.0325270     1.3382360    -0.0191480
  H        1.1996340     2.1873950     0.0050900
  H       -1.1788320     2.9793390    -0.0057220
  H       -2.5659080    -2.3418330    -0.4157720
  H       -3.1988470    -1.5742060     1.0458220
  H       -3.7365580    -1.0178890    -0.5434620
units angstrom
no_reorient  #important for SAPT in psi4, default
symmetry c1  #important for SAPT in psi4, default
}

set PROPERTIES_ORIGIN ["COM"]
properties('MP2/aug-cc-pvtz', properties = ['dipole'])
--------------------------------------------------------------------------

    Molecular point group: c1
  Charge       = 0
  Multiplicity = 1
  Basis Set: AUG-CC-PVTZ
    Blend: AUG-CC-PVTZ
  Basis Set: (AUG-CC-PVTZ AUX)
    Blend: AUG-CC-PVTZ-JKFIT

    Orbital Energies [Eh]
    ---------------------

    Doubly Occupied:

       1A    -20.604566     2A    -20.600822     3A    -15.854461
       4A    -11.310390     5A    -11.277877     6A    -11.272400
       7A    -11.271024     8A    -11.270288     9A    -11.265947
      10A    -11.244650    11A     -1.590594    12A     -1.386600
      13A     -1.195905    14A     -1.109501    15A     -1.064691
      16A     -0.966457    17A     -0.960228    18A     -0.854845
      19A     -0.812537    20A     -0.760399    21A     -0.724294
      22A     -0.711958    23A     -0.705915    24A     -0.660553
      25A     -0.633682    26A     -0.599576    27A     -0.596749
      28A     -0.567018    29A     -0.541602    30A     -0.518942
      31A     -0.517992    32A     -0.495205    33A     -0.490983
      34A     -0.451945    35A     -0.373260    36A     -0.355152

  @DF-RHF Final Energy:  -473.36085766953136

   => Energetics <=

    Nuclear Repulsion Energy =            493.4473714815633230
    One-Electron Energy =               -1622.3784340993356636
    Two-Electron Energy =                 655.5702049482409848
    Total Energy =                       -473.3608576695313559
  Basis Set: (AUG-CC-PVTZ AUX)
    Blend: AUG-CC-PVTZ-RI
    Molecular point group: c1

    Geometry (in Angstrom), charge = 0, multiplicity = 1:

       Center              X                  Y                   Z               Mass
    ------------   -----------------  -----------------  -----------------  -----------------
         O            2.803008522263     0.492938330799     0.019441285421    15.994914619570
         O            2.096389522263    -1.590788669201    -0.015973714579    15.994914619570
         N            1.902361522263    -0.363270669201     0.001158285421    14.003074004430
         C           -1.842080477737    -0.398619669201    -0.012961714579    12.000000000000
         C           -0.513018477737    -0.834274669201    -0.006538714579    12.000000000000
         C            0.583196122263     0.177908030799     0.000995185421    12.000000000000
         C           -2.100012477737     0.979613330799    -0.009693714579    12.000000000000
         C            0.271780522263     1.481614330799     0.003099285421    12.000000000000
         C           -1.056250477737     1.906739330799    -0.003217714579    12.000000000000
         C           -2.971365477737    -1.394707669201     0.017587285421    12.000000000000
         H           -0.265189477737    -1.891120669201    -0.012262714579     1.007825032230
         H           -3.130615477737     1.330006330799    -0.018799714579     1.007825032230
         H            1.101545522263     2.179165330799     0.005438285421     1.007825032230
         H           -1.276920477737     2.971109330799    -0.005373714579     1.007825032230
         H           -2.663996477737    -2.350062669201    -0.415423714579     1.007825032230
         H           -3.296935477737    -1.582435669201     1.046170285421     1.007825032230
         H           -3.834646477737    -1.026118669201    -0.543113714579     1.007825032230

  Basis Set: AUG-CC-PVTZ
    Blend: AUG-CC-PVTZ
  Basis Set: (AUG-CC-PVTZ AUX)
    Blend: AUG-CC-PVTZ-JKFIT
	 Reference Energy          =    -473.3608576695313559 [Eh]
	 Singles Energy            =      -0.0000000000000000 [Eh]
	 Same-Spin Energy          =      -0.5028835417489517 [Eh]
	 Opposite-Spin Energy      =      -1.5165997046866930 [Eh]
	 Correlation Energy        =      -2.0194832464356445 [Eh]
	 Total Energy              =    -475.3803409159669968 [Eh]

	 ================> DF-SCS-MP2 Energies <==================
	-----------------------------------------------------------
	 SCS Same-Spin Scale       =       0.3333333333333333 [-]
	 SCS Opposite-Spin Scale   =       1.2000000000000000 [-]
	 SCS Same-Spin Energy      =      -0.1676278472496505 [Eh]
	 SCS Opposite-Spin Energy  =      -1.8199196456240316 [Eh]
	 SCS Correlation Energy    =      -1.9875474928736823 [Eh]
	 SCS Total Energy          =    -475.3484051624050153 [Eh]
	-----------------------------------------------------------

  Dipole Moment: [D]
     X:    -4.5788      Y:     1.1078      Z:     0.0344     Total:     4.7111

*** Psi4 exiting successfully. Buy a developer a beer!
