                               Psi4 1.3.2 release

  ==> Input File <==

--------------------------------------------------------------------------
#psi4
#
memory 32 gb

molecule  {
0 1
  O        2.9010970     0.5011680     0.0190930
  O        2.1944780    -1.5825590    -0.0163220
  N        2.0004500    -0.3550410     0.0008100
  C       -1.7439920    -0.3903900    -0.0133100
  C       -0.4149300    -0.8260450    -0.0068870
  C        0.6078150     0.1183000     0.0001420
  C       -2.0019240     0.9878430    -0.0100420
  C        0.3698690     1.4898440     0.0027510
  C       -0.9581620     1.9149690    -0.0035660
  C       -2.7233179    -1.2542063     0.0131824
  H       -0.1671010    -1.8828910    -0.0126110
  H       -3.0325270     1.3382360    -0.0191480
  H        1.1996340     2.1873950     0.0050900
  H       -1.1788320     2.9793390    -0.0057220
  H       -2.5659080    -2.3418330    -0.4157720
  H       -3.1988470    -1.5742060     1.0458220
  H       -3.7365580    -1.0178890    -0.5434620
units angstrom
no_reorient  #important for SAPT in psi4, default
symmetry c1  #important for SAPT in psi4, default
}

set PROPERTIES_ORIGIN ["COM"]
properties('MP2/aug-cc-pvtz', properties = ['dipole'])
--------------------------------------------------------------------------

    Molecular point group: c1
  Charge       = 0
  Multiplicity = 1
  Basis Set: AUG-CC-PVTZ
    Blend: AUG-CC-PVTZ
  Basis Set: (AUG-CC-PVTZ AUX)
    Blend: AUG-CC-PVTZ-JKFIT

    Orbital Energies [Eh]
    ---------------------

    Doubly Occupied:

       1A    -20.603960     2A    -20.603908     3A    -15.854008
       4A    -11.312315     5A    -11.272763     6A    -11.271405
       7A    -11.269248     8A    -11.266056     9A    -11.261475
      10A    -11.254836    11A     -1.587252    12A     -1.385770
      13A     -1.207050    14A     -1.123036    15A     -1.073993
      16A     -0.970808    17A     -0.955421    18A     -0.848891
      19A     -0.815469    20A     -0.764282    21A     -0.724225
      22A     -0.707827    23A     -0.703877    24A     -0.670783
      25A     -0.655081    26A     -0.623451    27A     -0.589352
      28A     -0.558381    29A     -0.543997    30A     -0.507608
      31A     -0.507099    32A     -0.493398    33A     -0.487056
      34A     -0.451752    35A     -0.374612    36A     -0.347295

  @DF-RHF Final Energy:  -473.32024586969146

   => Energetics <=

    Nuclear Repulsion Energy =            497.2748002487927010
    One-Electron Energy =               -1629.8946146248340483
    Two-Electron Energy =                 659.2995685063499423
    Total Energy =                       -473.3202458696914618
  Basis Set: (AUG-CC-PVTZ AUX)
    Blend: AUG-CC-PVTZ-RI
    Molecular point group: c1

    Geometry (in Angstrom), charge = 0, multiplicity = 1:

       Center              X                  Y                   Z               Mass
    ------------   -----------------  -----------------  -----------------  -----------------
         O            2.796311042888     0.487296440264     0.019840693865    15.994914619570
         O            2.089692042888    -1.596430559736    -0.015574306135    15.994914619570
         N            1.895664042888    -0.368912559736     0.001557693865    14.003074004430
         C           -1.848777957112    -0.404261559736    -0.012562306135    12.000000000000
         C           -0.519715957112    -0.839916559736    -0.006139306135    12.000000000000
         C            0.503029042888     0.104428440264     0.000889693865    12.000000000000
         C           -2.106709957112     0.973971440264    -0.009294306135    12.000000000000
         C            0.265083042888     1.475972440264     0.003498693865    12.000000000000
         C           -1.062947957112     1.901097440264    -0.002818306135    12.000000000000
         C           -2.828103857112    -1.268077859736     0.013930093865    12.000000000000
         H           -0.271886957112    -1.896762559736    -0.011863306135     1.007825032230
         H           -3.137312957112     1.324364440264    -0.018400306135     1.007825032230
         H            1.094848042888     2.173523440264     0.005837693865     1.007825032230
         H           -1.283617957112     2.965467440264    -0.004974306135     1.007825032230
         H           -2.670693957112    -2.355704559736    -0.415024306135     1.007825032230
         H           -3.303632957112    -1.588077559736     1.046569693865     1.007825032230
         H           -3.841343957112    -1.031760559736    -0.542714306135     1.007825032230

  Basis Set: AUG-CC-PVTZ
    Blend: AUG-CC-PVTZ
  Basis Set: (AUG-CC-PVTZ AUX)
    Blend: AUG-CC-PVTZ-JKFIT
	 Reference Energy          =    -473.3202458696914618 [Eh]
	 Singles Energy            =      -0.0000000000000000 [Eh]
	 Same-Spin Energy          =      -0.5065049815086307 [Eh]
	 Opposite-Spin Energy      =      -1.5207241634470865 [Eh]
	 Correlation Energy        =      -2.0272291449557169 [Eh]
	 Total Energy              =    -475.3474750146471592 [Eh]

	 ================> DF-SCS-MP2 Energies <==================
	-----------------------------------------------------------
	 SCS Same-Spin Scale       =       0.3333333333333333 [-]
	 SCS Opposite-Spin Scale   =       1.2000000000000000 [-]
	 SCS Same-Spin Energy      =      -0.1688349938362102 [Eh]
	 SCS Opposite-Spin Energy  =      -1.8248689961365037 [Eh]
	 SCS Correlation Energy    =      -1.9937039899727138 [Eh]
	 SCS Total Energy          =    -475.3139498596641488 [Eh]
	-----------------------------------------------------------

  Dipole Moment: [D]
     X:    -4.5809      Y:     1.0368      Z:     0.0522     Total:     4.6971

*** Psi4 exiting successfully. Buy a developer a beer!
