                               Psi4 1.3.2 release

  ==> Input File <==

--------------------------------------------------------------------------
#psi4
#
memory 32 gb

molecule  {
0 1
  O        2.9010970     0.5011680     0.0190930
  O        2.1944780    -1.5825590    -0.0163220
  N        2.0084986    -0.3306644     0.0009511
  C       -1.7439920    -0.3903900    -0.0133100
  C       -0.4149300    -0.8260450    -0.0068870
  C        0.6078150     0.1183000     0.0001420
  C       -2.0019240     0.9878430    -0.0100420
  C        0.3698690     1.4898440     0.0027510
  C       -0.9581620     1.9149690    -0.0035660
  C       -2.8732770    -1.3864780     0.0172390
  H       -0.1671010    -1.8828910    -0.0126110
  H       -3.0325270     1.3382360    -0.0191480
  H        1.1996340     2.1873950     0.0050900
  H       -1.1788320     2.9793390    -0.0057220
  H       -2.5659080    -2.3418330    -0.4157720
  H       -3.1988470    -1.5742060     1.0458220
  H       -3.7365580    -1.0178890    -0.5434620
units angstrom
no_reorient  #important for SAPT in psi4, default
symmetry c1  #important for SAPT in psi4, default
}

set PROPERTIES_ORIGIN ["COM"]
properties('MP2/aug-cc-pvtz', properties = ['dipole'])
--------------------------------------------------------------------------

    Molecular point group: c1
  Charge       = 0
  Multiplicity = 1
  Basis Set: AUG-CC-PVTZ
    Blend: AUG-CC-PVTZ
  Basis Set: (AUG-CC-PVTZ AUX)
    Blend: AUG-CC-PVTZ-JKFIT

    Orbital Energies [Eh]
    ---------------------

    Doubly Occupied:

       1A    -20.612779     2A    -20.593619     3A    -15.853110
       4A    -11.311465     5A    -11.272979     6A    -11.271904
       7A    -11.270468     8A    -11.268485     9A    -11.265285
      10A    -11.244877    11A     -1.589684    12A     -1.382646
      13A     -1.198075    14A     -1.100945    15A     -1.064942
      16A     -0.969544    17A     -0.954911    18A     -0.848088
      19A     -0.817674    20A     -0.763103    21A     -0.722458
      22A     -0.708032    23A     -0.703003    24A     -0.664374
      25A     -0.634984    26A     -0.603727    27A     -0.597784
      28A     -0.564913    29A     -0.543608    30A     -0.521476
      31A     -0.520730    32A     -0.494573    33A     -0.488734
      34A     -0.450839    35A     -0.373577    36A     -0.356502

  @DF-RHF Final Energy:  -473.37213988609238

   => Energetics <=

    Nuclear Repulsion Energy =            493.5303287546438469
    One-Electron Energy =               -1622.5971435271285372
    Two-Electron Energy =                 655.6946748863921357
    Total Energy =                       -473.3721398860924410
  Basis Set: (AUG-CC-PVTZ AUX)
    Blend: AUG-CC-PVTZ-RI
    Molecular point group: c1

    Geometry (in Angstrom), charge = 0, multiplicity = 1:

       Center              X                  Y                   Z               Mass
    ------------   -----------------  -----------------  -----------------  -----------------
         O            2.808619197812     0.496387532358     0.019471077726    15.994914619570
         O            2.102000197812    -1.587339467642    -0.015943922274    15.994914619570
         N            1.916020797812    -0.335444867642     0.001329177726    14.003074004430
         C           -1.836469802188    -0.395170467642    -0.012931922274    12.000000000000
         C           -0.507407802188    -0.830825467642    -0.006508922274    12.000000000000
         C            0.515337197812     0.113519532358     0.000520077726    12.000000000000
         C           -2.094401802188     0.983062532358    -0.009663922274    12.000000000000
         C            0.277391197812     1.485063532358     0.003129077726    12.000000000000
         C           -1.050639802188     1.910188532358    -0.003187922274    12.000000000000
         C           -2.965754802188    -1.391258467642     0.017617077726    12.000000000000
         H           -0.259578802188    -1.887671467642    -0.012232922274     1.007825032230
         H           -3.125004802188     1.333455532358    -0.018769922274     1.007825032230
         H            1.107156197812     2.182614532358     0.005468077726     1.007825032230
         H           -1.271309802188     2.974558532358    -0.005343922274     1.007825032230
         H           -2.658385802188    -2.346613467642    -0.415393922274     1.007825032230
         H           -3.291324802188    -1.578986467642     1.046200077726     1.007825032230
         H           -3.829035802188    -1.022669467642    -0.543083922274     1.007825032230

  Basis Set: AUG-CC-PVTZ
    Blend: AUG-CC-PVTZ
  Basis Set: (AUG-CC-PVTZ AUX)
    Blend: AUG-CC-PVTZ-JKFIT
	 Reference Energy          =    -473.3721398860923841 [Eh]
	 Singles Energy            =      -0.0000000000000000 [Eh]
	 Same-Spin Energy          =      -0.5028559679336645 [Eh]
	 Opposite-Spin Energy      =      -1.5158254617520390 [Eh]
	 Correlation Energy        =      -2.0186814296857034 [Eh]
	 Total Energy              =    -475.3908213157781120 [Eh]

	 ================> DF-SCS-MP2 Energies <==================
	-----------------------------------------------------------
	 SCS Same-Spin Scale       =       0.3333333333333333 [-]
	 SCS Opposite-Spin Scale   =       1.2000000000000000 [-]
	 SCS Same-Spin Energy      =      -0.1676186559778882 [Eh]
	 SCS Opposite-Spin Energy  =      -1.8189905541024467 [Eh]
	 SCS Correlation Energy    =      -1.9866092100803350 [Eh]
	 SCS Total Energy          =    -475.3587490961727440 [Eh]
	-----------------------------------------------------------

  Dipole Moment: [D]
     X:    -4.5353      Y:     1.1733      Z:     0.0367     Total:     4.6848

*** Psi4 exiting successfully. Buy a developer a beer!
