                               Psi4 1.3.2 release

  ==> Input File <==

--------------------------------------------------------------------------
#psi4
#
memory 32 gb

molecule  {
0 1
  O        2.8860140     0.5167558     0.0192464
  O        2.1944780    -1.5825590    -0.0163220
  N        2.0004500    -0.3550410     0.0008100
  C       -1.7439920    -0.3903900    -0.0133100
  C       -0.4149300    -0.8260450    -0.0068870
  C        0.6078150     0.1183000     0.0001420
  C       -2.0019240     0.9878430    -0.0100420
  C        0.3698690     1.4898440     0.0027510
  C       -0.9581620     1.9149690    -0.0035660
  C       -2.8732770    -1.3864780     0.0172390
  H       -0.1671010    -1.8828910    -0.0126110
  H       -3.0325270     1.3382360    -0.0191480
  H        1.1996340     2.1873950     0.0050900
  H       -1.1788320     2.9793390    -0.0057220
  H       -2.5659080    -2.3418330    -0.4157720
  H       -3.1988470    -1.5742060     1.0458220
  H       -3.7365580    -1.0178890    -0.5434620
units angstrom
no_reorient  #important for SAPT in psi4, default
symmetry c1  #important for SAPT in psi4, default
}

set PROPERTIES_ORIGIN ["COM"]
properties('MP2/aug-cc-pvtz', properties = ['dipole'])
--------------------------------------------------------------------------

    Molecular point group: c1
  Charge       = 0
  Multiplicity = 1
  Basis Set: AUG-CC-PVTZ
    Blend: AUG-CC-PVTZ
  Basis Set: (AUG-CC-PVTZ AUX)
    Blend: AUG-CC-PVTZ-JKFIT

    Orbital Energies [Eh]
    ---------------------

    Doubly Occupied:

       1A    -20.604683     2A    -20.604031     3A    -15.853923
       4A    -11.310603     5A    -11.272560     6A    -11.271257
       7A    -11.269910     8A    -11.267985     9A    -11.264810
      10A    -11.244736    11A     -1.586765    12A     -1.387376
      13A     -1.197476    14A     -1.099850    15A     -1.065012
      16A     -0.968260    17A     -0.955092    18A     -0.848096
      19A     -0.817461    20A     -0.762361    21A     -0.723203
      22A     -0.707693    23A     -0.702149    24A     -0.664443
      25A     -0.635005    26A     -0.602960    27A     -0.597608
      28A     -0.564966    29A     -0.542779    30A     -0.520933
      31A     -0.520248    32A     -0.493825    33A     -0.492256
      34A     -0.452569    35A     -0.373305    36A     -0.355861

  @DF-RHF Final Energy:  -473.37272820954541

   => Energetics <=

    Nuclear Repulsion Energy =            493.6984957192549928
    One-Electron Energy =               -1622.9383452552081053
    Two-Electron Energy =                 655.8671213264076414
    Total Energy =                       -473.3727282095453575
  Basis Set: (AUG-CC-PVTZ AUX)
    Blend: AUG-CC-PVTZ-RI
    Molecular point group: c1

    Geometry (in Angstrom), charge = 0, multiplicity = 1:

       Center              X                  Y                   Z               Mass
    ------------   -----------------  -----------------  -----------------  -----------------
         O            2.796118922617     0.512646790676     0.019620991449    15.994914619570
         O            2.104582922617    -1.586668009324    -0.015947408551    15.994914619570
         N            1.910554922617    -0.359150009324     0.001184591449    14.003074004430
         C           -1.833887077383    -0.394499009324    -0.012935408551    12.000000000000
         C           -0.504825077383    -0.830154009324    -0.006512408551    12.000000000000
         C            0.517919922617     0.114190990676     0.000516591449    12.000000000000
         C           -2.091819077383     0.983733990676    -0.009667408551    12.000000000000
         C            0.279973922617     1.485734990676     0.003125591449    12.000000000000
         C           -1.048057077383     1.910859990676    -0.003191408551    12.000000000000
         C           -2.963172077383    -1.390587009324     0.017613591449    12.000000000000
         H           -0.256996077383    -1.887000009324    -0.012236408551     1.007825032230
         H           -3.122422077383     1.334126990676    -0.018773408551     1.007825032230
         H            1.109738922617     2.183285990676     0.005464591449     1.007825032230
         H           -1.268727077383     2.975229990676    -0.005347408551     1.007825032230
         H           -2.655803077383    -2.345942009324    -0.415397408551     1.007825032230
         H           -3.288742077383    -1.578315009324     1.046196591449     1.007825032230
         H           -3.826453077383    -1.021998009324    -0.543087408551     1.007825032230

  Basis Set: AUG-CC-PVTZ
    Blend: AUG-CC-PVTZ
  Basis Set: (AUG-CC-PVTZ AUX)
    Blend: AUG-CC-PVTZ-JKFIT
	 Reference Energy          =    -473.3727282095454143 [Eh]
	 Singles Energy            =      -0.0000000000000000 [Eh]
	 Same-Spin Energy          =      -0.5030382606275525 [Eh]
	 Opposite-Spin Energy      =      -1.5161409272528175 [Eh]
	 Correlation Energy        =      -2.0191791878803702 [Eh]
	 Total Energy              =    -475.3919073974257685 [Eh]

	 ================> DF-SCS-MP2 Energies <==================
	-----------------------------------------------------------
	 SCS Same-Spin Scale       =       0.3333333333333333 [-]
	 SCS Opposite-Spin Scale   =       1.2000000000000000 [-]
	 SCS Same-Spin Energy      =      -0.1676794202091842 [Eh]
	 SCS Opposite-Spin Energy  =      -1.8193691127033809 [Eh]
	 SCS Correlation Energy    =      -1.9870485329125651 [Eh]
	 SCS Total Energy          =    -475.3597767424579956 [Eh]
	-----------------------------------------------------------

  Dipole Moment: [D]
     X:    -4.5122      Y:     1.0302      Z:     0.0347     Total:     4.6284

*** Psi4 exiting successfully. Buy a developer a beer!
