                               Psi4 1.3.2 release

  ==> Input File <==

--------------------------------------------------------------------------
#psi4
#
memory 32 gb

molecule  {
0 1
  O        2.9010970     0.5011680     0.0190930
  O        2.1944780    -1.5825590    -0.0163220
  N        2.0004500    -0.3550410     0.0008100
  C       -1.7439920    -0.3903900    -0.0133100
  C       -0.4485583    -0.9176599    -0.0043446
  C        0.6078150     0.1183000     0.0001420
  C       -2.0019240     0.9878430    -0.0100420
  C        0.3698690     1.4898440     0.0027510
  C       -0.9581620     1.9149690    -0.0035660
  C       -2.8732770    -1.3864780     0.0172390
  H       -0.1671010    -1.8828910    -0.0126110
  H       -3.0325270     1.3382360    -0.0191480
  H        1.1996340     2.1873950     0.0050900
  H       -1.1788320     2.9793390    -0.0057220
  H       -2.5659080    -2.3418330    -0.4157720
  H       -3.1988470    -1.5742060     1.0458220
  H       -3.7365580    -1.0178890    -0.5434620
units angstrom
no_reorient  #important for SAPT in psi4, default
symmetry c1  #important for SAPT in psi4, default
}

set PROPERTIES_ORIGIN ["COM"]
properties('MP2/aug-cc-pvtz', properties = ['dipole'])
--------------------------------------------------------------------------

    Molecular point group: c1
  Charge       = 0
  Multiplicity = 1
  Basis Set: AUG-CC-PVTZ
    Blend: AUG-CC-PVTZ
  Basis Set: (AUG-CC-PVTZ AUX)
    Blend: AUG-CC-PVTZ-JKFIT

    Orbital Energies [Eh]
    ---------------------

    Doubly Occupied:

       1A    -20.601983     2A    -20.601408     3A    -15.851667
       4A    -11.318692     5A    -11.274934     6A    -11.274415
       7A    -11.273714     8A    -11.270837     9A    -11.267963
      10A    -11.242680    11A     -1.585105    12A     -1.383758
      13A     -1.190688    14A     -1.098478    15A     -1.067268
      16A     -0.964184    17A     -0.956194    18A     -0.854454
      19A     -0.812713    20A     -0.753909    21A     -0.721886
      22A     -0.714444    23A     -0.705227    24A     -0.661660
      25A     -0.644241    26A     -0.606091    27A     -0.596996
      28A     -0.568529    29A     -0.544571    30A     -0.518272
      31A     -0.515814    32A     -0.492067    33A     -0.488328
      34A     -0.450378    35A     -0.367073    36A     -0.359449

  @DF-RHF Final Energy:  -473.35932059446316

   => Energetics <=

    Nuclear Repulsion Energy =            492.1307060787545424
    One-Electron Energy =               -1619.7799069327661527
    Two-Electron Energy =                 654.2898802595485677
    Total Energy =                       -473.3593205944631563
  Basis Set: (AUG-CC-PVTZ AUX)
    Blend: AUG-CC-PVTZ-RI
    Molecular point group: c1

    Geometry (in Angstrom), charge = 0, multiplicity = 1:

       Center              X                  Y                   Z               Mass
    ------------   -----------------  -----------------  -----------------  -----------------
         O            2.812386096654     0.506900122939     0.019262880356    15.994914619570
         O            2.105767096654    -1.576826877061    -0.016152119644    15.994914619570
         N            1.911739096654    -0.349308877061     0.000979880356    14.003074004430
         C           -1.832702903346    -0.384657877061    -0.013140119644    12.000000000000
         C           -0.537269203346    -0.911927777061    -0.004174719644    12.000000000000
         C            0.519104096654     0.124032122939     0.000311880356    12.000000000000
         C           -2.090634903346     0.993575122939    -0.009872119644    12.000000000000
         C            0.281158096654     1.495576122939     0.002920880356    12.000000000000
         C           -1.046872903346     1.920701122939    -0.003396119644    12.000000000000
         C           -2.961987903346    -1.380745877061     0.017408880356    12.000000000000
         H           -0.255811903346    -1.877158877061    -0.012441119644     1.007825032230
         H           -3.121237903346     1.343968122939    -0.018978119644     1.007825032230
         H            1.110923096654     2.193127122939     0.005259880356     1.007825032230
         H           -1.267542903346     2.985071122939    -0.005552119644     1.007825032230
         H           -2.654618903346    -2.336100877061    -0.415602119644     1.007825032230
         H           -3.287557903346    -1.568473877061     1.045991880356     1.007825032230
         H           -3.825268903346    -1.012156877061    -0.543292119644     1.007825032230

  Basis Set: AUG-CC-PVTZ
    Blend: AUG-CC-PVTZ
  Basis Set: (AUG-CC-PVTZ AUX)
    Blend: AUG-CC-PVTZ-JKFIT
	 Reference Energy          =    -473.3593205944631563 [Eh]
	 Singles Energy            =      -0.0000000000000000 [Eh]
	 Same-Spin Energy          =      -0.5029615603359654 [Eh]
	 Opposite-Spin Energy      =      -1.5170707553217890 [Eh]
	 Correlation Energy        =      -2.0200323156577547 [Eh]
	 Total Energy              =    -475.3793529101209288 [Eh]

	 ================> DF-SCS-MP2 Energies <==================
	-----------------------------------------------------------
	 SCS Same-Spin Scale       =       0.3333333333333333 [-]
	 SCS Opposite-Spin Scale   =       1.2000000000000000 [-]
	 SCS Same-Spin Energy      =      -0.1676538534453218 [Eh]
	 SCS Opposite-Spin Energy  =      -1.8204849063861468 [Eh]
	 SCS Correlation Energy    =      -1.9881387598314686 [Eh]
	 SCS Total Energy          =    -475.3474593542946423 [Eh]
	-----------------------------------------------------------

  Dipole Moment: [D]
     X:    -4.5726      Y:     1.1295      Z:     0.0330     Total:     4.7102

*** Psi4 exiting successfully. Buy a developer a beer!
