                               Psi4 1.3.2 release

  ==> Input File <==

--------------------------------------------------------------------------
#psi4
#
memory 32 gb

molecule  {
0 1
  O        2.9010970     0.5011680     0.0190930
  O        2.1944780    -1.5825590    -0.0163220
  N        1.8555136    -0.4928263    -0.0021322
  C       -1.7439920    -0.3903900    -0.0133100
  C       -0.4149300    -0.8260450    -0.0068870
  C        0.6078150     0.1183000     0.0001420
  C       -2.0019240     0.9878430    -0.0100420
  C        0.3698690     1.4898440     0.0027510
  C       -0.9581620     1.9149690    -0.0035660
  C       -2.8732770    -1.3864780     0.0172390
  H       -0.1671010    -1.8828910    -0.0126110
  H       -3.0325270     1.3382360    -0.0191480
  H        1.1996340     2.1873950     0.0050900
  H       -1.1788320     2.9793390    -0.0057220
  H       -2.5659080    -2.3418330    -0.4157720
  H       -3.1988470    -1.5742060     1.0458220
  H       -3.7365580    -1.0178890    -0.5434620
units angstrom
no_reorient  #important for SAPT in psi4, default
symmetry c1  #important for SAPT in psi4, default
}

set PROPERTIES_ORIGIN ["COM"]
properties('MP2/aug-cc-pvtz', properties = ['dipole'])
--------------------------------------------------------------------------

    Molecular point group: c1
  Charge       = 0
  Multiplicity = 1
  Basis Set: AUG-CC-PVTZ
    Blend: AUG-CC-PVTZ
  Basis Set: (AUG-CC-PVTZ AUX)
    Blend: AUG-CC-PVTZ-JKFIT

    Orbital Energies [Eh]
    ---------------------

    Doubly Occupied:

       1A    -20.653836     2A    -20.536177     3A    -15.836030
       4A    -11.310642     5A    -11.279645     6A    -11.277363
       7A    -11.276760     8A    -11.275557     9A    -11.269286
      10A    -11.248703    11A     -1.636164    12A     -1.292162
      13A     -1.205463    14A     -1.120488    15A     -1.074914
      16A     -0.975973    17A     -0.965598    18A     -0.856862
      19A     -0.828878    20A     -0.769961    21A     -0.729227
      22A     -0.719412    23A     -0.709635    24A     -0.665871
      25A     -0.638167    26A     -0.605503    27A     -0.601882
      28A     -0.572046    29A     -0.547513    30A     -0.528722
      31A     -0.526296    32A     -0.471841    33A     -0.441719
      34A     -0.425932    35A     -0.379578    36A     -0.359335

  @DF-RHF Final Energy:  -473.31964141100019

   => Energetics <=

    Nuclear Repulsion Energy =            494.5294727568741564
    One-Electron Energy =               -1624.4719438738750341
    Two-Electron Energy =                 656.6228297060006298
    Total Energy =                       -473.3196414110002479
  Basis Set: (AUG-CC-PVTZ AUX)
    Blend: AUG-CC-PVTZ-RI
    Molecular point group: c1

    Geometry (in Angstrom), charge = 0, multiplicity = 1:

       Center              X                  Y                   Z               Mass
    ------------   -----------------  -----------------  -----------------  -----------------
         O            2.824250694094     0.512956693629     0.019786119021    15.994914619570
         O            2.117631694094    -1.570770306371    -0.015628880979    15.994914619570
         N            1.778667294094    -0.481037606371    -0.001439080979    14.003074004430
         C           -1.820838305906    -0.378601306371    -0.012616880979    12.000000000000
         C           -0.491776305906    -0.814256306371    -0.006193880979    12.000000000000
         C            0.530968694094     0.130088693629     0.000835119021    12.000000000000
         C           -2.078770305906     0.999631693629    -0.009348880979    12.000000000000
         C            0.293022694094     1.501632693629     0.003444119021    12.000000000000
         C           -1.035008305906     1.926757693629    -0.002872880979    12.000000000000
         C           -2.950123305906    -1.374689306371     0.017932119021    12.000000000000
         H           -0.243947305906    -1.871102306371    -0.011917880979     1.007825032230
         H           -3.109373305906     1.350024693629    -0.018454880979     1.007825032230
         H            1.122787694094     2.199183693629     0.005783119021     1.007825032230
         H           -1.255678305906     2.991127693629    -0.005028880979     1.007825032230
         H           -2.642754305906    -2.330044306371    -0.415078880979     1.007825032230
         H           -3.275693305906    -1.562417306371     1.046515119021     1.007825032230
         H           -3.813404305906    -1.006100306371    -0.542768880979     1.007825032230

  Basis Set: AUG-CC-PVTZ
    Blend: AUG-CC-PVTZ
  Basis Set: (AUG-CC-PVTZ AUX)
    Blend: AUG-CC-PVTZ-JKFIT
	 Reference Energy          =    -473.3196414110001911 [Eh]
	 Singles Energy            =      -0.0000000000000000 [Eh]
	 Same-Spin Energy          =      -0.5011482897716248 [Eh]
	 Opposite-Spin Energy      =      -1.5138132823839543 [Eh]
	 Correlation Energy        =      -2.0149615721555794 [Eh]
	 Total Energy              =    -475.3346029831557757 [Eh]

	 ================> DF-SCS-MP2 Energies <==================
	-----------------------------------------------------------
	 SCS Same-Spin Scale       =       0.3333333333333333 [-]
	 SCS Opposite-Spin Scale   =       1.2000000000000000 [-]
	 SCS Same-Spin Energy      =      -0.1670494299238749 [Eh]
	 SCS Opposite-Spin Energy  =      -1.8165759388607450 [Eh]
	 SCS Correlation Energy    =      -1.9836253687846199 [Eh]
	 SCS Total Energy          =    -475.3032667797847921 [Eh]
	-----------------------------------------------------------

  Dipole Moment: [D]
     X:    -5.9412      Y:     0.2706      Z:     0.0138     Total:     5.9474

*** Psi4 exiting successfully. Buy a developer a beer!
