                               Psi4 1.3.2 release

  ==> Input File <==

--------------------------------------------------------------------------
#psi4
#
memory 32 gb

molecule  {
0 1
  O        2.9010970     0.5011680     0.0190930
  O        2.1944780    -1.5825590    -0.0163220
  N        2.0004500    -0.3550410     0.0008100
  C       -1.7439920    -0.3903900    -0.0133100
  C       -0.4149300    -0.8260450    -0.0068870
  C        0.4608757    -0.0173754    -0.0008679
  C       -2.0019240     0.9878430    -0.0100420
  C        0.3698690     1.4898440     0.0027510
  C       -0.9581620     1.9149690    -0.0035660
  C       -2.8732770    -1.3864780     0.0172390
  H       -0.1671010    -1.8828910    -0.0126110
  H       -3.0325270     1.3382360    -0.0191480
  H        1.1996340     2.1873950     0.0050900
  H       -1.1788320     2.9793390    -0.0057220
  H       -2.5659080    -2.3418330    -0.4157720
  H       -3.1988470    -1.5742060     1.0458220
  H       -3.7365580    -1.0178890    -0.5434620
units angstrom
no_reorient  #important for SAPT in psi4, default
symmetry c1  #important for SAPT in psi4, default
}

set PROPERTIES_ORIGIN ["COM"]
properties('MP2/aug-cc-pvtz', properties = ['dipole'])
--------------------------------------------------------------------------

    Molecular point group: c1
  Charge       = 0
  Multiplicity = 1
  Basis Set: AUG-CC-PVTZ
    Blend: AUG-CC-PVTZ
  Basis Set: (AUG-CC-PVTZ AUX)
    Blend: AUG-CC-PVTZ-JKFIT

    Orbital Energies [Eh]
    ---------------------

    Doubly Occupied:

       1A    -20.606787     2A    -20.600650     3A    -15.846848
       4A    -11.310530     5A    -11.276159     6A    -11.274658
       7A    -11.263449     8A    -11.261489     9A    -11.247144
      10A    -11.246034    11A     -1.578656    12A     -1.382227
      13A     -1.215826    14A     -1.091565    15A     -1.069059
      16A     -0.975671    17A     -0.938179    18A     -0.845390
      19A     -0.820041    20A     -0.765670    21A     -0.717584
      22A     -0.704412    23A     -0.697797    24A     -0.663348
      25A     -0.636866    26A     -0.604441    27A     -0.601267
      28A     -0.563066    29A     -0.546246    30A     -0.535323
      31A     -0.524394    32A     -0.490906    33A     -0.468103
      34A     -0.450034    35A     -0.401556    36A     -0.341415

  @DF-RHF Final Energy:  -473.30808683562799

   => Energetics <=

    Nuclear Repulsion Energy =            494.1504850976545526
    One-Electron Energy =               -1623.7915690119941701
    Two-Electron Energy =                 656.3329970787115144
    Total Energy =                       -473.3080868356280462
  Basis Set: (AUG-CC-PVTZ AUX)
    Blend: AUG-CC-PVTZ-RI
    Molecular point group: c1

    Geometry (in Angstrom), charge = 0, multiplicity = 1:

       Center              X                  Y                   Z               Mass
    ------------   -----------------  -----------------  -----------------  -----------------
         O            2.822307694854     0.510758094164     0.019573922472    15.994914619570
         O            2.115688694854    -1.572968905836    -0.015841077528    15.994914619570
         N            1.921660694854    -0.345450905836     0.001290922472    14.003074004430
         C           -1.822781305146    -0.380799905836    -0.012829077528    12.000000000000
         C           -0.493719305146    -0.816454905836    -0.006406077528    12.000000000000
         C            0.382086394854    -0.007785305836    -0.000386977528    12.000000000000
         C           -2.080713305146     0.997433094164    -0.009561077528    12.000000000000
         C            0.291079694854     1.499434094164     0.003231922472    12.000000000000
         C           -1.036951305146     1.924559094164    -0.003085077528    12.000000000000
         C           -2.952066305146    -1.376887905836     0.017719922472    12.000000000000
         H           -0.245890305146    -1.873300905836    -0.012130077528     1.007825032230
         H           -3.111316305146     1.347826094164    -0.018667077528     1.007825032230
         H            1.120844694854     2.196985094164     0.005570922472     1.007825032230
         H           -1.257621305146     2.988929094164    -0.005241077528     1.007825032230
         H           -2.644697305146    -2.332242905836    -0.415291077528     1.007825032230
         H           -3.277636305146    -1.564615905836     1.046302922472     1.007825032230
         H           -3.815347305146    -1.008298905836    -0.542981077528     1.007825032230

  Basis Set: AUG-CC-PVTZ
    Blend: AUG-CC-PVTZ
  Basis Set: (AUG-CC-PVTZ AUX)
    Blend: AUG-CC-PVTZ-JKFIT
	 Reference Energy          =    -473.3080868356279893 [Eh]
	 Singles Energy            =      -0.0000000000000000 [Eh]
	 Same-Spin Energy          =      -0.5026467464581298 [Eh]
	 Opposite-Spin Energy      =      -1.5183755234212419 [Eh]
	 Correlation Energy        =      -2.0210222698793716 [Eh]
	 Total Energy              =    -475.3291091055073707 [Eh]

	 ================> DF-SCS-MP2 Energies <==================
	-----------------------------------------------------------
	 SCS Same-Spin Scale       =       0.3333333333333333 [-]
	 SCS Opposite-Spin Scale   =       1.2000000000000000 [-]
	 SCS Same-Spin Energy      =      -0.1675489154860433 [Eh]
	 SCS Opposite-Spin Energy  =      -1.8220506281054902 [Eh]
	 SCS Correlation Energy    =      -1.9895995435915335 [Eh]
	 SCS Total Energy          =    -475.2976863792194990 [Eh]
	-----------------------------------------------------------

  Dipole Moment: [D]
     X:    -4.5074      Y:     0.8942      Z:     0.0351     Total:     4.5954

*** Psi4 exiting successfully. Buy a developer a beer!
