                               Psi4 1.4a3.dev225

  ==> Input File <==

--------------------------------------------------------------------------
#psi4
#
memory 32 gb

molecule  {
0 1
  O        2.9010780     0.5011950     0.0183730
  O        2.1944840    -1.5825690    -0.0155730
  N        2.0149335    -0.3412631     0.0010670
  C       -1.7439870    -0.3903860    -0.0134210
  C       -0.4149410    -0.8260390    -0.0069050
  C        0.6078280     0.1182930    -0.0000420
  C       -2.0019250     0.9878490    -0.0097750
  C        0.3698600     1.4898450     0.0029890
  C       -0.9581720     1.9149540    -0.0034080
  C       -2.8732650    -1.3864910     0.0169490
  H       -0.1670670    -1.8828790    -0.0128300
  H       -3.0325330     1.3382220    -0.0189380
  H        1.1996540     2.1873670     0.0051620
  H       -1.1788090     2.9793360    -0.0051500
  H       -2.5655400    -2.3420280    -0.4153900
  H       -3.1994760    -1.5736770     1.0454250
  H       -3.7361930    -1.0182010    -0.5444970
units angstrom
no_reorient  #important for SAPT in psi4, default
symmetry c1  #important for SAPT in psi4, default
}

set PROPERTIES_ORIGIN ["COM"]
properties('MP2/aug-cc-pvtz', properties = ['dipole'])
--------------------------------------------------------------------------

    Molecular point group: c1
  Charge       = 0
  Multiplicity = 1
  Basis Set: AUG-CC-PVTZ
    Blend: AUG-CC-PVTZ
  Basis Set: (AUG-CC-PVTZ AUX)
    Blend: AUG-CC-PVTZ-JKFIT

    Orbital Energies [Eh]
    ---------------------

    Doubly Occupied:

       1A    -20.610466     2A    -20.597203     3A    -15.853686
       4A    -11.311479     5A    -11.272586     6A    -11.271247
       7A    -11.269812     8A    -11.267725     9A    -11.264881
      10A    -11.244621    11A     -1.591667    12A     -1.388320
      13A     -1.196989    14A     -1.098692    15A     -1.064284
      16A     -0.968177    17A     -0.953955    18A     -0.847641
      19A     -0.817873    20A     -0.763138    21A     -0.723751
      22A     -0.709592    23A     -0.702524    24A     -0.664715
      25A     -0.634797    26A     -0.603169    27A     -0.597531
      28A     -0.564681    29A     -0.543358    30A     -0.521190
      31A     -0.520281    32A     -0.494136    33A     -0.490172
      34A     -0.452573    35A     -0.373157    36A     -0.356016

  @DF-RHF Final Energy:  -473.37356007319670

   => Energetics <=

    Nuclear Repulsion Energy =            493.4832122817982736
    One-Electron Energy =               -1622.5013738726652264
    Two-Electron Energy =                 655.6446015176701394
    Total Energy =                       -473.3735600731966997
  Basis Set: (AUG-CC-PVTZ AUX)
    Blend: AUG-CC-PVTZ-RI
    Molecular point group: c1

    Geometry (in Angstrom), charge = 0, multiplicity = 1:

       Center              X                  Y                   Z               Mass
    ------------   -----------------  -----------------  -----------------  -----------------
         O            2.807943019103     0.497497145027     0.018733649037    15.994914619570
         O            2.101349019103    -1.586266854973    -0.015212350963    15.994914619570
         N            1.921798519103    -0.344960954973     0.001427649037    14.003074004430
         C           -1.837121980897    -0.394083854973    -0.013060350963    12.000000000000
         C           -0.508075980897    -0.829736854973    -0.006544350963    12.000000000000
         C            0.514693019103     0.114595145027     0.000318649037    12.000000000000
         C           -2.095059980897     0.984151145027    -0.009414350963    12.000000000000
         C            0.276725019103     1.486147145027     0.003349649037    12.000000000000
         C           -1.051306980897     1.911256145027    -0.003047350963    12.000000000000
         C           -2.966399980897    -1.390188854973     0.017309649037    12.000000000000
         H           -0.260201980897    -1.886576854973    -0.012469350963     1.007825032230
         H           -3.125667980897     1.334524145027    -0.018577350963     1.007825032230
         H            1.106519019103     2.183669145027     0.005522649037     1.007825032230
         H           -1.271943980897     2.975638145027    -0.004789350963     1.007825032230
         H           -2.658674980897    -2.345725854973    -0.415029350963     1.007825032230
         H           -3.292610980897    -1.577374854973     1.045785649037     1.007825032230
         H           -3.829327980897    -1.021898854973    -0.544136350963     1.007825032230

  Basis Set: AUG-CC-PVTZ
    Blend: AUG-CC-PVTZ
  Basis Set: (AUG-CC-PVTZ AUX)
    Blend: AUG-CC-PVTZ-JKFIT
	 Reference Energy          =    -473.3735600731966997 [Eh]
	 Singles Energy            =      -0.0000000000000000 [Eh]
	 Same-Spin Energy          =      -0.5026482164605854 [Eh]
	 Opposite-Spin Energy      =      -1.5153579860244430 [Eh]
	 Correlation Energy        =      -2.0180062024850285 [Eh]
	 Total Energy              =    -475.3915662756817255 [Eh]

	 ================> DF-SCS-MP2 Energies <==================
	-----------------------------------------------------------
	 SCS Same-Spin Scale       =       0.3333333333333333 [-]
	 SCS Opposite-Spin Scale   =       1.2000000000000000 [-]
	 SCS Same-Spin Energy      =      -0.1675494054868618 [Eh]
	 SCS Opposite-Spin Energy  =      -1.8184295832293316 [Eh]
	 SCS Correlation Energy    =      -1.9859789887161934 [Eh]
	 SCS Total Energy          =    -475.3595390619128693 [Eh]
	-----------------------------------------------------------

  Dipole Moment: [D]
     X:    -4.4820      Y:     1.1194      Z:     0.0360     Total:     4.6198

*** Psi4 exiting successfully. Buy a developer a beer!
