                               Psi4 1.3.2 release

  ==> Input File <==

--------------------------------------------------------------------------
#psi4
#
memory 32 gb

molecule  {
0 1
  O        2.8706615     0.5320784     0.0193682
  O        2.1944780    -1.5825590    -0.0163220
  N        2.0004500    -0.3550410     0.0008100
  C       -1.7439920    -0.3903900    -0.0133100
  C       -0.4149300    -0.8260450    -0.0068870
  C        0.6078150     0.1183000     0.0001420
  C       -2.0019240     0.9878430    -0.0100420
  C        0.3698690     1.4898440     0.0027510
  C       -0.9581620     1.9149690    -0.0035660
  C       -2.8732770    -1.3864780     0.0172390
  H       -0.1671010    -1.8828910    -0.0126110
  H       -3.0325270     1.3382360    -0.0191480
  H        1.1996340     2.1873950     0.0050900
  H       -1.1788320     2.9793390    -0.0057220
  H       -2.5659080    -2.3418330    -0.4157720
  H       -3.1988470    -1.5742060     1.0458220
  H       -3.7365580    -1.0178890    -0.5434620
units angstrom
no_reorient  #important for SAPT in psi4, default
symmetry c1  #important for SAPT in psi4, default
}

set PROPERTIES_ORIGIN ["COM"]
properties('MP2/aug-cc-pvtz', properties = ['dipole'])
--------------------------------------------------------------------------

    Molecular point group: c1
  Charge       = 0
  Multiplicity = 1
  Basis Set: AUG-CC-PVTZ
    Blend: AUG-CC-PVTZ
  Basis Set: (AUG-CC-PVTZ AUX)
    Blend: AUG-CC-PVTZ-JKFIT

    Orbital Energies [Eh]
    ---------------------

    Doubly Occupied:

       1A    -20.606122     2A    -20.604772     3A    -15.854480
       4A    -11.309725     5A    -11.272108     6A    -11.270559
       7A    -11.269360     8A    -11.267486     9A    -11.264335
      10A    -11.244445    11A     -1.586959    12A     -1.389603
      13A     -1.196815    14A     -1.099057    15A     -1.064546
      16A     -0.967731    17A     -0.954781    18A     -0.847825
      19A     -0.817661    20A     -0.762458    21A     -0.724129
      22A     -0.708241    23A     -0.701572    24A     -0.664313
      25A     -0.634609    26A     -0.602600    27A     -0.597303
      28A     -0.564650    29A     -0.542268    30A     -0.520476
      31A     -0.519820    32A     -0.495462    33A     -0.491549
      34A     -0.453886    35A     -0.372798    36A     -0.355363

  @DF-RHF Final Energy:  -473.37221702698133

   => Energetics <=

    Nuclear Repulsion Energy =            493.8705292925814092
    One-Electron Energy =               -1623.2857551728466206
    Two-Electron Energy =                 656.0430088532837090
    Total Energy =                       -473.3722170269813887
  Basis Set: (AUG-CC-PVTZ AUX)
    Blend: AUG-CC-PVTZ-RI
    Molecular point group: c1

    Geometry (in Angstrom), charge = 0, multiplicity = 1:

       Center              X                  Y                   Z               Mass
    ------------   -----------------  -----------------  -----------------  -----------------
         O            2.782558221861     0.526181081078     0.019728576100    15.994914619570
         O            2.106374721861    -1.588456318922    -0.015961623900    15.994914619570
         N            1.912346721861    -0.360938318922     0.001170376100    14.003074004430
         C           -1.832095278139    -0.396287318922    -0.012949623900    12.000000000000
         C           -0.503033278139    -0.831942318922    -0.006526623900    12.000000000000
         C            0.519711721861     0.112402681078     0.000502376100    12.000000000000
         C           -2.090027278139     0.981945681078    -0.009681623900    12.000000000000
         C            0.281765721861     1.483946681078     0.003111376100    12.000000000000
         C           -1.046265278139     1.909071681078    -0.003205623900    12.000000000000
         C           -2.961380278139    -1.392375318922     0.017599376100    12.000000000000
         H           -0.255204278139    -1.888788318922    -0.012250623900     1.007825032230
         H           -3.120630278139     1.332338681078    -0.018787623900     1.007825032230
         H            1.111530721861     2.181497681078     0.005450376100     1.007825032230
         H           -1.266935278139     2.973441681078    -0.005361623900     1.007825032230
         H           -2.654011278139    -2.347730318922    -0.415411623900     1.007825032230
         H           -3.286950278139    -1.580103318922     1.046182376100     1.007825032230
         H           -3.824661278139    -1.023786318922    -0.543101623900     1.007825032230

  Basis Set: AUG-CC-PVTZ
    Blend: AUG-CC-PVTZ
  Basis Set: (AUG-CC-PVTZ AUX)
    Blend: AUG-CC-PVTZ-JKFIT
	 Reference Energy          =    -473.3722170269813319 [Eh]
	 Singles Energy            =      -0.0000000000000000 [Eh]
	 Same-Spin Energy          =      -0.5031267701976889 [Eh]
	 Opposite-Spin Energy      =      -1.5162659585157674 [Eh]
	 Correlation Energy        =      -2.0193927287134565 [Eh]
	 Total Energy              =    -475.3916097556947875 [Eh]

	 ================> DF-SCS-MP2 Energies <==================
	-----------------------------------------------------------
	 SCS Same-Spin Scale       =       0.3333333333333333 [-]
	 SCS Opposite-Spin Scale   =       1.2000000000000000 [-]
	 SCS Same-Spin Energy      =      -0.1677089233992296 [Eh]
	 SCS Opposite-Spin Energy  =      -1.8195191502189207 [Eh]
	 SCS Correlation Energy    =      -1.9872280736181505 [Eh]
	 SCS Total Energy          =    -475.3594451005994870 [Eh]
	-----------------------------------------------------------

  Dipole Moment: [D]
     X:    -4.4556      Y:     1.0046      Z:     0.0346     Total:     4.5676

*** Psi4 exiting successfully. Buy a developer a beer!
