                               Psi4 1.4a3.dev225

  ==> Input File <==

--------------------------------------------------------------------------
#psi4
#
memory 32 gb

molecule  {
0 1
  O        2.9010780     0.5011950     0.0183730
  O        2.1944840    -1.5825690    -0.0155730
  N        1.9859465    -0.3688209     0.0005010
  C       -1.7439870    -0.3903860    -0.0134210
  C       -0.4149410    -0.8260390    -0.0069050
  C        0.6078280     0.1182930    -0.0000420
  C       -2.0019250     0.9878490    -0.0097750
  C        0.3698600     1.4898450     0.0029890
  C       -0.9581720     1.9149540    -0.0034080
  C       -2.8732650    -1.3864910     0.0169490
  H       -0.1670670    -1.8828790    -0.0128300
  H       -3.0325330     1.3382220    -0.0189380
  H        1.1996540     2.1873670     0.0051620
  H       -1.1788090     2.9793360    -0.0051500
  H       -2.5655400    -2.3420280    -0.4153900
  H       -3.1994760    -1.5736770     1.0454250
  H       -3.7361930    -1.0182010    -0.5444970
units angstrom
no_reorient  #important for SAPT in psi4, default
symmetry c1  #important for SAPT in psi4, default
}

set PROPERTIES_ORIGIN ["COM"]
properties('MP2/aug-cc-pvtz', properties = ['dipole'])
--------------------------------------------------------------------------

    Molecular point group: c1
  Charge       = 0
  Multiplicity = 1
  Basis Set: AUG-CC-PVTZ
    Blend: AUG-CC-PVTZ
  Basis Set: (AUG-CC-PVTZ AUX)
    Blend: AUG-CC-PVTZ-JKFIT

    Orbital Energies [Eh]
    ---------------------

    Doubly Occupied:

       1A    -20.609193     2A    -20.596034     3A    -15.852769
       4A    -11.311431     5A    -11.273414     6A    -11.272655
       7A    -11.271074     8A    -11.269241     9A    -11.265669
      10A    -11.245419    11A     -1.584541    12A     -1.379630
      13A     -1.199263    14A     -1.102640    15A     -1.066619
      16A     -0.969419    17A     -0.956812    18A     -0.849165
      19A     -0.817061    20A     -0.761868    21A     -0.721210
      22A     -0.705630    23A     -0.702983    24A     -0.664314
      25A     -0.635948    26A     -0.603458    27A     -0.598296
      28A     -0.565920    29A     -0.543406    30A     -0.521693
      31A     -0.521151    32A     -0.495515    33A     -0.488542
      34A     -0.449513    35A     -0.374434    36A     -0.356679

  @DF-RHF Final Energy:  -473.37141884604625

   => Energetics <=

    Nuclear Repulsion Energy =            493.5978320114583653
    One-Electron Energy =               -1622.7332867920449644
    Two-Electron Energy =                 655.7640359345402885
    Total Energy =                       -473.3714188460462537
  Basis Set: (AUG-CC-PVTZ AUX)
    Blend: AUG-CC-PVTZ-RI
    Molecular point group: c1

    Geometry (in Angstrom), charge = 0, multiplicity = 1:

       Center              X                  Y                   Z               Mass
    ------------   -----------------  -----------------  -----------------  -----------------
         O            2.810904813937     0.500312908980     0.018791481026    15.994914619570
         O            2.104310813937    -1.583451091020    -0.015154518974    15.994914619570
         N            1.895773313937    -0.369702991020     0.000919481026    14.003074004430
         C           -1.834160186063    -0.391268091020    -0.013002518974    12.000000000000
         C           -0.505114186063    -0.826921091020    -0.006486518974    12.000000000000
         C            0.517654813937     0.117410908980     0.000376481026    12.000000000000
         C           -2.092098186063     0.986966908980    -0.009356518974    12.000000000000
         C            0.279686813937     1.488962908980     0.003407481026    12.000000000000
         C           -1.048345186063     1.914071908980    -0.002989518974    12.000000000000
         C           -2.963438186063    -1.387373091020     0.017367481026    12.000000000000
         H           -0.257240186063    -1.883761091020    -0.012411518974     1.007825032230
         H           -3.122706186063     1.337339908980    -0.018519518974     1.007825032230
         H            1.109480813937     2.186484908980     0.005580481026     1.007825032230
         H           -1.268982186063     2.978453908980    -0.004731518974     1.007825032230
         H           -2.655713186063    -2.342910091020    -0.414971518974     1.007825032230
         H           -3.289649186063    -1.574559091020     1.045843481026     1.007825032230
         H           -3.826366186063    -1.019083091020    -0.544078518974     1.007825032230

  Basis Set: AUG-CC-PVTZ
    Blend: AUG-CC-PVTZ
  Basis Set: (AUG-CC-PVTZ AUX)
    Blend: AUG-CC-PVTZ-JKFIT
	 Reference Energy          =    -473.3714188460462537 [Eh]
	 Singles Energy            =      -0.0000000000000000 [Eh]
	 Same-Spin Energy          =      -0.5031764258545972 [Eh]
	 Opposite-Spin Energy      =      -1.5165176820032538 [Eh]
	 Correlation Energy        =      -2.0196941078578510 [Eh]
	 Total Energy              =    -475.3911129539040985 [Eh]

	 ================> DF-SCS-MP2 Energies <==================
	-----------------------------------------------------------
	 SCS Same-Spin Scale       =       0.3333333333333333 [-]
	 SCS Opposite-Spin Scale   =       1.2000000000000000 [-]
	 SCS Same-Spin Energy      =      -0.1677254752848657 [Eh]
	 SCS Opposite-Spin Energy  =      -1.8198212184039044 [Eh]
	 SCS Correlation Energy    =      -1.9875466936887702 [Eh]
	 SCS Total Energy          =    -475.3589655397350384 [Eh]
	-----------------------------------------------------------

  Dipole Moment: [D]
     X:    -4.6561      Y:     0.9980      Z:     0.0331     Total:     4.7619

*** Psi4 exiting successfully. Buy a developer a beer!
