                               Psi4 1.3.2 release

  ==> Input File <==

--------------------------------------------------------------------------
#psi4
#
memory 32 gb

molecule  {
0 1
  O        2.9010970     0.5011680     0.0190930
  O        2.1944780    -1.5825590    -0.0163220
  N        2.0004500    -0.3550410     0.0008100
  C       -1.7439920    -0.3903900    -0.0133100
  C       -0.4005350    -0.7794133    -0.0081707
  C        0.6078150     0.1183000     0.0001420
  C       -2.0019240     0.9878430    -0.0100420
  C        0.3698690     1.4898440     0.0027510
  C       -0.9581620     1.9149690    -0.0035660
  C       -2.8732770    -1.3864780     0.0172390
  H       -0.1671010    -1.8828910    -0.0126110
  H       -3.0325270     1.3382360    -0.0191480
  H        1.1996340     2.1873950     0.0050900
  H       -1.1788320     2.9793390    -0.0057220
  H       -2.5659080    -2.3418330    -0.4157720
  H       -3.1988470    -1.5742060     1.0458220
  H       -3.7365580    -1.0178890    -0.5434620
units angstrom
no_reorient  #important for SAPT in psi4, default
symmetry c1  #important for SAPT in psi4, default
}

set PROPERTIES_ORIGIN ["COM"]
properties('MP2/aug-cc-pvtz', properties = ['dipole'])
--------------------------------------------------------------------------

    Molecular point group: c1
  Charge       = 0
  Multiplicity = 1
  Basis Set: AUG-CC-PVTZ
    Blend: AUG-CC-PVTZ
  Basis Set: (AUG-CC-PVTZ AUX)
    Blend: AUG-CC-PVTZ-JKFIT

    Orbital Energies [Eh]
    ---------------------

    Doubly Occupied:

       1A    -20.604279     2A    -20.603993     3A    -15.854249
       4A    -11.307364     5A    -11.272609     6A    -11.270730
       7A    -11.268768     8A    -11.267385     9A    -11.264017
      10A    -11.246257    11A     -1.587381    12A     -1.385848
      13A     -1.202796    14A     -1.102210    15A     -1.064387
      16A     -0.971592    17A     -0.955222    18A     -0.846210
      19A     -0.820234    20A     -0.766367    21A     -0.722749
      22A     -0.708182    23A     -0.698500    24A     -0.666462
      25A     -0.630097    26A     -0.601262    27A     -0.598231
      28A     -0.564190    29A     -0.543586    30A     -0.524630
      31A     -0.518492    32A     -0.494476    33A     -0.491405
      34A     -0.451679    35A     -0.377726    36A     -0.354670

  @DF-RHF Final Energy:  -473.37009552466122

   => Energetics <=

    Nuclear Repulsion Energy =            494.2682484716407885
    One-Electron Energy =               -1624.0602155662918449
    Two-Electron Energy =                 656.4218715699897757
    Total Energy =                       -473.3700955246612239
  Basis Set: (AUG-CC-PVTZ AUX)
    Blend: AUG-CC-PVTZ-RI
    Molecular point group: c1

    Geometry (in Angstrom), charge = 0, multiplicity = 1:

       Center              X                  Y                   Z               Mass
    ------------   -----------------  -----------------  -----------------  -----------------
         O            2.808181139617     0.494795144449     0.019597896611    15.994914619570
         O            2.101562139617    -1.588931855551    -0.015817103389    15.994914619570
         N            1.907534139617    -0.361413855551     0.001314896611    14.003074004430
         C           -1.836907860383    -0.396762855551    -0.012805103389    12.000000000000
         C           -0.493450860383    -0.785786155551    -0.007665803389    12.000000000000
         C            0.514899139617     0.111927144449     0.000646896611    12.000000000000
         C           -2.094839860383     0.981470144449    -0.009537103389    12.000000000000
         C            0.276953139617     1.483471144449     0.003255896611    12.000000000000
         C           -1.051077860383     1.908596144449    -0.003061103389    12.000000000000
         C           -2.966192860383    -1.392850855551     0.017743896611    12.000000000000
         H           -0.260016860383    -1.889263855551    -0.012106103389     1.007825032230
         H           -3.125442860383     1.331863144449    -0.018643103389     1.007825032230
         H            1.106718139617     2.181022144449     0.005594896611     1.007825032230
         H           -1.271747860383     2.972966144449    -0.005217103389     1.007825032230
         H           -2.658823860383    -2.348205855551    -0.415267103389     1.007825032230
         H           -3.291762860383    -1.580578855551     1.046326896611     1.007825032230
         H           -3.829473860383    -1.024261855551    -0.542957103389     1.007825032230

  Basis Set: AUG-CC-PVTZ
    Blend: AUG-CC-PVTZ
  Basis Set: (AUG-CC-PVTZ AUX)
    Blend: AUG-CC-PVTZ-JKFIT
	 Reference Energy          =    -473.3700955246612239 [Eh]
	 Singles Energy            =      -0.0000000000000000 [Eh]
	 Same-Spin Energy          =      -0.5030997488408472 [Eh]
	 Opposite-Spin Energy      =      -1.5161175984464517 [Eh]
	 Correlation Energy        =      -2.0192173472872987 [Eh]
	 Total Energy              =    -475.3893128719485048 [Eh]

	 ================> DF-SCS-MP2 Energies <==================
	-----------------------------------------------------------
	 SCS Same-Spin Scale       =       0.3333333333333333 [-]
	 SCS Opposite-Spin Scale   =       1.2000000000000000 [-]
	 SCS Same-Spin Energy      =      -0.1676999162802824 [Eh]
	 SCS Opposite-Spin Energy  =      -1.8193411181357420 [Eh]
	 SCS Correlation Energy    =      -1.9870410344160243 [Eh]
	 SCS Total Energy          =    -475.3571365590772757 [Eh]
	-----------------------------------------------------------

  Dipole Moment: [D]
     X:    -4.5662      Y:     1.0239      Z:     0.0356     Total:     4.6797

*** Psi4 exiting successfully. Buy a developer a beer!
