                               Psi4 1.3.2 release

  ==> Input File <==

--------------------------------------------------------------------------
#psi4
#
memory 32 gb

molecule  {
0 1
  O        2.9010970     0.5011680     0.0190930
  O        2.1944780    -1.5825590    -0.0163220
  N        2.0004500    -0.3550410     0.0008100
  C       -1.7439920    -0.3903900    -0.0133100
  C       -0.4149300    -0.8260450    -0.0068870
  C        0.6078150     0.1183000     0.0001420
  C       -2.0019240     0.9878430    -0.0100420
  C        0.3698690     1.4898440     0.0027510
  C       -0.9581620     1.9149690    -0.0035660
  C       -2.9482566    -1.4526139     0.0192673
  H       -0.1671010    -1.8828910    -0.0126110
  H       -3.0325270     1.3382360    -0.0191480
  H        1.1996340     2.1873950     0.0050900
  H       -1.1788320     2.9793390    -0.0057220
  H       -2.5659080    -2.3418330    -0.4157720
  H       -3.1988470    -1.5742060     1.0458220
  H       -3.7365580    -1.0178890    -0.5434620
units angstrom
no_reorient  #important for SAPT in psi4, default
symmetry c1  #important for SAPT in psi4, default
}

set PROPERTIES_ORIGIN ["COM"]
properties('MP2/aug-cc-pvtz', properties = ['dipole'])
--------------------------------------------------------------------------

    Molecular point group: c1
  Charge       = 0
  Multiplicity = 1
  Basis Set: AUG-CC-PVTZ
    Blend: AUG-CC-PVTZ
  Basis Set: (AUG-CC-PVTZ AUX)
    Blend: AUG-CC-PVTZ-JKFIT

    Orbital Energies [Eh]
    ---------------------

    Doubly Occupied:

       1A    -20.602956     2A    -20.602895     3A    -15.853035
       4A    -11.311067     5A    -11.275970     6A    -11.271573
       7A    -11.270363     8A    -11.268354     9A    -11.264884
      10A    -11.243998    11A     -1.586282    12A     -1.384814
      13A     -1.195978    14A     -1.095216    15A     -1.060747
      16A     -0.969619    17A     -0.955880    18A     -0.848065
      19A     -0.817037    20A     -0.760994    21A     -0.721607
      22A     -0.706831    23A     -0.702228    24A     -0.663011
      25A     -0.632879    26A     -0.608988    27A     -0.591492
      28A     -0.581692    29A     -0.544003    30A     -0.525026
      31A     -0.505191    32A     -0.491606    33A     -0.490167
      34A     -0.450985    35A     -0.373451    36A     -0.358031

  @DF-RHF Final Energy:  -473.36590339763637

   => Energetics <=

    Nuclear Repulsion Energy =            491.8673609086059173
    One-Electron Energy =               -1619.2927008027620559
    Two-Electron Energy =                 654.0594364965198793
    Total Energy =                       -473.3659033976363162
  Basis Set: (AUG-CC-PVTZ AUX)
    Blend: AUG-CC-PVTZ-RI
    Molecular point group: c1

    Geometry (in Angstrom), charge = 0, multiplicity = 1:

       Center              X                  Y                   Z               Mass
    ------------   -----------------  -----------------  -----------------  -----------------
         O            2.816006848246     0.504669162127     0.019307895347    15.994914619570
         O            2.109387848246    -1.579057837873    -0.016107104653    15.994914619570
         N            1.915359848246    -0.351539837873     0.001024895347    14.003074004430
         C           -1.829082151754    -0.386888837873    -0.013095104653    12.000000000000
         C           -0.500020151754    -0.822543837873    -0.006672104653    12.000000000000
         C            0.522724848246     0.121801162127     0.000356895347    12.000000000000
         C           -2.087014151754     0.991344162127    -0.009827104653    12.000000000000
         C            0.284778848246     1.493345162127     0.002965895347    12.000000000000
         C           -1.043252151754     1.918470162127    -0.003351104653    12.000000000000
         C           -3.033346751754    -1.449112737873     0.019482195347    12.000000000000
         H           -0.252191151754    -1.879389837873    -0.012396104653     1.007825032230
         H           -3.117617151754     1.341737162127    -0.018933104653     1.007825032230
         H            1.114543848246     2.190896162127     0.005304895347     1.007825032230
         H           -1.263922151754     2.982840162127    -0.005507104653     1.007825032230
         H           -2.650998151754    -2.338331837873    -0.415557104653     1.007825032230
         H           -3.283937151754    -1.570704837873     1.046036895347     1.007825032230
         H           -3.821648151754    -1.014387837873    -0.543247104653     1.007825032230

  Basis Set: AUG-CC-PVTZ
    Blend: AUG-CC-PVTZ
  Basis Set: (AUG-CC-PVTZ AUX)
    Blend: AUG-CC-PVTZ-JKFIT
	 Reference Energy          =    -473.3659033976363730 [Eh]
	 Singles Energy            =      -0.0000000000000000 [Eh]
	 Same-Spin Energy          =      -0.5024799536045073 [Eh]
	 Opposite-Spin Energy      =      -1.5158803194865418 [Eh]
	 Correlation Energy        =      -2.0183602730910488 [Eh]
	 Total Energy              =    -475.3842636707274210 [Eh]

	 ================> DF-SCS-MP2 Energies <==================
	-----------------------------------------------------------
	 SCS Same-Spin Scale       =       0.3333333333333333 [-]
	 SCS Opposite-Spin Scale   =       1.2000000000000000 [-]
	 SCS Same-Spin Energy      =      -0.1674933178681691 [Eh]
	 SCS Opposite-Spin Energy  =      -1.8190563833838500 [Eh]
	 SCS Correlation Energy    =      -1.9865497012520190 [Eh]
	 SCS Total Energy          =    -475.3524530988884180 [Eh]
	-----------------------------------------------------------

  Dipole Moment: [D]
     X:    -4.5540      Y:     1.0698      Z:     0.0305     Total:     4.6781

*** Psi4 exiting successfully. Buy a developer a beer!
