                               Psi4 1.3.2 release

  ==> Input File <==

--------------------------------------------------------------------------
#psi4
#
memory 32 gb

molecule  {
0 1
  O        2.9010970     0.5011680     0.0190930
  O        2.1944780    -1.5825590    -0.0163220
  N        2.0004500    -0.3550410     0.0008100
  C       -1.7439920    -0.3903900    -0.0133100
  C       -0.4227359    -0.8491653    -0.0062480
  C        0.6078150     0.1183000     0.0001420
  C       -2.0019240     0.9878430    -0.0100420
  C        0.3698690     1.4898440     0.0027510
  C       -0.9581620     1.9149690    -0.0035660
  C       -2.8732770    -1.3864780     0.0172390
  H       -0.1671010    -1.8828910    -0.0126110
  H       -3.0325270     1.3382360    -0.0191480
  H        1.1996340     2.1873950     0.0050900
  H       -1.1788320     2.9793390    -0.0057220
  H       -2.5659080    -2.3418330    -0.4157720
  H       -3.1988470    -1.5742060     1.0458220
  H       -3.7365580    -1.0178890    -0.5434620
units angstrom
no_reorient  #important for SAPT in psi4, default
symmetry c1  #important for SAPT in psi4, default
}

set PROPERTIES_ORIGIN ["COM"]
properties('MP2/aug-cc-pvtz', properties = ['dipole'])
--------------------------------------------------------------------------

    Molecular point group: c1
  Charge       = 0
  Multiplicity = 1
  Basis Set: AUG-CC-PVTZ
    Blend: AUG-CC-PVTZ
  Basis Set: (AUG-CC-PVTZ AUX)
    Blend: AUG-CC-PVTZ-JKFIT

    Orbital Energies [Eh]
    ---------------------

    Doubly Occupied:

       1A    -20.602896     2A    -20.602771     3A    -15.852920
       4A    -11.313430     5A    -11.273331     6A    -11.272565
       7A    -11.271288     8A    -11.269048     9A    -11.265928
      10A    -11.244417    11A     -1.586213    12A     -1.384772
      13A     -1.196037    14A     -1.099962    15A     -1.065970
      16A     -0.967483    17A     -0.955566    18A     -0.849726
      19A     -0.815896    20A     -0.760138    21A     -0.722073
      22A     -0.706656    23A     -0.705278    24A     -0.663509
      25A     -0.638156    26A     -0.604225    27A     -0.597667
      28A     -0.565971    29A     -0.543405    30A     -0.521052
      31A     -0.519694    32A     -0.492765    33A     -0.491456
      34A     -0.451026    35A     -0.371935    36A     -0.357200

  @DF-RHF Final Energy:  -473.37199631158398

   => Energetics <=

    Nuclear Repulsion Energy =            493.1743492535229620
    One-Electron Energy =               -1621.8878392697711206
    Two-Electron Energy =                 655.3414937046642308
    Total Energy =                       -473.3719963115839846
  Basis Set: (AUG-CC-PVTZ AUX)
    Blend: AUG-CC-PVTZ-RI
    Molecular point group: c1

    Geometry (in Angstrom), charge = 0, multiplicity = 1:

       Center              X                  Y                   Z               Mass
    ------------   -----------------  -----------------  -----------------  -----------------
         O            2.810125067475     0.500902683149     0.019429543522    15.994914619570
         O            2.103506067475    -1.582824316851    -0.015985456478    15.994914619570
         N            1.909478067475    -0.355306316851     0.001146543522    14.003074004430
         C           -1.834963932525    -0.390655316851    -0.012973456478    12.000000000000
         C           -0.513707832525    -0.849430616851    -0.005911456478    12.000000000000
         C            0.516843067475     0.118034683149     0.000478543522    12.000000000000
         C           -2.092895932525     0.987577683149    -0.009705456478    12.000000000000
         C            0.278897067475     1.489578683149     0.003087543522    12.000000000000
         C           -1.049133932525     1.914703683149    -0.003229456478    12.000000000000
         C           -2.964248932525    -1.386743316851     0.017575543522    12.000000000000
         H           -0.258072932525    -1.883156316851    -0.012274456478     1.007825032230
         H           -3.123498932525     1.337970683149    -0.018811456478     1.007825032230
         H            1.108662067475     2.187129683149     0.005426543522     1.007825032230
         H           -1.269803932525     2.979073683149    -0.005385456478     1.007825032230
         H           -2.656879932525    -2.342098316851    -0.415435456478     1.007825032230
         H           -3.289818932525    -1.574471316851     1.046158543522     1.007825032230
         H           -3.827529932525    -1.018154316851    -0.543125456478     1.007825032230

  Basis Set: AUG-CC-PVTZ
    Blend: AUG-CC-PVTZ
  Basis Set: (AUG-CC-PVTZ AUX)
    Blend: AUG-CC-PVTZ-JKFIT
	 Reference Energy          =    -473.3719963115839846 [Eh]
	 Singles Energy            =      -0.0000000000000000 [Eh]
	 Same-Spin Energy          =      -0.5029211717472678 [Eh]
	 Opposite-Spin Energy      =      -1.5161371055470592 [Eh]
	 Correlation Energy        =      -2.0190582772943269 [Eh]
	 Total Energy              =    -475.3910545888783190 [Eh]

	 ================> DF-SCS-MP2 Energies <==================
	-----------------------------------------------------------
	 SCS Same-Spin Scale       =       0.3333333333333333 [-]
	 SCS Opposite-Spin Scale   =       1.2000000000000000 [-]
	 SCS Same-Spin Energy      =      -0.1676403905824226 [Eh]
	 SCS Opposite-Spin Energy  =      -1.8193645266564709 [Eh]
	 SCS Correlation Energy    =      -1.9870049172388935 [Eh]
	 SCS Total Energy          =    -475.3590012288228763 [Eh]
	-----------------------------------------------------------

  Dipole Moment: [D]
     X:    -4.5687      Y:     1.0736      Z:     0.0343     Total:     4.6933

*** Psi4 exiting successfully. Buy a developer a beer!
