                               Psi4 1.3.2 release

  ==> Input File <==

--------------------------------------------------------------------------
#psi4
#
memory 32 gb

molecule  {
0 1
  O        2.8391654     0.5619071     0.0196728
  O        2.1944780    -1.5825590    -0.0163220
  N        2.0004500    -0.3550410     0.0008100
  C       -1.7439920    -0.3903900    -0.0133100
  C       -0.4149300    -0.8260450    -0.0068870
  C        0.6078150     0.1183000     0.0001420
  C       -2.0019240     0.9878430    -0.0100420
  C        0.3698690     1.4898440     0.0027510
  C       -0.9581620     1.9149690    -0.0035660
  C       -2.8732770    -1.3864780     0.0172390
  H       -0.1671010    -1.8828910    -0.0126110
  H       -3.0325270     1.3382360    -0.0191480
  H        1.1996340     2.1873950     0.0050900
  H       -1.1788320     2.9793390    -0.0057220
  H       -2.5659080    -2.3418330    -0.4157720
  H       -3.1988470    -1.5742060     1.0458220
  H       -3.7365580    -1.0178890    -0.5434620
units angstrom
no_reorient  #important for SAPT in psi4, default
symmetry c1  #important for SAPT in psi4, default
}

set PROPERTIES_ORIGIN ["COM"]
properties('MP2/aug-cc-pvtz', properties = ['dipole'])
--------------------------------------------------------------------------

    Molecular point group: c1
  Charge       = 0
  Multiplicity = 1
  Basis Set: AUG-CC-PVTZ
    Blend: AUG-CC-PVTZ
  Basis Set: (AUG-CC-PVTZ AUX)
    Blend: AUG-CC-PVTZ-JKFIT

    Orbital Energies [Eh]
    ---------------------

    Doubly Occupied:

       1A    -20.608977     2A    -20.606165     3A    -15.855556
       4A    -11.307963     5A    -11.271185     6A    -11.269125
       7A    -11.268230     8A    -11.266461     9A    -11.263356
      10A    -11.243848    11A     -1.587422    12A     -1.393987
      13A     -1.195465    14A     -1.097430    15A     -1.063596
      16A     -0.966653    17A     -0.954186    18A     -0.847327
      19A     -0.818044    20A     -0.762614    21A     -0.725992
      22A     -0.709355    23A     -0.700374    24A     -0.664029
      25A     -0.633801    26A     -0.601883    27A     -0.596678
      28A     -0.564025    29A     -0.541214    30A     -0.519564
      31A     -0.518943    32A     -0.498650    33A     -0.489911
      34A     -0.456488    35A     -0.371755    36A     -0.354339

  @DF-RHF Final Energy:  -473.37049936869380

   => Energetics <=

    Nuclear Repulsion Energy =            494.2363522573526211
    One-Electron Energy =               -1624.0245212116094535
    Two-Electron Energy =                 656.4176695855630896
    Total Energy =                       -473.3704993686937996
  Basis Set: (AUG-CC-PVTZ AUX)
    Blend: AUG-CC-PVTZ-RI
    Molecular point group: c1

    Geometry (in Angstrom), charge = 0, multiplicity = 1:

       Center              X                  Y                   Z               Mass
    ------------   -----------------  -----------------  -----------------  -----------------
         O            2.754738050092     0.552528456075     0.019997626056    15.994914619570
         O            2.110050650092    -1.591937643925    -0.015997173944    15.994914619570
         N            1.916022650092    -0.364419643925     0.001134826056    14.003074004430
         C           -1.828419349908    -0.399768643925    -0.012985173944    12.000000000000
         C           -0.499357349908    -0.835423643925    -0.006562173944    12.000000000000
         C            0.523387650092     0.108921356075     0.000466826056    12.000000000000
         C           -2.086351349908     0.978464356075    -0.009717173944    12.000000000000
         C            0.285441650092     1.480465356075     0.003075826056    12.000000000000
         C           -1.042589349908     1.905590356075    -0.003241173944    12.000000000000
         C           -2.957704349908    -1.395856643925     0.017563826056    12.000000000000
         H           -0.251528349908    -1.892269643925    -0.012286173944     1.007825032230
         H           -3.116954349908     1.328857356075    -0.018823173944     1.007825032230
         H            1.115206650092     2.178016356075     0.005414826056     1.007825032230
         H           -1.263259349908     2.969960356075    -0.005397173944     1.007825032230
         H           -2.650335349908    -2.351211643925    -0.415447173944     1.007825032230
         H           -3.283274349908    -1.583584643925     1.046146826056     1.007825032230
         H           -3.820985349908    -1.027267643925    -0.543137173944     1.007825032230

  Basis Set: AUG-CC-PVTZ
    Blend: AUG-CC-PVTZ
  Basis Set: (AUG-CC-PVTZ AUX)
    Blend: AUG-CC-PVTZ-JKFIT
	 Reference Energy          =    -473.3704993686937996 [Eh]
	 Singles Energy            =      -0.0000000000000000 [Eh]
	 Same-Spin Energy          =      -0.5033218845797486 [Eh]
	 Opposite-Spin Energy      =      -1.5165537456446174 [Eh]
	 Correlation Energy        =      -2.0198756302243659 [Eh]
	 Total Energy              =    -475.3903749989181620 [Eh]

	 ================> DF-SCS-MP2 Energies <==================
	-----------------------------------------------------------
	 SCS Same-Spin Scale       =       0.3333333333333333 [-]
	 SCS Opposite-Spin Scale   =       1.2000000000000000 [-]
	 SCS Same-Spin Energy      =      -0.1677739615265829 [Eh]
	 SCS Opposite-Spin Energy  =      -1.8198644947735407 [Eh]
	 SCS Correlation Energy    =      -1.9876384563001235 [Eh]
	 SCS Total Energy          =    -475.3581378249939462 [Eh]
	-----------------------------------------------------------

  Dipole Moment: [D]
     X:    -4.3400      Y:     0.9538      Z:     0.0344     Total:     4.4437

*** Psi4 exiting successfully. Buy a developer a beer!
