                               Psi4 1.4a3.dev225

  ==> Input File <==

--------------------------------------------------------------------------
#psi4
#
memory 32 gb

molecule  {
0 1
  O        2.9010780     0.5011950     0.0183730
  O        2.1944840    -1.5825690    -0.0155730
  N        1.9642063    -0.3894894     0.0000764
  C       -1.7439870    -0.3903860    -0.0134210
  C       -0.4149410    -0.8260390    -0.0069050
  C        0.6078280     0.1182930    -0.0000420
  C       -2.0019250     0.9878490    -0.0097750
  C        0.3698600     1.4898450     0.0029890
  C       -0.9581720     1.9149540    -0.0034080
  C       -2.8732650    -1.3864910     0.0169490
  H       -0.1670670    -1.8828790    -0.0128300
  H       -3.0325330     1.3382220    -0.0189380
  H        1.1996540     2.1873670     0.0051620
  H       -1.1788090     2.9793360    -0.0051500
  H       -2.5655400    -2.3420280    -0.4153900
  H       -3.1994760    -1.5736770     1.0454250
  H       -3.7361930    -1.0182010    -0.5444970
units angstrom
no_reorient  #important for SAPT in psi4, default
symmetry c1  #important for SAPT in psi4, default
}

set PROPERTIES_ORIGIN ["COM"]
properties('MP2/aug-cc-pvtz', properties = ['dipole'])
--------------------------------------------------------------------------

    Molecular point group: c1
  Charge       = 0
  Multiplicity = 1
  Basis Set: AUG-CC-PVTZ
    Blend: AUG-CC-PVTZ
  Basis Set: (AUG-CC-PVTZ AUX)
    Blend: AUG-CC-PVTZ-JKFIT

    Orbital Energies [Eh]
    ---------------------

    Doubly Occupied:

       1A    -20.617908     2A    -20.585228     3A    -15.851397
       4A    -11.311305     5A    -11.274026     6A    -11.273753
       7A    -11.272000     8A    -11.270419     9A    -11.266260
      10A    -11.246007    11A     -1.586335    12A     -1.367840
      13A     -1.200938    14A     -1.105731    15A     -1.068250
      16A     -0.970437    17A     -0.958769    18A     -0.850402
      19A     -0.817491    20A     -0.762153    21A     -0.720435
      22A     -0.704891    23A     -0.703527    24A     -0.663819
      25A     -0.636664    26A     -0.603690    27A     -0.598885
      28A     -0.566906    29A     -0.543938    30A     -0.522543
      31A     -0.521903    32A     -0.497048    33A     -0.482313
      34A     -0.446287    35A     -0.375355    36A     -0.357157

  @DF-RHF Final Energy:  -473.36724514381729

   => Energetics <=

    Nuclear Repulsion Energy =            493.7116387878670594
    One-Electron Energy =               -1622.9537525348910094
    Two-Electron Energy =                 655.8748686032066644
    Total Energy =                       -473.3672451438172857
  Basis Set: (AUG-CC-PVTZ AUX)
    Blend: AUG-CC-PVTZ-RI
    Molecular point group: c1

    Geometry (in Angstrom), charge = 0, multiplicity = 1:

       Center              X                  Y                   Z               Mass
    ------------   -----------------  -----------------  -----------------  -----------------
         O            2.813126154954     0.502424747270     0.018834865236    15.994914619570
         O            2.106532154954    -1.581339252730    -0.015111134764    15.994914619570
         N            1.876254454954    -0.388259652730     0.000538265236    14.003074004430
         C           -1.831938845046    -0.389156252730    -0.012959134764    12.000000000000
         C           -0.502892845046    -0.824809252730    -0.006443134764    12.000000000000
         C            0.519876154954     0.119522747270     0.000419865236    12.000000000000
         C           -2.089876845046     0.989078747270    -0.009313134764    12.000000000000
         C            0.281908154954     1.491074747270     0.003450865236    12.000000000000
         C           -1.046123845046     1.916183747270    -0.002946134764    12.000000000000
         C           -2.961216845046    -1.385261252730     0.017410865236    12.000000000000
         H           -0.255018845046    -1.881649252730    -0.012368134764     1.007825032230
         H           -3.120484845046     1.339451747270    -0.018476134764     1.007825032230
         H            1.111702154954     2.188596747270     0.005623865236     1.007825032230
         H           -1.266760845046     2.980565747270    -0.004688134764     1.007825032230
         H           -2.653491845046    -2.340798252730    -0.414928134764     1.007825032230
         H           -3.287427845046    -1.572447252730     1.045886865236     1.007825032230
         H           -3.824144845046    -1.016971252730    -0.544035134764     1.007825032230

  Basis Set: AUG-CC-PVTZ
    Blend: AUG-CC-PVTZ
  Basis Set: (AUG-CC-PVTZ AUX)
    Blend: AUG-CC-PVTZ-JKFIT
	 Reference Energy          =    -473.3672451438172857 [Eh]
	 Singles Energy            =      -0.0000000000000000 [Eh]
	 Same-Spin Energy          =      -0.5033323156336977 [Eh]
	 Opposite-Spin Energy      =      -1.5168977962131052 [Eh]
	 Correlation Energy        =      -2.0202301118468027 [Eh]
	 Total Energy              =    -475.3874752556640715 [Eh]

	 ================> DF-SCS-MP2 Energies <==================
	-----------------------------------------------------------
	 SCS Same-Spin Scale       =       0.3333333333333333 [-]
	 SCS Opposite-Spin Scale   =       1.2000000000000000 [-]
	 SCS Same-Spin Energy      =      -0.1677774385445659 [Eh]
	 SCS Opposite-Spin Energy  =      -1.8202773554557261 [Eh]
	 SCS Correlation Energy    =      -1.9880547940002919 [Eh]
	 SCS Total Energy          =    -475.3552999378175627 [Eh]
	-----------------------------------------------------------

  Dipole Moment: [D]
     X:    -4.7982      Y:     0.9138      Z:     0.0310     Total:     4.8845

*** Psi4 exiting successfully. Buy a developer a beer!
