                               Psi4 1.3.2 release

  ==> Input File <==

--------------------------------------------------------------------------
#psi4
#
memory 32 gb

molecule  {
0 1
  O        2.9010970     0.5011680     0.0190930
  O        2.1944780    -1.5825590    -0.0163220
  N        1.9919771    -0.3792734     0.0006687
  C       -1.7439920    -0.3903900    -0.0133100
  C       -0.4149300    -0.8260450    -0.0068870
  C        0.6078150     0.1183000     0.0001420
  C       -2.0019240     0.9878430    -0.0100420
  C        0.3698690     1.4898440     0.0027510
  C       -0.9581620     1.9149690    -0.0035660
  C       -2.8732770    -1.3864780     0.0172390
  H       -0.1671010    -1.8828910    -0.0126110
  H       -3.0325270     1.3382360    -0.0191480
  H        1.1996340     2.1873950     0.0050900
  H       -1.1788320     2.9793390    -0.0057220
  H       -2.5659080    -2.3418330    -0.4157720
  H       -3.1988470    -1.5742060     1.0458220
  H       -3.7365580    -1.0178890    -0.5434620
units angstrom
no_reorient  #important for SAPT in psi4, default
symmetry c1  #important for SAPT in psi4, default
}

set PROPERTIES_ORIGIN ["COM"]
properties('MP2/aug-cc-pvtz', properties = ['dipole'])
--------------------------------------------------------------------------

    Molecular point group: c1
  Charge       = 0
  Multiplicity = 1
  Basis Set: AUG-CC-PVTZ
    Blend: AUG-CC-PVTZ
  Basis Set: (AUG-CC-PVTZ AUX)
    Blend: AUG-CC-PVTZ-JKFIT

    Orbital Energies [Eh]
    ---------------------

    Doubly Occupied:

       1A    -20.612766     2A    -20.593653     3A    -15.853123
       4A    -11.311488     5A    -11.273033     6A    -11.271997
       7A    -11.270449     8A    -11.268489     9A    -11.265270
      10A    -11.245173    11A     -1.589688    12A     -1.382630
      13A     -1.198148    14A     -1.100391    15A     -1.066009
      16A     -0.968069    17A     -0.955961    18A     -0.848736
      19A     -0.817777    20A     -0.762389    21A     -0.722722
      22A     -0.708050    23A     -0.702652    24A     -0.664682
      25A     -0.635771    26A     -0.602919    27A     -0.598056
      28A     -0.565705    29A     -0.543330    30A     -0.521529
      31A     -0.520863    32A     -0.495377    33A     -0.488069
      34A     -0.450733    35A     -0.374024    36A     -0.356194

  @DF-RHF Final Energy:  -473.37210948916947

   => Energetics <=

    Nuclear Repulsion Energy =            493.5611950022453129
    One-Electron Energy =               -1622.6547836322488365
    Two-Electron Energy =                 655.7214791408340488
    Total Energy =                       -473.3721094891694747
  Basis Set: (AUG-CC-PVTZ AUX)
    Blend: AUG-CC-PVTZ-RI
    Molecular point group: c1

    Geometry (in Angstrom), charge = 0, multiplicity = 1:

       Center              X                  Y                   Z               Mass
    ------------   -----------------  -----------------  -----------------  -----------------
         O            2.810307309495     0.501354237609     0.019499932415    15.994914619570
         O            2.103688309495    -1.582372762391    -0.015915067585    15.994914619570
         N            1.901187409495    -0.379087162391     0.001075632415    14.003074004430
         C           -1.834781690505    -0.390203762391    -0.012903067585    12.000000000000
         C           -0.505719690505    -0.825858762391    -0.006480067585    12.000000000000
         C            0.517025309495     0.118486237609     0.000548932415    12.000000000000
         C           -2.092713690505     0.988029237609    -0.009635067585    12.000000000000
         C            0.279079309495     1.490030237609     0.003157932415    12.000000000000
         C           -1.048951690505     1.915155237609    -0.003159067585    12.000000000000
         C           -2.964066690505    -1.386291762391     0.017645932415    12.000000000000
         H           -0.257890690505    -1.882704762391    -0.012204067585     1.007825032230
         H           -3.123316690505     1.338422237609    -0.018741067585     1.007825032230
         H            1.108844309495     2.187581237609     0.005496932415     1.007825032230
         H           -1.269621690505     2.979525237609    -0.005315067585     1.007825032230
         H           -2.656697690505    -2.341646762391    -0.415365067585     1.007825032230
         H           -3.289636690505    -1.574019762391     1.046228932415     1.007825032230
         H           -3.827347690505    -1.017702762391    -0.543055067585     1.007825032230

  Basis Set: AUG-CC-PVTZ
    Blend: AUG-CC-PVTZ
  Basis Set: (AUG-CC-PVTZ AUX)
    Blend: AUG-CC-PVTZ-JKFIT
	 Reference Energy          =    -473.3721094891694747 [Eh]
	 Singles Energy            =      -0.0000000000000000 [Eh]
	 Same-Spin Energy          =      -0.5028627231844531 [Eh]
	 Opposite-Spin Energy      =      -1.5158404585824057 [Eh]
	 Correlation Energy        =      -2.0187031817668588 [Eh]
	 Total Energy              =    -475.3908126709363273 [Eh]

	 ================> DF-SCS-MP2 Energies <==================
	-----------------------------------------------------------
	 SCS Same-Spin Scale       =       0.3333333333333333 [-]
	 SCS Opposite-Spin Scale   =       1.2000000000000000 [-]
	 SCS Same-Spin Energy      =      -0.1676209077281510 [Eh]
	 SCS Opposite-Spin Energy  =      -1.8190085502988866 [Eh]
	 SCS Correlation Energy    =      -1.9866294580270376 [Eh]
	 SCS Total Energy          =    -475.3587389471965139 [Eh]
	-----------------------------------------------------------

  Dipole Moment: [D]
     X:    -4.6127      Y:     0.9429      Z:     0.0328     Total:     4.7082

*** Psi4 exiting successfully. Buy a developer a beer!
