                               Psi4 1.3.2 release

  ==> Input File <==

--------------------------------------------------------------------------
#psi4
#
memory 32 gb

molecule  {
0 1
  O        2.9010970     0.5011680     0.0190930
  O        2.1944780    -1.5825590    -0.0163220
  N        2.0004500    -0.3550410     0.0008100
  C       -1.8430457    -0.2884738     0.0549148
  C       -0.4149300    -0.8260450    -0.0068870
  C        0.6078150     0.1183000     0.0001420
  C       -2.0019240     0.9878430    -0.0100420
  C        0.3698690     1.4898440     0.0027510
  C       -0.9581620     1.9149690    -0.0035660
  C       -2.8732770    -1.3864780     0.0172390
  H       -0.1671010    -1.8828910    -0.0126110
  H       -3.0325270     1.3382360    -0.0191480
  H        1.1996340     2.1873950     0.0050900
  H       -1.1788320     2.9793390    -0.0057220
  H       -2.5659080    -2.3418330    -0.4157720
  H       -3.1988470    -1.5742060     1.0458220
  H       -3.7365580    -1.0178890    -0.5434620
units angstrom
no_reorient  #important for SAPT in psi4, default
symmetry c1  #important for SAPT in psi4, default
}

set PROPERTIES_ORIGIN ["COM"]
properties('MP2/aug-cc-pvtz', properties = ['dipole'])
--------------------------------------------------------------------------

    Molecular point group: c1
  Charge       = 0
  Multiplicity = 1
  Basis Set: AUG-CC-PVTZ
    Blend: AUG-CC-PVTZ
  Basis Set: (AUG-CC-PVTZ AUX)
    Blend: AUG-CC-PVTZ-JKFIT

    Orbital Energies [Eh]
    ---------------------

    Doubly Occupied:

       1A    -20.605179     2A    -20.603128     3A    -15.853598
       4A    -11.311564     5A    -11.285631     6A    -11.272847
       7A    -11.267697     8A    -11.264960     9A    -11.251045
      10A    -11.246841    11A     -1.587274    12A     -1.385846
      13A     -1.197741    14A     -1.111663    15A     -1.057283
      16A     -0.964910    17A     -0.959762    18A     -0.861986
      19A     -0.808311    20A     -0.756566    21A     -0.723300
      22A     -0.707543    23A     -0.702753    24A     -0.662976
      25A     -0.641374    26A     -0.601700    27A     -0.599720
      28A     -0.565798    29A     -0.545784    30A     -0.521246
      31A     -0.514369    32A     -0.492895    33A     -0.484578
      34A     -0.451769    35A     -0.388230    36A     -0.345987

  @DF-RHF Final Energy:  -473.34741825552175

   => Energetics <=

    Nuclear Repulsion Energy =            493.1313601873422385
    One-Electron Energy =               -1621.7498466838414970
    Two-Electron Energy =                 655.2710682409775700
    Total Energy =                       -473.3474182555218022
  Basis Set: (AUG-CC-PVTZ AUX)
    Blend: AUG-CC-PVTZ-RI
    Molecular point group: c1

    Geometry (in Angstrom), charge = 0, multiplicity = 1:

       Center              X                  Y                   Z               Mass
    ------------   -----------------  -----------------  -----------------  -----------------
         O            2.818114794935     0.489954391162     0.013511678958    15.994914619570
         O            2.111495794935    -1.593772608838    -0.021903321042    15.994914619570
         N            1.917467794935    -0.366254608838    -0.004771321042    14.003074004430
         C           -1.926027905065    -0.299687408838     0.049333478958    12.000000000000
         C           -0.497912205065    -0.837258608838    -0.012468321042    12.000000000000
         C            0.524832794935     0.107086391162    -0.005439321042    12.000000000000
         C           -2.084906205065     0.976629391162    -0.015623321042    12.000000000000
         C            0.286886794935     1.478630391162    -0.002830321042    12.000000000000
         C           -1.041144205065     1.903755391162    -0.009147321042    12.000000000000
         C           -2.956259205065    -1.397691608838     0.011657678958    12.000000000000
         H           -0.250083205065    -1.894104608838    -0.018192321042     1.007825032230
         H           -3.115509205065     1.327022391162    -0.024729321042     1.007825032230
         H            1.116651794935     2.176181391162    -0.000491321042     1.007825032230
         H           -1.261814205065     2.968125391162    -0.011303321042     1.007825032230
         H           -2.648890205065    -2.353046608838    -0.421353321042     1.007825032230
         H           -3.281829205065    -1.585419608838     1.040240678958     1.007825032230
         H           -3.819540205065    -1.029102608838    -0.549043321042     1.007825032230

  Basis Set: AUG-CC-PVTZ
    Blend: AUG-CC-PVTZ
  Basis Set: (AUG-CC-PVTZ AUX)
    Blend: AUG-CC-PVTZ-JKFIT
	 Reference Energy          =    -473.3474182555217453 [Eh]
	 Singles Energy            =      -0.0000000000000000 [Eh]
	 Same-Spin Energy          =      -0.5024386803291252 [Eh]
	 Opposite-Spin Energy      =      -1.5170903609513888 [Eh]
	 Correlation Energy        =      -2.0195290412805140 [Eh]
	 Total Energy              =    -475.3669472968022660 [Eh]

	 ================> DF-SCS-MP2 Energies <==================
	-----------------------------------------------------------
	 SCS Same-Spin Scale       =       0.3333333333333333 [-]
	 SCS Opposite-Spin Scale   =       1.2000000000000000 [-]
	 SCS Same-Spin Energy      =      -0.1674795601097084 [Eh]
	 SCS Opposite-Spin Energy  =      -1.8205084331416665 [Eh]
	 SCS Correlation Energy    =      -1.9879879932513749 [Eh]
	 SCS Total Energy          =    -475.3354062487730971 [Eh]
	-----------------------------------------------------------

  Dipole Moment: [D]
     X:    -4.5274      Y:     0.9914      Z:     0.0112     Total:     4.6347

*** Psi4 exiting successfully. Buy a developer a beer!
