                               Psi4 1.3.2 release

  ==> Input File <==

--------------------------------------------------------------------------
#psi4
#
memory 32 gb

molecule  {
0 1
  O        2.9010970     0.5011680     0.0190930
  O        2.1944780    -1.5825590    -0.0163220
  N        1.9279818    -0.4239336    -0.0006611
  C       -1.7439920    -0.3903900    -0.0133100
  C       -0.4149300    -0.8260450    -0.0068870
  C        0.6078150     0.1183000     0.0001420
  C       -2.0019240     0.9878430    -0.0100420
  C        0.3698690     1.4898440     0.0027510
  C       -0.9581620     1.9149690    -0.0035660
  C       -2.8732770    -1.3864780     0.0172390
  H       -0.1671010    -1.8828910    -0.0126110
  H       -3.0325270     1.3382360    -0.0191480
  H        1.1996340     2.1873950     0.0050900
  H       -1.1788320     2.9793390    -0.0057220
  H       -2.5659080    -2.3418330    -0.4157720
  H       -3.1988470    -1.5742060     1.0458220
  H       -3.7365580    -1.0178890    -0.5434620
units angstrom
no_reorient  #important for SAPT in psi4, default
symmetry c1  #important for SAPT in psi4, default
}

set PROPERTIES_ORIGIN ["COM"]
properties('MP2/aug-cc-pvtz', properties = ['dipole'])
--------------------------------------------------------------------------

    Molecular point group: c1
  Charge       = 0
  Multiplicity = 1
  Basis Set: AUG-CC-PVTZ
    Blend: AUG-CC-PVTZ
  Basis Set: (AUG-CC-PVTZ AUX)
    Blend: AUG-CC-PVTZ-JKFIT

    Orbital Energies [Eh]
    ---------------------

    Doubly Occupied:

       1A    -20.631547     2A    -20.567609     3A    -15.847782
       4A    -11.311017     5A    -11.275664     6A    -11.275049
       7A    -11.273509     8A    -11.272426     9A    -11.267261
      10A    -11.246966    11A     -1.598387    12A     -1.342582
      13A     -1.203492    14A     -1.110945    15A     -1.070741
      16A     -0.972267    17A     -0.961592    18A     -0.852548
      19A     -0.819874    20A     -0.764250    21A     -0.721308
      22A     -0.707033    23A     -0.704918    24A     -0.663283
      25A     -0.637433    26A     -0.604175    27A     -0.599891
      28A     -0.568608    29A     -0.545306    30A     -0.524708
      31A     -0.523203    32A     -0.494473    33A     -0.469485
      34A     -0.439766    35A     -0.376832    36A     -0.357926

  @DF-RHF Final Energy:  -473.35602301386496

   => Energetics <=

    Nuclear Repulsion Energy =            493.9442773760857222
    One-Electron Energy =               -1623.3928856392938087
    Two-Electron Energy =                 656.0925852493431876
    Total Energy =                       -473.3560230138649558
  Basis Set: (AUG-CC-PVTZ AUX)
    Blend: AUG-CC-PVTZ-RI
    Molecular point group: c1

    Geometry (in Angstrom), charge = 0, multiplicity = 1:

       Center              X                  Y                   Z               Mass
    ------------   -----------------  -----------------  -----------------  -----------------
         O            2.816846135485     0.505917467666     0.019635806937    15.994914619570
         O            2.110227135485    -1.577809532334    -0.015779193063    15.994914619570
         N            1.843730935485    -0.419184132334    -0.000118293063    14.003074004430
         C           -1.828242864515    -0.385640532334    -0.012767193063    12.000000000000
         C           -0.499180864515    -0.821295532334    -0.006344193063    12.000000000000
         C            0.523564135485     0.123049467666     0.000684806937    12.000000000000
         C           -2.086174864515     0.992592467666    -0.009499193063    12.000000000000
         C            0.285618135485     1.494593467666     0.003293806937    12.000000000000
         C           -1.042412864515     1.919718467666    -0.003023193063    12.000000000000
         C           -2.957527864515    -1.381728532334     0.017781806937    12.000000000000
         H           -0.251351864515    -1.878141532334    -0.012068193063     1.007825032230
         H           -3.116777864515     1.342985467666    -0.018605193063     1.007825032230
         H            1.115383135485     2.192144467666     0.005632806937     1.007825032230
         H           -1.263082864515     2.984088467666    -0.005179193063     1.007825032230
         H           -2.650158864515    -2.337083532334    -0.415229193063     1.007825032230
         H           -3.283097864515    -1.569456532334     1.046364806937     1.007825032230
         H           -3.820808864515    -1.013139532334    -0.542919193063     1.007825032230

  Basis Set: AUG-CC-PVTZ
    Blend: AUG-CC-PVTZ
  Basis Set: (AUG-CC-PVTZ AUX)
    Blend: AUG-CC-PVTZ-JKFIT
	 Reference Energy          =    -473.3560230138649558 [Eh]
	 Singles Energy            =      -0.0000000000000000 [Eh]
	 Same-Spin Energy          =      -0.5031091397280185 [Eh]
	 Opposite-Spin Energy      =      -1.5166234075589680 [Eh]
	 Correlation Energy        =      -2.0197325472869867 [Eh]
	 Total Energy              =    -475.3757555611519479 [Eh]

	 ================> DF-SCS-MP2 Energies <==================
	-----------------------------------------------------------
	 SCS Same-Spin Scale       =       0.3333333333333333 [-]
	 SCS Opposite-Spin Scale   =       1.2000000000000000 [-]
	 SCS Same-Spin Energy      =      -0.1677030465760062 [Eh]
	 SCS Opposite-Spin Energy  =      -1.8199480890707616 [Eh]
	 SCS Correlation Energy    =      -1.9876511356467677 [Eh]
	 SCS Total Energy          =    -475.3436741495117417 [Eh]
	-----------------------------------------------------------

  Dipole Moment: [D]
     X:    -5.0835      Y:     0.7564      Z:     0.0268     Total:     5.1396

*** Psi4 exiting successfully. Buy a developer a beer!
