                               Psi4 1.3.2 release

  ==> Input File <==

--------------------------------------------------------------------------
#psi4
#
memory 32 gb

molecule  {
0 1
  O        2.9010970     0.5011680     0.0190930
  O        2.1944780    -1.5825590    -0.0163220
  N        2.1453864    -0.2172557     0.0037522
  C       -1.7439920    -0.3903900    -0.0133100
  C       -0.4149300    -0.8260450    -0.0068870
  C        0.6078150     0.1183000     0.0001420
  C       -2.0019240     0.9878430    -0.0100420
  C        0.3698690     1.4898440     0.0027510
  C       -0.9581620     1.9149690    -0.0035660
  C       -2.8732770    -1.3864780     0.0172390
  H       -0.1671010    -1.8828910    -0.0126110
  H       -3.0325270     1.3382360    -0.0191480
  H        1.1996340     2.1873950     0.0050900
  H       -1.1788320     2.9793390    -0.0057220
  H       -2.5659080    -2.3418330    -0.4157720
  H       -3.1988470    -1.5742060     1.0458220
  H       -3.7365580    -1.0178890    -0.5434620
units angstrom
no_reorient  #important for SAPT in psi4, default
symmetry c1  #important for SAPT in psi4, default
}

set PROPERTIES_ORIGIN ["COM"]
properties('MP2/aug-cc-pvtz', properties = ['dipole'])
--------------------------------------------------------------------------

    Molecular point group: c1
  Charge       = 0
  Multiplicity = 1
  Basis Set: AUG-CC-PVTZ
    Blend: AUG-CC-PVTZ
  Basis Set: (AUG-CC-PVTZ AUX)
    Blend: AUG-CC-PVTZ-JKFIT

    Orbital Energies [Eh]
    ---------------------

    Doubly Occupied:

       1A    -20.672636     2A    -20.545157     3A    -15.847681
       4A    -11.307503     5A    -11.268050     6A    -11.264866
       7A    -11.263010     8A    -11.261517     9A    -11.260221
      10A    -11.240574    11A     -1.750024    12A     -1.340043
      13A     -1.186802    14A     -1.084954    15A     -1.051984
      16A     -0.964069    17A     -0.941848    18A     -0.860820
      19A     -0.831799    20A     -0.788202    21A     -0.781838
      22A     -0.752031    23A     -0.703960    24A     -0.663047
      25A     -0.628448    26A     -0.599753    27A     -0.593613
      28A     -0.560715    29A     -0.544727    30A     -0.520212
      31A     -0.516542    32A     -0.475459    33A     -0.446458
      34A     -0.440991    35A     -0.365952    36A     -0.352124

  @DF-RHF Final Energy:  -473.30918729253830

   => Energetics <=

    Nuclear Repulsion Energy =            493.6930463877619104
    One-Electron Energy =               -1622.6492120777149921
    Two-Electron Energy =                 655.6469783974148413
    Total Energy =                       -473.3091872925383541
  Basis Set: (AUG-CC-PVTZ AUX)
    Blend: AUG-CC-PVTZ-RI
    Molecular point group: c1

    Geometry (in Angstrom), charge = 0, multiplicity = 1:

       Center              X                  Y                   Z               Mass
    ------------   -----------------  -----------------  -----------------  -----------------
         O            2.794632459655     0.484799810212     0.019184870685    15.994914619570
         O            2.088013459655    -1.598927189788    -0.016230129315    15.994914619570
         N            2.038921859655    -0.233623889788     0.003844070685    14.003074004430
         C           -1.850456540345    -0.406758189788    -0.013218129315    12.000000000000
         C           -0.521394540345    -0.842413189788    -0.006795129315    12.000000000000
         C            0.501350459655     0.101931810212     0.000233870685    12.000000000000
         C           -2.108388540345     0.971474810212    -0.009950129315    12.000000000000
         C            0.263404459655     1.473475810212     0.002842870685    12.000000000000
         C           -1.064626540345     1.898600810212    -0.003474129315    12.000000000000
         C           -2.979741540345    -1.402846189788     0.017330870685    12.000000000000
         H           -0.273565540345    -1.899259189788    -0.012519129315     1.007825032230
         H           -3.138991540345     1.321867810212    -0.019056129315     1.007825032230
         H            1.093169459655     2.171026810212     0.005181870685     1.007825032230
         H           -1.285296540345     2.962970810212    -0.005630129315     1.007825032230
         H           -2.672372540345    -2.358201189788    -0.415680129315     1.007825032230
         H           -3.305311540345    -1.590574189788     1.045913870685     1.007825032230
         H           -3.843022540345    -1.034257189788    -0.543370129315     1.007825032230

  Basis Set: AUG-CC-PVTZ
    Blend: AUG-CC-PVTZ
  Basis Set: (AUG-CC-PVTZ AUX)
    Blend: AUG-CC-PVTZ-JKFIT
	 Reference Energy          =    -473.3091872925382972 [Eh]
	 Singles Energy            =      -0.0000000000000000 [Eh]
	 Same-Spin Energy          =      -0.4974233702327125 [Eh]
	 Opposite-Spin Energy      =      -1.5043016562063722 [Eh]
	 Correlation Energy        =      -2.0017250264390847 [Eh]
	 Total Energy              =    -475.3109123189773868 [Eh]

	 ================> DF-SCS-MP2 Energies <==================
	-----------------------------------------------------------
	 SCS Same-Spin Scale       =       0.3333333333333333 [-]
	 SCS Opposite-Spin Scale   =       1.2000000000000000 [-]
	 SCS Same-Spin Energy      =      -0.1658077900775708 [Eh]
	 SCS Opposite-Spin Energy  =      -1.8051619874476466 [Eh]
	 SCS Correlation Energy    =      -1.9709697775252173 [Eh]
	 SCS Total Energy          =    -475.2801570700635239 [Eh]
	-----------------------------------------------------------

  Dipole Moment: [D]
     X:    -3.5531      Y:     2.2024      Z:     0.0593     Total:     4.1807

*** Psi4 exiting successfully. Buy a developer a beer!
