                               Psi4 1.4a3.dev225

  ==> Input File <==

--------------------------------------------------------------------------
#psi4
#
memory 32 gb

molecule  {
0 1
  O        2.9010780     0.5011950     0.0183730
  O        2.1944840    -1.5825690    -0.0155730
  N        2.0004400    -0.3550420     0.0007840
  C       -1.7439870    -0.3903860    -0.0134210
  C       -0.4149410    -0.8260390    -0.0069050
  C        0.6225222     0.1318603     0.0000566
  C       -2.0019250     0.9878490    -0.0097750
  C        0.3698600     1.4898450     0.0029890
  C       -0.9581720     1.9149540    -0.0034080
  C       -2.8732650    -1.3864910     0.0169490
  H       -0.1670670    -1.8828790    -0.0128300
  H       -3.0325330     1.3382220    -0.0189380
  H        1.1996540     2.1873670     0.0051620
  H       -1.1788090     2.9793360    -0.0051500
  H       -2.5655400    -2.3420280    -0.4153900
  H       -3.1994760    -1.5736770     1.0454250
  H       -3.7361930    -1.0182010    -0.5444970
units angstrom
no_reorient  #important for SAPT in psi4, default
symmetry c1  #important for SAPT in psi4, default
}

set PROPERTIES_ORIGIN ["COM"]
properties('MP2/aug-cc-pvtz', properties = ['dipole'])
--------------------------------------------------------------------------

    Molecular point group: c1
  Charge       = 0
  Multiplicity = 1
  Basis Set: AUG-CC-PVTZ
    Blend: AUG-CC-PVTZ
  Basis Set: (AUG-CC-PVTZ AUX)
    Blend: AUG-CC-PVTZ-JKFIT

    Orbital Energies [Eh]
    ---------------------

    Doubly Occupied:

       1A    -20.603454     2A    -20.602741     3A    -15.853617
       4A    -11.311268     5A    -11.273074     6A    -11.271849
       7A    -11.271628     8A    -11.269175     9A    -11.265452
      10A    -11.244958    11A     -1.587343    12A     -1.385357
      13A     -1.197444    14A     -1.102432    15A     -1.065119
      16A     -0.967392    17A     -0.957283    18A     -0.849565
      19A     -0.816279    20A     -0.761863    21A     -0.722671
      22A     -0.708067    23A     -0.703195    24A     -0.663889
      25A     -0.635158    26A     -0.602728    27A     -0.597695
      28A     -0.565631    29A     -0.542931    30A     -0.520731
      31A     -0.520068    32A     -0.494403    33A     -0.491690
      34A     -0.451337    35A     -0.372365    36A     -0.357217

  @DF-RHF Final Energy:  -473.37251980693753

   => Energetics <=

    Nuclear Repulsion Energy =            493.5090827225880616
    One-Electron Energy =               -1622.5490696543242848
    Two-Electron Energy =                 655.6674671247986907
    Total Energy =                       -473.3725198069374756
  Basis Set: (AUG-CC-PVTZ AUX)
    Blend: AUG-CC-PVTZ-RI
    Molecular point group: c1

    Geometry (in Angstrom), charge = 0, multiplicity = 1:

       Center              X                  Y                   Z               Mass
    ------------   -----------------  -----------------  -----------------  -----------------
         O            2.808137281081     0.497717063794     0.018753931540    15.994914619570
         O            2.101543281081    -1.586046936206    -0.015192068460    15.994914619570
         N            1.907499281081    -0.358519936206     0.001164931540    14.003074004430
         C           -1.836927718919    -0.393863936206    -0.013040068460    12.000000000000
         C           -0.507881718919    -0.829516936206    -0.006524068460    12.000000000000
         C            0.529581481081     0.128382363794     0.000437531540    12.000000000000
         C           -2.094865718919     0.984371063794    -0.009394068460    12.000000000000
         C            0.276919281081     1.486367063794     0.003369931540    12.000000000000
         C           -1.051112718919     1.911476063794    -0.003027068460    12.000000000000
         C           -2.966205718919    -1.389968936206     0.017329931540    12.000000000000
         H           -0.260007718919    -1.886356936206    -0.012449068460     1.007825032230
         H           -3.125473718919     1.334744063794    -0.018557068460     1.007825032230
         H            1.106713281081     2.183889063794     0.005542931540     1.007825032230
         H           -1.271749718919     2.975858063794    -0.004769068460     1.007825032230
         H           -2.658480718919    -2.345505936206    -0.415009068460     1.007825032230
         H           -3.292416718919    -1.577154936206     1.045805931540     1.007825032230
         H           -3.829133718919    -1.021678936206    -0.544116068460     1.007825032230

  Basis Set: AUG-CC-PVTZ
    Blend: AUG-CC-PVTZ
  Basis Set: (AUG-CC-PVTZ AUX)
    Blend: AUG-CC-PVTZ-JKFIT
	 Reference Energy          =    -473.3725198069375324 [Eh]
	 Singles Energy            =      -0.0000000000000000 [Eh]
	 Same-Spin Energy          =      -0.5029429889420318 [Eh]
	 Opposite-Spin Energy      =      -1.5160349092869467 [Eh]
	 Correlation Energy        =      -2.0189778982289788 [Eh]
	 Total Energy              =    -475.3914977051665005 [Eh]

	 ================> DF-SCS-MP2 Energies <==================
	-----------------------------------------------------------
	 SCS Same-Spin Scale       =       0.3333333333333333 [-]
	 SCS Opposite-Spin Scale   =       1.2000000000000000 [-]
	 SCS Same-Spin Energy      =      -0.1676476629806773 [Eh]
	 SCS Opposite-Spin Energy  =      -1.8192418911443360 [Eh]
	 SCS Correlation Energy    =      -1.9868895541250133 [Eh]
	 SCS Total Energy          =    -475.3594093610625464 [Eh]
	-----------------------------------------------------------

  Dipole Moment: [D]
     X:    -4.5727      Y:     1.0677      Z:     0.0345     Total:     4.6958

*** Psi4 exiting successfully. Buy a developer a beer!
