                               Psi4 1.3.2 release

  ==> Input File <==

--------------------------------------------------------------------------
#psi4
#
memory 32 gb

molecule  {
0 1
  O        2.9010970     0.5011680     0.0190930
  O        2.1944780    -1.5825590    -0.0163220
  N        2.0422975    -0.2068801     0.0016519
  C       -1.7439920    -0.3903900    -0.0133100
  C       -0.4149300    -0.8260450    -0.0068870
  C        0.6078150     0.1183000     0.0001420
  C       -2.0019240     0.9878430    -0.0100420
  C        0.3698690     1.4898440     0.0027510
  C       -0.9581620     1.9149690    -0.0035660
  C       -2.8732770    -1.3864780     0.0172390
  H       -0.1671010    -1.8828910    -0.0126110
  H       -3.0325270     1.3382360    -0.0191480
  H        1.1996340     2.1873950     0.0050900
  H       -1.1788320     2.9793390    -0.0057220
  H       -2.5659080    -2.3418330    -0.4157720
  H       -3.1988470    -1.5742060     1.0458220
  H       -3.7365580    -1.0178890    -0.5434620
units angstrom
no_reorient  #important for SAPT in psi4, default
symmetry c1  #important for SAPT in psi4, default
}

set PROPERTIES_ORIGIN ["COM"]
properties('MP2/aug-cc-pvtz', properties = ['dipole'])
--------------------------------------------------------------------------

    Molecular point group: c1
  Charge       = 0
  Multiplicity = 1
  Basis Set: AUG-CC-PVTZ
    Blend: AUG-CC-PVTZ
  Basis Set: (AUG-CC-PVTZ AUX)
    Blend: AUG-CC-PVTZ-JKFIT

    Orbital Energies [Eh]
    ---------------------

    Doubly Occupied:

       1A    -20.655956     2A    -20.547724     3A    -15.845305
       4A    -11.311416     5A    -11.272932     6A    -11.271832
       7A    -11.270849     8A    -11.268837     9A    -11.265260
      10A    -11.244281    11A     -1.668178    12A     -1.324726
      13A     -1.197157    14A     -1.103505    15A     -1.062500
      16A     -0.974038    17A     -0.953083    18A     -0.849640
      19A     -0.830658    20A     -0.777193    21A     -0.736759
      22A     -0.733995    23A     -0.706950    24A     -0.665322
      25A     -0.633005    26A     -0.604979    27A     -0.597442
      28A     -0.564658    29A     -0.545561    30A     -0.523977
      31A     -0.522613    32A     -0.478521    33A     -0.455630
      34A     -0.438116    35A     -0.372390    36A     -0.357142

  @DF-RHF Final Energy:  -473.33971957683724

   => Energetics <=

    Nuclear Repulsion Energy =            493.8672618176434526
    One-Electron Energy =               -1623.1496986997879048
    Two-Electron Energy =                 655.9427173053071556
    Total Energy =                       -473.3397195768371830
  Basis Set: (AUG-CC-PVTZ AUX)
    Blend: AUG-CC-PVTZ-RI
    Molecular point group: c1

    Geometry (in Angstrom), charge = 0, multiplicity = 1:

       Center              X                  Y                   Z               Mass
    ------------   -----------------  -----------------  -----------------  -----------------
         O            2.805165739108     0.483739666062     0.019399472323    15.994914619570
         O            2.098546739108    -1.599987333938    -0.016015527677    15.994914619570
         N            1.946366239108    -0.224308433938     0.001958372323    14.003074004430
         C           -1.839923260892    -0.407818333938    -0.013003527677    12.000000000000
         C           -0.510861260892    -0.843473333938    -0.006580527677    12.000000000000
         C            0.511883739108     0.100871666062     0.000448472323    12.000000000000
         C           -2.097855260892     0.970414666062    -0.009735527677    12.000000000000
         C            0.273937739108     1.472415666062     0.003057472323    12.000000000000
         C           -1.054093260892     1.897540666062    -0.003259527677    12.000000000000
         C           -2.969208260892    -1.403906333938     0.017545472323    12.000000000000
         H           -0.263032260892    -1.900319333938    -0.012304527677     1.007825032230
         H           -3.128458260892     1.320807666062    -0.018841527677     1.007825032230
         H            1.103702739108     2.169966666062     0.005396472323     1.007825032230
         H           -1.274763260892     2.961910666062    -0.005415527677     1.007825032230
         H           -2.661839260892    -2.359261333938    -0.415465527677     1.007825032230
         H           -3.294778260892    -1.591634333938     1.046128472323     1.007825032230
         H           -3.832489260892    -1.035317333938    -0.543155527677     1.007825032230

  Basis Set: AUG-CC-PVTZ
    Blend: AUG-CC-PVTZ
  Basis Set: (AUG-CC-PVTZ AUX)
    Blend: AUG-CC-PVTZ-JKFIT
	 Reference Energy          =    -473.3397195768372399 [Eh]
	 Singles Energy            =      -0.0000000000000000 [Eh]
	 Same-Spin Energy          =      -0.4999207037483805 [Eh]
	 Opposite-Spin Energy      =      -1.5102520971591999 [Eh]
	 Correlation Energy        =      -2.0101728009075805 [Eh]
	 Total Energy              =    -475.3498923777448226 [Eh]

	 ================> DF-SCS-MP2 Energies <==================
	-----------------------------------------------------------
	 SCS Same-Spin Scale       =       0.3333333333333333 [-]
	 SCS Opposite-Spin Scale   =       1.2000000000000000 [-]
	 SCS Same-Spin Energy      =      -0.1666402345827935 [Eh]
	 SCS Opposite-Spin Energy  =      -1.8123025165910398 [Eh]
	 SCS Correlation Energy    =      -1.9789427511738333 [Eh]
	 SCS Total Energy          =    -475.3186623280111007 [Eh]
	-----------------------------------------------------------

  Dipole Moment: [D]
     X:    -4.4766      Y:     2.0768      Z:     0.0511     Total:     4.9351

*** Psi4 exiting successfully. Buy a developer a beer!
