                               Psi4 1.3.2 release

  ==> Input File <==

--------------------------------------------------------------------------
#psi4
#
memory 32 gb

molecule  {
0 1
  O        2.9010970     0.5011680     0.0190930
  O        2.1944780    -1.5825590    -0.0163220
  N        2.0004500    -0.3550410     0.0008100
  C       -1.7756861    -0.3551476     0.0094313
  C       -0.4149300    -0.8260450    -0.0068870
  C        0.6078150     0.1183000     0.0001420
  C       -2.0019240     0.9878430    -0.0100420
  C        0.3698690     1.4898440     0.0027510
  C       -0.9581620     1.9149690    -0.0035660
  C       -2.8732770    -1.3864780     0.0172390
  H       -0.1671010    -1.8828910    -0.0126110
  H       -3.0325270     1.3382360    -0.0191480
  H        1.1996340     2.1873950     0.0050900
  H       -1.1788320     2.9793390    -0.0057220
  H       -2.5659080    -2.3418330    -0.4157720
  H       -3.1988470    -1.5742060     1.0458220
  H       -3.7365580    -1.0178890    -0.5434620
units angstrom
no_reorient  #important for SAPT in psi4, default
symmetry c1  #important for SAPT in psi4, default
}

set PROPERTIES_ORIGIN ["COM"]
properties('MP2/aug-cc-pvtz', properties = ['dipole'])
--------------------------------------------------------------------------

    Molecular point group: c1
  Charge       = 0
  Multiplicity = 1
  Basis Set: AUG-CC-PVTZ
    Blend: AUG-CC-PVTZ
  Basis Set: (AUG-CC-PVTZ AUX)
    Blend: AUG-CC-PVTZ-JKFIT

    Orbital Energies [Eh]
    ---------------------

    Doubly Occupied:

       1A    -20.604093     2A    -20.603366     3A    -15.853579
       4A    -11.311673     5A    -11.276296     6A    -11.273061
       7A    -11.270193     8A    -11.265448     9A    -11.262577
      10A    -11.245383    11A     -1.586976    12A     -1.385519
      13A     -1.197764    14A     -1.103978    15A     -1.062452
      16A     -0.966015    17A     -0.958089    18A     -0.853229
      19A     -0.814269    20A     -0.760427    21A     -0.722875
      22A     -0.707410    23A     -0.702769    24A     -0.664388
      25A     -0.637128    26A     -0.601884    27A     -0.598629
      28A     -0.565334    29A     -0.538549    30A     -0.525713
      31A     -0.520898    32A     -0.492925    33A     -0.491411
      34A     -0.451525    35A     -0.377340    36A     -0.353082

  @DF-RHF Final Energy:  -473.37013467725694

   => Energetics <=

    Nuclear Repulsion Energy =            493.4097548799238666
    One-Electron Energy =               -1622.3472862321734738
    Two-Electron Energy =                 655.5673966749926649
    Total Energy =                       -473.3701346772569423
  Basis Set: (AUG-CC-PVTZ AUX)
    Blend: AUG-CC-PVTZ-RI
    Molecular point group: c1

    Geometry (in Angstrom), charge = 0, multiplicity = 1:

       Center              X                  Y                   Z               Mass
    ------------   -----------------  -----------------  -----------------  -----------------
         O            2.812216736617     0.495792400305     0.017494249156    15.994914619570
         O            2.105597736617    -1.587934599695    -0.017920750844    15.994914619570
         N            1.911569736617    -0.360416599695    -0.000788750844    14.003074004430
         C           -1.864566363383    -0.360523199695     0.007832549156    12.000000000000
         C           -0.503810263383    -0.831420599695    -0.008485750844    12.000000000000
         C            0.518934736617     0.112924400305    -0.001456750844    12.000000000000
         C           -2.090804263383     0.982467400305    -0.011640750844    12.000000000000
         C            0.280988736617     1.484468400305     0.001152249156    12.000000000000
         C           -1.047042263383     1.909593400305    -0.005164750844    12.000000000000
         C           -2.962157263383    -1.391853599695     0.015640249156    12.000000000000
         H           -0.255981263383    -1.888266599695    -0.014209750844     1.007825032230
         H           -3.121407263383     1.332860400305    -0.020746750844     1.007825032230
         H            1.110753736617     2.182019400305     0.003491249156     1.007825032230
         H           -1.267712263383     2.973963400305    -0.007320750844     1.007825032230
         H           -2.654788263383    -2.347208599695    -0.417370750844     1.007825032230
         H           -3.287727263383    -1.579581599695     1.044223249156     1.007825032230
         H           -3.825438263383    -1.023264599695    -0.545060750844     1.007825032230

  Basis Set: AUG-CC-PVTZ
    Blend: AUG-CC-PVTZ
  Basis Set: (AUG-CC-PVTZ AUX)
    Blend: AUG-CC-PVTZ-JKFIT
	 Reference Energy          =    -473.3701346772569423 [Eh]
	 Singles Energy            =      -0.0000000000000000 [Eh]
	 Same-Spin Energy          =      -0.5029108637391453 [Eh]
	 Opposite-Spin Energy      =      -1.5161936910687217 [Eh]
	 Correlation Energy        =      -2.0191045548078668 [Eh]
	 Total Energy              =    -475.3892392320648241 [Eh]

	 ================> DF-SCS-MP2 Energies <==================
	-----------------------------------------------------------
	 SCS Same-Spin Scale       =       0.3333333333333333 [-]
	 SCS Opposite-Spin Scale   =       1.2000000000000000 [-]
	 SCS Same-Spin Energy      =      -0.1676369545797151 [Eh]
	 SCS Opposite-Spin Energy  =      -1.8194324292824660 [Eh]
	 SCS Correlation Energy    =      -1.9870693838621811 [Eh]
	 SCS Total Energy          =    -475.3572040611191483 [Eh]
	-----------------------------------------------------------

  Dipole Moment: [D]
     X:    -4.5548      Y:     1.0353      Z:     0.0267     Total:     4.6711

*** Psi4 exiting successfully. Buy a developer a beer!
