                               Psi4 1.3.2 release

  ==> Input File <==

--------------------------------------------------------------------------
#psi4
#
memory 32 gb

molecule  {
0 1
  O        2.9010970     0.5011680     0.0190930
  O        2.1944780    -1.5825590    -0.0163220
  N        2.0004500    -0.3550410     0.0008100
  C       -1.6573110    -0.5032195    -0.0812001
  C       -0.4149300    -0.8260450    -0.0068870
  C        0.6078150     0.1183000     0.0001420
  C       -2.0019240     0.9878430    -0.0100420
  C        0.3698690     1.4898440     0.0027510
  C       -0.9581620     1.9149690    -0.0035660
  C       -2.8732770    -1.3864780     0.0172390
  H       -0.1671010    -1.8828910    -0.0126110
  H       -3.0325270     1.3382360    -0.0191480
  H        1.1996340     2.1873950     0.0050900
  H       -1.1788320     2.9793390    -0.0057220
  H       -2.5659080    -2.3418330    -0.4157720
  H       -3.1988470    -1.5742060     1.0458220
  H       -3.7365580    -1.0178890    -0.5434620
units angstrom
no_reorient  #important for SAPT in psi4, default
symmetry c1  #important for SAPT in psi4, default
}

set PROPERTIES_ORIGIN ["COM"]
properties('MP2/aug-cc-pvtz', properties = ['dipole'])
--------------------------------------------------------------------------

    Molecular point group: c1
  Charge       = 0
  Multiplicity = 1
  Basis Set: AUG-CC-PVTZ
    Blend: AUG-CC-PVTZ
  Basis Set: (AUG-CC-PVTZ AUX)
    Blend: AUG-CC-PVTZ-JKFIT

    Orbital Energies [Eh]
    ---------------------

    Doubly Occupied:

       1A    -20.602062     2A    -20.600141     3A    -15.852163
       4A    -11.310271     5A    -11.282257     6A    -11.278368
       7A    -11.270133     8A    -11.264925     9A    -11.252755
      10A    -11.245452    11A     -1.584867    12A     -1.383345
      13A     -1.200455    14A     -1.095366    15A     -1.073661
      16A     -0.976959    17A     -0.948864    18A     -0.835783
      19A     -0.823251    20A     -0.766948    21A     -0.719300
      22A     -0.705919    23A     -0.702022    24A     -0.662674
      25A     -0.632092    26A     -0.611592    27A     -0.597029
      28A     -0.565164    29A     -0.561908    30A     -0.522385
      31A     -0.494285    32A     -0.492869    33A     -0.484319
      34A     -0.450037    35A     -0.381930    36A     -0.354059

  @DF-RHF Final Energy:  -473.34745760663003

   => Energetics <=

    Nuclear Repulsion Energy =            493.8413113278685955
    One-Electron Energy =               -1623.2063188167689987
    Two-Electron Energy =                 656.0175498822702593
    Total Energy =                       -473.3474576066300870
  Basis Set: (AUG-CC-PVTZ AUX)
    Blend: AUG-CC-PVTZ-RI
    Molecular point group: c1

    Geometry (in Angstrom), charge = 0, multiplicity = 1:

       Center              X                  Y                   Z               Mass
    ------------   -----------------  -----------------  -----------------  -----------------
         O            2.801851721931     0.508757689611     0.025430004159    15.994914619570
         O            2.095232721931    -1.574969310389    -0.009984995841    15.994914619570
         N            1.901204721931    -0.347451310389     0.007147004159    14.003074004430
         C           -1.756556278069    -0.495629810389    -0.074863095841    12.000000000000
         C           -0.514175278069    -0.818455310389    -0.000549995841    12.000000000000
         C            0.508569721931     0.125889689611     0.006479004159    12.000000000000
         C           -2.101169278069     0.995432689611    -0.003704995841    12.000000000000
         C            0.270623721931     1.497433689611     0.009088004159    12.000000000000
         C           -1.057407278069     1.922558689611     0.002771004159    12.000000000000
         C           -2.972522278069    -1.378888310389     0.023576004159    12.000000000000
         H           -0.266346278069    -1.875301310389    -0.006273995841     1.007825032230
         H           -3.131772278069     1.345825689611    -0.012810995841     1.007825032230
         H            1.100388721931     2.194984689611     0.011427004159     1.007825032230
         H           -1.278077278069     2.986928689611     0.000615004159     1.007825032230
         H           -2.665153278069    -2.334243310389    -0.409434995841     1.007825032230
         H           -3.298092278069    -1.566616310389     1.052159004159     1.007825032230
         H           -3.835803278069    -1.010299310389    -0.537124995841     1.007825032230

  Basis Set: AUG-CC-PVTZ
    Blend: AUG-CC-PVTZ
  Basis Set: (AUG-CC-PVTZ AUX)
    Blend: AUG-CC-PVTZ-JKFIT
	 Reference Energy          =    -473.3474576066300301 [Eh]
	 Singles Energy            =      -0.0000000000000000 [Eh]
	 Same-Spin Energy          =      -0.5022661182417854 [Eh]
	 Opposite-Spin Energy      =      -1.5167437294738884 [Eh]
	 Correlation Energy        =      -2.0190098477156737 [Eh]
	 Total Energy              =    -475.3664674543456954 [Eh]

	 ================> DF-SCS-MP2 Energies <==================
	-----------------------------------------------------------
	 SCS Same-Spin Scale       =       0.3333333333333333 [-]
	 SCS Opposite-Spin Scale   =       1.2000000000000000 [-]
	 SCS Same-Spin Energy      =      -0.1674220394139284 [Eh]
	 SCS Opposite-Spin Energy  =      -1.8200924753686660 [Eh]
	 SCS Correlation Energy    =      -1.9875145147825946 [Eh]
	 SCS Total Energy          =    -475.3349721214126475 [Eh]
	-----------------------------------------------------------

  Dipole Moment: [D]
     X:    -4.5864      Y:     1.1126      Z:     0.0575     Total:     4.7198

*** Psi4 exiting successfully. Buy a developer a beer!
