                               Psi4 1.3.2 release

  ==> Input File <==

--------------------------------------------------------------------------
#psi4
#
memory 32 gb

molecule  {
0 1
  O        2.9010970     0.5011680     0.0190930
  O        2.1944780    -1.5825590    -0.0163220
  N        2.0004500    -0.3550410     0.0008100
  C       -1.7439920    -0.3903900    -0.0133100
  C       -0.4677506    -0.9625315    -0.0030890
  C        0.6078150     0.1183000     0.0001420
  C       -2.0019240     0.9878430    -0.0100420
  C        0.3698690     1.4898440     0.0027510
  C       -0.9581620     1.9149690    -0.0035660
  C       -2.8732770    -1.3864780     0.0172390
  H       -0.1671010    -1.8828910    -0.0126110
  H       -3.0325270     1.3382360    -0.0191480
  H        1.1996340     2.1873950     0.0050900
  H       -1.1788320     2.9793390    -0.0057220
  H       -2.5659080    -2.3418330    -0.4157720
  H       -3.1988470    -1.5742060     1.0458220
  H       -3.7365580    -1.0178890    -0.5434620
units angstrom
no_reorient  #important for SAPT in psi4, default
symmetry c1  #important for SAPT in psi4, default
}

set PROPERTIES_ORIGIN ["COM"]
properties('MP2/aug-cc-pvtz', properties = ['dipole'])
--------------------------------------------------------------------------

    Molecular point group: c1
  Charge       = 0
  Multiplicity = 1
  Basis Set: AUG-CC-PVTZ
    Blend: AUG-CC-PVTZ
  Basis Set: (AUG-CC-PVTZ AUX)
    Blend: AUG-CC-PVTZ-JKFIT

    Orbital Energies [Eh]
    ---------------------

    Doubly Occupied:

       1A    -20.601462     2A    -20.600563     3A    -15.850860
       4A    -11.321591     5A    -11.276567     6A    -11.275561
       7A    -11.275299     8A    -11.272057     9A    -11.269386
      10A    -11.241627    11A     -1.584388    12A     -1.383105
      13A     -1.187819    14A     -1.097945    15A     -1.067961
      16A     -0.962713    17A     -0.956590    18A     -0.857990
      19A     -0.811460    20A     -0.750104    21A     -0.724716
      22A     -0.718877    23A     -0.704315    24A     -0.663434
      25A     -0.644037    26A     -0.606634    27A     -0.596664
      28A     -0.570495    29A     -0.545537    30A     -0.514818
      31A     -0.513639    32A     -0.491797    33A     -0.484761
      34A     -0.449931    35A     -0.365482    36A     -0.359685

  @DF-RHF Final Energy:  -473.34314625754649

   => Energetics <=

    Nuclear Repulsion Energy =            491.4644190760089941
    One-Electron Energy =               -1618.4153906210115110
    Two-Electron Energy =                 653.6078252874561940
    Total Energy =                       -473.3431462575464366
  Basis Set: (AUG-CC-PVTZ AUX)
    Blend: AUG-CC-PVTZ-RI
    Molecular point group: c1

    Geometry (in Angstrom), charge = 0, multiplicity = 1:

       Center              X                  Y                   Z               Mass
    ------------   -----------------  -----------------  -----------------  -----------------
         O            2.814066589185     0.510829114703     0.019152939055    15.994914619570
         O            2.107447589185    -1.572897885297    -0.016262060945    15.994914619570
         N            1.913419589185    -0.345379885297     0.000869939055    14.003074004430
         C           -1.831022410815    -0.380728885297    -0.013250060945    12.000000000000
         C           -0.554781010815    -0.952870385297    -0.003029060945    12.000000000000
         C            0.520784589185     0.127961114703     0.000201939055    12.000000000000
         C           -2.088954410815     0.997504114703    -0.009982060945    12.000000000000
         C            0.282838589185     1.499505114703     0.002810939055    12.000000000000
         C           -1.045192410815     1.924630114703    -0.003506060945    12.000000000000
         C           -2.960307410815    -1.376816885297     0.017298939055    12.000000000000
         H           -0.254131410815    -1.873229885297    -0.012551060945     1.007825032230
         H           -3.119557410815     1.347897114703    -0.019088060945     1.007825032230
         H            1.112603589185     2.197056114703     0.005149939055     1.007825032230
         H           -1.265862410815     2.989000114703    -0.005662060945     1.007825032230
         H           -2.652938410815    -2.332171885297    -0.415712060945     1.007825032230
         H           -3.285877410815    -1.564544885297     1.045881939055     1.007825032230
         H           -3.823588410815    -1.008227885297    -0.543402060945     1.007825032230

  Basis Set: AUG-CC-PVTZ
    Blend: AUG-CC-PVTZ
  Basis Set: (AUG-CC-PVTZ AUX)
    Blend: AUG-CC-PVTZ-JKFIT
	 Reference Energy          =    -473.3431462575464934 [Eh]
	 Singles Energy            =      -0.0000000000000000 [Eh]
	 Same-Spin Energy          =      -0.5031061277570394 [Eh]
	 Opposite-Spin Energy      =      -1.5181746657482316 [Eh]
	 Correlation Energy        =      -2.0212807935052712 [Eh]
	 Total Energy              =    -475.3644270510517913 [Eh]

	 ================> DF-SCS-MP2 Energies <==================
	-----------------------------------------------------------
	 SCS Same-Spin Scale       =       0.3333333333333333 [-]
	 SCS Opposite-Spin Scale   =       1.2000000000000000 [-]
	 SCS Same-Spin Energy      =      -0.1677020425856798 [Eh]
	 SCS Opposite-Spin Energy  =      -1.8218095988978777 [Eh]
	 SCS Correlation Energy    =      -1.9895116414835576 [Eh]
	 SCS Total Energy          =    -475.3326578990300391 [Eh]
	-----------------------------------------------------------

  Dipole Moment: [D]
     X:    -4.5778      Y:     1.1676      Z:     0.0320     Total:     4.7244

*** Psi4 exiting successfully. Buy a developer a beer!
