                               Psi4 1.3.2 release

  ==> Input File <==

--------------------------------------------------------------------------
#psi4
#
memory 32 gb

molecule  {
0 1
  O        2.9010970     0.5011680     0.0190930
  O        2.1944780    -1.5825590    -0.0163220
  N        2.0004500    -0.3550410     0.0008100
  C       -1.7439920    -0.3903900    -0.0133100
  C       -0.4149300    -0.8260450    -0.0068870
  C        0.7971759     0.0539383     0.0002328
  C       -2.0019240     0.9878430    -0.0100420
  C        0.3698690     1.4898440     0.0027510
  C       -0.9581620     1.9149690    -0.0035660
  C       -2.8732770    -1.3864780     0.0172390
  H       -0.1671010    -1.8828910    -0.0126110
  H       -3.0325270     1.3382360    -0.0191480
  H        1.1996340     2.1873950     0.0050900
  H       -1.1788320     2.9793390    -0.0057220
  H       -2.5659080    -2.3418330    -0.4157720
  H       -3.1988470    -1.5742060     1.0458220
  H       -3.7365580    -1.0178890    -0.5434620
units angstrom
no_reorient  #important for SAPT in psi4, default
symmetry c1  #important for SAPT in psi4, default
}

set PROPERTIES_ORIGIN ["COM"]
properties('MP2/aug-cc-pvtz', properties = ['dipole'])
--------------------------------------------------------------------------

    Molecular point group: c1
  Charge       = 0
  Multiplicity = 1
  Basis Set: AUG-CC-PVTZ
    Blend: AUG-CC-PVTZ
  Basis Set: (AUG-CC-PVTZ AUX)
    Blend: AUG-CC-PVTZ-JKFIT

    Orbital Energies [Eh]
    ---------------------

    Doubly Occupied:

       1A    -20.586583     2A    -20.586523     3A    -15.840988
       4A    -11.307611     5A    -11.294861     6A    -11.292514
       7A    -11.287504     8A    -11.275791     9A    -11.269013
      10A    -11.248954    11A     -1.597665    12A     -1.379793
      13A     -1.196074    14A     -1.140440    15A     -1.068489
      16A     -0.980726    17A     -0.958606    18A     -0.843554
      19A     -0.812613    20A     -0.760786    21A     -0.723968
      22A     -0.723486    23A     -0.713816    24A     -0.654324
      25A     -0.636018    26A     -0.600744    27A     -0.594082
      28A     -0.565810    29A     -0.550051    30A     -0.507528
      31A     -0.502260    32A     -0.501078    33A     -0.478859
      34A     -0.446465    35A     -0.367416    36A     -0.357229

  @DF-RHF Final Energy:  -473.32215649312940

   => Energetics <=

    Nuclear Repulsion Energy =            493.8249219643068386
    One-Electron Energy =               -1622.9897195127657596
    Two-Electron Energy =                 655.8426410553294090
    Total Energy =                       -473.3221564931294552
  Basis Set: (AUG-CC-PVTZ AUX)
    Blend: AUG-CC-PVTZ-RI
    Molecular point group: c1

    Geometry (in Angstrom), charge = 0, multiplicity = 1:

       Center              X                  Y                   Z               Mass
    ------------   -----------------  -----------------  -----------------  -----------------
         O            2.792860991013     0.504513811812     0.019477544335    15.994914619570
         O            2.086241991013    -1.579213188188    -0.015937455665    15.994914619570
         N            1.892213991013    -0.351695188188     0.001194544335    14.003074004430
         C           -1.852228008987    -0.387044188188    -0.012925455665    12.000000000000
         C           -0.523166008987    -0.822699188188    -0.006502455665    12.000000000000
         C            0.688939891013     0.057284111812     0.000617344335    12.000000000000
         C           -2.110160008987     0.991188811812    -0.009657455665    12.000000000000
         C            0.261632991013     1.493189811812     0.003135544335    12.000000000000
         C           -1.066398008987     1.918314811812    -0.003181455665    12.000000000000
         C           -2.981513008987    -1.383132188188     0.017623544335    12.000000000000
         H           -0.275337008987    -1.879545188188    -0.012226455665     1.007825032230
         H           -3.140763008987     1.341581811812    -0.018763455665     1.007825032230
         H            1.091397991013     2.190740811812     0.005474544335     1.007825032230
         H           -1.287068008987     2.982684811812    -0.005337455665     1.007825032230
         H           -2.674144008987    -2.338487188188    -0.415387455665     1.007825032230
         H           -3.307083008987    -1.570860188188     1.046206544335     1.007825032230
         H           -3.844794008987    -1.014543188188    -0.543077455665     1.007825032230

  Basis Set: AUG-CC-PVTZ
    Blend: AUG-CC-PVTZ
  Basis Set: (AUG-CC-PVTZ AUX)
    Blend: AUG-CC-PVTZ-JKFIT
	 Reference Energy          =    -473.3221564931293983 [Eh]
	 Singles Energy            =      -0.0000000000000000 [Eh]
	 Same-Spin Energy          =      -0.5040574285202876 [Eh]
	 Opposite-Spin Energy      =      -1.5174993063206912 [Eh]
	 Correlation Energy        =      -2.0215567348409786 [Eh]
	 Total Energy              =    -475.3437132279703974 [Eh]

	 ================> DF-SCS-MP2 Energies <==================
	-----------------------------------------------------------
	 SCS Same-Spin Scale       =       0.3333333333333333 [-]
	 SCS Opposite-Spin Scale   =       1.2000000000000000 [-]
	 SCS Same-Spin Energy      =      -0.1680191428400958 [Eh]
	 SCS Opposite-Spin Energy  =      -1.8209991675848294 [Eh]
	 SCS Correlation Energy    =      -1.9890183104249253 [Eh]
	 SCS Total Energy          =    -475.3111748035543087 [Eh]
	-----------------------------------------------------------

  Dipole Moment: [D]
     X:    -4.9264      Y:     1.1407      Z:     0.0329     Total:     5.0568

*** Psi4 exiting successfully. Buy a developer a beer!
