                               Psi4 1.3.2 release

  ==> Input File <==

--------------------------------------------------------------------------
#psi4
#
memory 32 gb

molecule  {
0 1
  O        2.9010970     0.5011680     0.0190930
  O        2.1944780    -1.5825590    -0.0163220
  N        2.0004500    -0.3550410     0.0008100
  C       -1.7439920    -0.3903900    -0.0133100
  C       -0.4149300    -0.8260450    -0.0068870
  C        0.7547543     0.2539754     0.0011519
  C       -2.0019240     0.9878430    -0.0100420
  C        0.3698690     1.4898440     0.0027510
  C       -0.9581620     1.9149690    -0.0035660
  C       -2.8732770    -1.3864780     0.0172390
  H       -0.1671010    -1.8828910    -0.0126110
  H       -3.0325270     1.3382360    -0.0191480
  H        1.1996340     2.1873950     0.0050900
  H       -1.1788320     2.9793390    -0.0057220
  H       -2.5659080    -2.3418330    -0.4157720
  H       -3.1988470    -1.5742060     1.0458220
  H       -3.7365580    -1.0178890    -0.5434620
units angstrom
no_reorient  #important for SAPT in psi4, default
symmetry c1  #important for SAPT in psi4, default
}

set PROPERTIES_ORIGIN ["COM"]
properties('MP2/aug-cc-pvtz', properties = ['dipole'])
--------------------------------------------------------------------------

    Molecular point group: c1
  Charge       = 0
  Multiplicity = 1
  Basis Set: AUG-CC-PVTZ
    Blend: AUG-CC-PVTZ
  Basis Set: (AUG-CC-PVTZ AUX)
    Blend: AUG-CC-PVTZ-JKFIT

    Orbital Energies [Eh]
    ---------------------

    Doubly Occupied:

       1A    -20.606804     2A    -20.599273     3A    -15.855707
       4A    -11.310191     5A    -11.281637     6A    -11.275205
       7A    -11.269489     8A    -11.268754     9A    -11.266035
      10A    -11.243973    11A     -1.595623    12A     -1.389319
      13A     -1.195821    14A     -1.117230    15A     -1.066060
      16A     -0.977042    17A     -0.953145    18A     -0.861671
      19A     -0.809340    20A     -0.758958    21A     -0.726663
      22A     -0.717619    23A     -0.709764    24A     -0.656861
      25A     -0.630734    26A     -0.596307    27A     -0.593345
      28A     -0.568422    29A     -0.540202    30A     -0.518256
      31A     -0.517711    32A     -0.494382    33A     -0.480664
      34A     -0.453556    35A     -0.381348    36A     -0.347370

  @DF-RHF Final Energy:  -473.32724877110968

   => Energetics <=

    Nuclear Repulsion Energy =            493.4355604181539547
    One-Electron Energy =               -1622.2566566892940045
    Two-Electron Energy =                 655.4938475000303697
    Total Energy =                       -473.3272487711096801
  Basis Set: (AUG-CC-PVTZ AUX)
    Blend: AUG-CC-PVTZ-RI
    Molecular point group: c1

    Geometry (in Angstrom), charge = 0, multiplicity = 1:

       Center              X                  Y                   Z               Mass
    ------------   -----------------  -----------------  -----------------  -----------------
         O            2.796575458895     0.486998409678     0.019397067233    15.994914619570
         O            2.089956458895    -1.596728590322    -0.016017932767    15.994914619570
         N            1.895928458895    -0.369210590322     0.001114067233    14.003074004430
         C           -1.848513541105    -0.404559590322    -0.013005932767    12.000000000000
         C           -0.519451541105    -0.840214590322    -0.006582932767    12.000000000000
         C            0.650232758895     0.239805809678     0.001455967233    12.000000000000
         C           -2.106445541105     0.973673409678    -0.009737932767    12.000000000000
         C            0.265347458895     1.475674409678     0.003055067233    12.000000000000
         C           -1.062683541105     1.900799409678    -0.003261932767    12.000000000000
         C           -2.977798541105    -1.400647590322     0.017543067233    12.000000000000
         H           -0.271622541105    -1.897060590322    -0.012306932767     1.007825032230
         H           -3.137048541105     1.324066409678    -0.018843932767     1.007825032230
         H            1.095112458895     2.173225409678     0.005394067233     1.007825032230
         H           -1.283353541105     2.965169409678    -0.005417932767     1.007825032230
         H           -2.670429541105    -2.356002590322    -0.415467932767     1.007825032230
         H           -3.303368541105    -1.588375590322     1.046126067233     1.007825032230
         H           -3.841079541105    -1.032058590322    -0.543157932767     1.007825032230

  Basis Set: AUG-CC-PVTZ
    Blend: AUG-CC-PVTZ
  Basis Set: (AUG-CC-PVTZ AUX)
    Blend: AUG-CC-PVTZ-JKFIT
	 Reference Energy          =    -473.3272487711096801 [Eh]
	 Singles Energy            =      -0.0000000000000000 [Eh]
	 Same-Spin Energy          =      -0.5030744789985255 [Eh]
	 Opposite-Spin Energy      =      -1.5185802816523166 [Eh]
	 Correlation Energy        =      -2.0216547606508422 [Eh]
	 Total Energy              =    -475.3489035317605271 [Eh]

	 ================> DF-SCS-MP2 Energies <==================
	-----------------------------------------------------------
	 SCS Same-Spin Scale       =       0.3333333333333333 [-]
	 SCS Opposite-Spin Scale   =       1.2000000000000000 [-]
	 SCS Same-Spin Energy      =      -0.1676914929995085 [Eh]
	 SCS Opposite-Spin Energy  =      -1.8222963379827799 [Eh]
	 SCS Correlation Energy    =      -1.9899878309822885 [Eh]
	 SCS Total Energy          =    -475.3172366020919526 [Eh]
	-----------------------------------------------------------

  Dipole Moment: [D]
     X:    -4.5423      Y:     1.1469      Z:     0.0340     Total:     4.6850

*** Psi4 exiting successfully. Buy a developer a beer!
