                               Psi4 1.4a3.dev225

  ==> Input File <==

--------------------------------------------------------------------------
#psi4
#
memory 32 gb

molecule  {
0 1
  O        2.9010780     0.5011950     0.0183730
  O        2.1944840    -1.5825690    -0.0155730
  N        2.0004400    -0.3550420     0.0007840
  C       -1.7439870    -0.3903860    -0.0134210
  C       -0.4149410    -0.8260390    -0.0069050
  C        0.5931338     0.1047257    -0.0001406
  C       -2.0019250     0.9878490    -0.0097750
  C        0.3698600     1.4898450     0.0029890
  C       -0.9581720     1.9149540    -0.0034080
  C       -2.8732650    -1.3864910     0.0169490
  H       -0.1670670    -1.8828790    -0.0128300
  H       -3.0325330     1.3382220    -0.0189380
  H        1.1996540     2.1873670     0.0051620
  H       -1.1788090     2.9793360    -0.0051500
  H       -2.5655400    -2.3420280    -0.4153900
  H       -3.1994760    -1.5736770     1.0454250
  H       -3.7361930    -1.0182010    -0.5444970
units angstrom
no_reorient  #important for SAPT in psi4, default
symmetry c1  #important for SAPT in psi4, default
}

set PROPERTIES_ORIGIN ["COM"]
properties('MP2/aug-cc-pvtz', properties = ['dipole'])
--------------------------------------------------------------------------

    Molecular point group: c1
  Charge       = 0
  Multiplicity = 1
  Basis Set: AUG-CC-PVTZ
    Blend: AUG-CC-PVTZ
  Basis Set: (AUG-CC-PVTZ AUX)
    Blend: AUG-CC-PVTZ-JKFIT

    Orbital Energies [Eh]
    ---------------------

    Doubly Occupied:

       1A    -20.603776     2A    -20.603032     3A    -15.853054
       4A    -11.311656     5A    -11.273184     6A    -11.272246
       7A    -11.268675     8A    -11.267766     9A    -11.265076
      10A    -11.245085    11A     -1.585861    12A     -1.384903
      13A     -1.198960    14A     -1.098864    15A     -1.065928
      16A     -0.970135    17A     -0.953549    18A     -0.847282
      19A     -0.818204    20A     -0.762635    21A     -0.721889
      22A     -0.706250    23A     -0.702347    24A     -0.665117
      25A     -0.635583    26A     -0.603811    27A     -0.598134
      28A     -0.564954    29A     -0.543624    30A     -0.522109
      31A     -0.521271    32A     -0.492075    33A     -0.491619
      34A     -0.451159    35A     -0.375726    36A     -0.355130

  @DF-RHF Final Energy:  -473.37244141068305

   => Energetics <=

    Nuclear Repulsion Energy =            493.5657251085314101
    One-Electron Energy =               -1622.6749983409927154
    Two-Electron Energy =                 655.7368318217783099
    Total Energy =                       -473.3724414106831091
  Basis Set: (AUG-CC-PVTZ AUX)
    Blend: AUG-CC-PVTZ-RI
    Molecular point group: c1

    Geometry (in Angstrom), charge = 0, multiplicity = 1:

       Center              X                  Y                   Z               Mass
    ------------   -----------------  -----------------  -----------------  -----------------
         O            2.810710551959     0.500092990213     0.018771198523    15.994914619570
         O            2.104116551959    -1.583671009787    -0.015174801477    15.994914619570
         N            1.910072551959    -0.356144009787     0.001182198523    14.003074004430
         C           -1.834354448041    -0.391488009787    -0.013022801477    12.000000000000
         C           -0.505308448041    -0.827141009787    -0.006506801477    12.000000000000
         C            0.502766351959     0.103623690213     0.000257598523    12.000000000000
         C           -2.092292448041     0.986746990213    -0.009376801477    12.000000000000
         C            0.279492551959     1.488742990213     0.003387198523    12.000000000000
         C           -1.048539448041     1.913851990213    -0.003009801477    12.000000000000
         C           -2.963632448041    -1.387593009787     0.017347198523    12.000000000000
         H           -0.257434448041    -1.883981009787    -0.012431801477     1.007825032230
         H           -3.122900448041     1.337119990213    -0.018539801477     1.007825032230
         H            1.109286551959     2.186264990213     0.005560198523     1.007825032230
         H           -1.269176448041     2.978233990213    -0.004751801477     1.007825032230
         H           -2.655907448041    -2.343130009787    -0.414991801477     1.007825032230
         H           -3.289843448041    -1.574779009787     1.045823198523     1.007825032230
         H           -3.826560448041    -1.019303009787    -0.544098801477     1.007825032230

  Basis Set: AUG-CC-PVTZ
    Blend: AUG-CC-PVTZ
  Basis Set: (AUG-CC-PVTZ AUX)
    Blend: AUG-CC-PVTZ-JKFIT
	 Reference Energy          =    -473.3724414106830523 [Eh]
	 Singles Energy            =      -0.0000000000000000 [Eh]
	 Same-Spin Energy          =      -0.5029619935601929 [Eh]
	 Opposite-Spin Energy      =      -1.5160736419306655 [Eh]
	 Correlation Energy        =      -2.0190356354908583 [Eh]
	 Total Energy              =    -475.3914770461739181 [Eh]

	 ================> DF-SCS-MP2 Energies <==================
	-----------------------------------------------------------
	 SCS Same-Spin Scale       =       0.3333333333333333 [-]
	 SCS Opposite-Spin Scale   =       1.2000000000000000 [-]
	 SCS Same-Spin Energy      =      -0.1676539978533976 [Eh]
	 SCS Opposite-Spin Energy  =      -1.8192883703167986 [Eh]
	 SCS Correlation Energy    =      -1.9869423681701961 [Eh]
	 SCS Total Energy          =    -475.3593837788532710 [Eh]
	-----------------------------------------------------------

  Dipole Moment: [D]
     X:    -4.5621      Y:     1.0440      Z:     0.0346     Total:     4.6802

*** Psi4 exiting successfully. Buy a developer a beer!
