                               Psi4 1.3.2 release

  ==> Input File <==

--------------------------------------------------------------------------
#psi4
#
memory 32 gb

molecule  {
0 1
  O        2.9010970     0.5011680     0.0190930
  O        2.1944780    -1.5825590    -0.0163220
  N        2.0004500    -0.3550410     0.0008100
  C       -1.7439920    -0.3903900    -0.0133100
  C       -0.3766708    -0.6847854    -0.0107554
  C        0.6078150     0.1183000     0.0001420
  C       -2.0019240     0.9878430    -0.0100420
  C        0.3698690     1.4898440     0.0027510
  C       -0.9581620     1.9149690    -0.0035660
  C       -2.8732770    -1.3864780     0.0172390
  H       -0.1671010    -1.8828910    -0.0126110
  H       -3.0325270     1.3382360    -0.0191480
  H        1.1996340     2.1873950     0.0050900
  H       -1.1788320     2.9793390    -0.0057220
  H       -2.5659080    -2.3418330    -0.4157720
  H       -3.1988470    -1.5742060     1.0458220
  H       -3.7365580    -1.0178890    -0.5434620
units angstrom
no_reorient  #important for SAPT in psi4, default
symmetry c1  #important for SAPT in psi4, default
}

set PROPERTIES_ORIGIN ["COM"]
properties('MP2/aug-cc-pvtz', properties = ['dipole'])
--------------------------------------------------------------------------

    Molecular point group: c1
  Charge       = 0
  Multiplicity = 1
  Basis Set: AUG-CC-PVTZ
    Blend: AUG-CC-PVTZ
  Basis Set: (AUG-CC-PVTZ AUX)
    Blend: AUG-CC-PVTZ-JKFIT

    Orbital Energies [Eh]
    ---------------------

    Doubly Occupied:

       1A    -20.606492     2A    -20.605831     3A    -15.856144
       4A    -11.298702     5A    -11.272722     6A    -11.268644
       7A    -11.265613     8A    -11.265500     9A    -11.261697
      10A    -11.248754    11A     -1.589044    12A     -1.387407
      13A     -1.214166    14A     -1.106190    15A     -1.061973
      16A     -0.977831    17A     -0.955432    18A     -0.845521
      19A     -0.825208    20A     -0.773668    21A     -0.723826
      22A     -0.710430    23A     -0.693694    24A     -0.668176
      25A     -0.622780    26A     -0.600763    27A     -0.594653
      28A     -0.562725    29A     -0.545336    30A     -0.532842
      31A     -0.511204    32A     -0.495695    33A     -0.484567
      34A     -0.452607    35A     -0.385955    36A     -0.351643

  @DF-RHF Final Energy:  -473.34410315257674

   => Energetics <=

    Nuclear Repulsion Energy =            495.7929885512816099
    One-Electron Energy =               -1627.0273201112463539
    Two-Electron Energy =                 657.8902284073878945
    Total Energy =                       -473.3441031525767357
  Basis Set: (AUG-CC-PVTZ AUX)
    Blend: AUG-CC-PVTZ-RI
    Molecular point group: c1

    Geometry (in Angstrom), charge = 0, multiplicity = 1:

       Center              X                  Y                   Z               Mass
    ------------   -----------------  -----------------  -----------------  -----------------
         O            2.806091571934     0.486509452836     0.019824214928    15.994914619570
         O            2.099472571934    -1.597217547164    -0.015590785072    15.994914619570
         N            1.905444571934    -0.369699547164     0.001541214928    14.003074004430
         C           -1.838997428066    -0.405048547164    -0.012578785072    12.000000000000
         C           -0.471676228066    -0.699443947164    -0.010024185072    12.000000000000
         C            0.512809571934     0.103641452836     0.000873214928    12.000000000000
         C           -2.096929428066     0.973184452836    -0.009310785072    12.000000000000
         C            0.274863571934     1.475185452836     0.003482214928    12.000000000000
         C           -1.053167428066     1.900310452836    -0.002834785072    12.000000000000
         C           -2.968282428066    -1.401136547164     0.017970214928    12.000000000000
         H           -0.262106428066    -1.897549547164    -0.011879785072     1.007825032230
         H           -3.127532428066     1.323577452836    -0.018416785072     1.007825032230
         H            1.104628571934     2.172736452836     0.005821214928     1.007825032230
         H           -1.273837428066     2.964680452836    -0.004990785072     1.007825032230
         H           -2.660913428066    -2.356491547164    -0.415040785072     1.007825032230
         H           -3.293852428066    -1.588864547164     1.046553214928     1.007825032230
         H           -3.831563428066    -1.032547547164    -0.542730785072     1.007825032230

  Basis Set: AUG-CC-PVTZ
    Blend: AUG-CC-PVTZ
  Basis Set: (AUG-CC-PVTZ AUX)
    Blend: AUG-CC-PVTZ-JKFIT
	 Reference Energy          =    -473.3441031525767357 [Eh]
	 Singles Energy            =      -0.0000000000000000 [Eh]
	 Same-Spin Energy          =      -0.5037196403281454 [Eh]
	 Opposite-Spin Energy      =      -1.5174671624884164 [Eh]
	 Correlation Energy        =      -2.0211868028165618 [Eh]
	 Total Energy              =    -475.3652899553932798 [Eh]

	 ================> DF-SCS-MP2 Energies <==================
	-----------------------------------------------------------
	 SCS Same-Spin Scale       =       0.3333333333333333 [-]
	 SCS Opposite-Spin Scale   =       1.2000000000000000 [-]
	 SCS Same-Spin Energy      =      -0.1679065467760485 [Eh]
	 SCS Opposite-Spin Energy  =      -1.8209605949860996 [Eh]
	 SCS Correlation Energy    =      -1.9888671417621482 [Eh]
	 SCS Total Energy          =    -475.3329702943389066 [Eh]
	-----------------------------------------------------------

  Dipole Moment: [D]
     X:    -4.5606      Y:     0.9768      Z:     0.0372     Total:     4.6642

*** Psi4 exiting successfully. Buy a developer a beer!
