                               Psi4 1.4a3.dev225

  ==> Input File <==

--------------------------------------------------------------------------
#psi4
#
memory 32 gb

molecule  {
0 1
  O        2.9010780     0.5011950     0.0183730
  O        2.1944840    -1.5825690    -0.0155730
  N        2.0004400    -0.3550420     0.0007840
  C       -1.7439870    -0.3903860    -0.0134210
  C       -0.4149410    -0.8260390    -0.0069050
  C        0.6078280     0.1182930    -0.0000420
  C       -2.0019250     0.9878490    -0.0097750
  C        0.3698600     1.4898450     0.0029890
  C       -0.9581720     1.9149540    -0.0034080
  C       -2.8882608    -1.3997184     0.0173523
  H       -0.1670670    -1.8828790    -0.0128300
  H       -3.0325330     1.3382220    -0.0189380
  H        1.1996540     2.1873670     0.0051620
  H       -1.1788090     2.9793360    -0.0051500
  H       -2.5655400    -2.3420280    -0.4153900
  H       -3.1994760    -1.5736770     1.0454250
  H       -3.7361930    -1.0182010    -0.5444970
units angstrom
no_reorient  #important for SAPT in psi4, default
symmetry c1  #important for SAPT in psi4, default
}

set PROPERTIES_ORIGIN ["COM"]
properties('MP2/aug-cc-pvtz', properties = ['dipole'])
--------------------------------------------------------------------------

    Molecular point group: c1
  Charge       = 0
  Multiplicity = 1
  Basis Set: AUG-CC-PVTZ
    Blend: AUG-CC-PVTZ
  Basis Set: (AUG-CC-PVTZ AUX)
    Blend: AUG-CC-PVTZ-JKFIT

    Orbital Energies [Eh]
    ---------------------

    Doubly Occupied:

       1A    -20.603213     2A    -20.603158     3A    -15.853294
       4A    -11.311398     5A    -11.273703     6A    -11.271873
       7A    -11.270445     8A    -11.268456     9A    -11.265201
      10A    -11.244561    11A     -1.586535    12A     -1.385063
      13A     -1.197632    14A     -1.099322    15A     -1.064515
      16A     -0.968852    17A     -0.955515    18A     -0.848330
      19A     -0.817246    20A     -0.761992    21A     -0.722137
      22A     -0.707090    23A     -0.702617    24A     -0.664187
      25A     -0.634704    26A     -0.601432    27A     -0.599111
      28A     -0.568225    29A     -0.543680    30A     -0.522223
      31A     -0.518175    32A     -0.493105    33A     -0.491691
      34A     -0.451193    35A     -0.373737    36A     -0.356795

  @DF-RHF Final Energy:  -473.37292690276848

   => Energetics <=

    Nuclear Repulsion Energy =            493.1932263636789457
    One-Electron Energy =               -1621.9314950679024605
    Two-Electron Energy =                 655.3653418014550880
    Total Energy =                       -473.3729269027685405
  Basis Set: (AUG-CC-PVTZ AUX)
    Blend: AUG-CC-PVTZ-RI
    Molecular point group: c1

    Geometry (in Angstrom), charge = 0, multiplicity = 1:

       Center              X                  Y                   Z               Mass
    ------------   -----------------  -----------------  -----------------  -----------------
         O            2.810736960287     0.500063228308     0.018727251774    15.994914619570
         O            2.104142960287    -1.583700771692    -0.015218748226    15.994914619570
         N            1.910098960287    -0.356173771692     0.001138251774    14.003074004430
         C           -1.834328039713    -0.391517771692    -0.013066748226    12.000000000000
         C           -0.505282039713    -0.827170771692    -0.006550748226    12.000000000000
         C            0.517486960287     0.117161228308     0.000312251774    12.000000000000
         C           -2.092266039713     0.986717228308    -0.009420748226    12.000000000000
         C            0.279518960287     1.488713228308     0.003343251774    12.000000000000
         C           -1.048513039713     1.913822228308    -0.003053748226    12.000000000000
         C           -2.978601839713    -1.400850171692     0.017706551774    12.000000000000
         H           -0.257408039713    -1.884010771692    -0.012475748226     1.007825032230
         H           -3.122874039713     1.337090228308    -0.018583748226     1.007825032230
         H            1.109312960287     2.186235228308     0.005516251774     1.007825032230
         H           -1.269150039713     2.978204228308    -0.004795748226     1.007825032230
         H           -2.655881039713    -2.343159771692    -0.415035748226     1.007825032230
         H           -3.289817039713    -1.574808771692     1.045779251774     1.007825032230
         H           -3.826534039713    -1.019332771692    -0.544142748226     1.007825032230

  Basis Set: AUG-CC-PVTZ
    Blend: AUG-CC-PVTZ
  Basis Set: (AUG-CC-PVTZ AUX)
    Blend: AUG-CC-PVTZ-JKFIT
	 Reference Energy          =    -473.3729269027684836 [Eh]
	 Singles Energy            =      -0.0000000000000000 [Eh]
	 Same-Spin Energy          =      -0.5028003662397760 [Eh]
	 Opposite-Spin Energy      =      -1.5158966545279076 [Eh]
	 Correlation Energy        =      -2.0186970207676835 [Eh]
	 Total Energy              =    -475.3916239235361445 [Eh]

	 ================> DF-SCS-MP2 Energies <==================
	-----------------------------------------------------------
	 SCS Same-Spin Scale       =       0.3333333333333333 [-]
	 SCS Opposite-Spin Scale   =       1.2000000000000000 [-]
	 SCS Same-Spin Energy      =      -0.1676001220799253 [Eh]
	 SCS Opposite-Spin Energy  =      -1.8190759854334890 [Eh]
	 SCS Correlation Energy    =      -1.9866761075134143 [Eh]
	 SCS Total Energy          =    -475.3596030102818872 [Eh]
	-----------------------------------------------------------

  Dipole Moment: [D]
     X:    -4.5655      Y:     1.0587      Z:     0.0336     Total:     4.6868

*** Psi4 exiting successfully. Buy a developer a beer!
