                               Psi4 1.4a3.dev225

  ==> Input File <==

--------------------------------------------------------------------------
#psi4
#
memory 32 gb

molecule  {
0 1
  O        2.9010780     0.5011950     0.0183730
  O        2.1944840    -1.5825690    -0.0155730
  N        2.0366737    -0.3205946     0.0014916
  C       -1.7439870    -0.3903860    -0.0134210
  C       -0.4149410    -0.8260390    -0.0069050
  C        0.6078280     0.1182930    -0.0000420
  C       -2.0019250     0.9878490    -0.0097750
  C        0.3698600     1.4898450     0.0029890
  C       -0.9581720     1.9149540    -0.0034080
  C       -2.8732650    -1.3864910     0.0169490
  H       -0.1670670    -1.8828790    -0.0128300
  H       -3.0325330     1.3382220    -0.0189380
  H        1.1996540     2.1873670     0.0051620
  H       -1.1788090     2.9793360    -0.0051500
  H       -2.5655400    -2.3420280    -0.4153900
  H       -3.1994760    -1.5736770     1.0454250
  H       -3.7361930    -1.0182010    -0.5444970
units angstrom
no_reorient  #important for SAPT in psi4, default
symmetry c1  #important for SAPT in psi4, default
}

set PROPERTIES_ORIGIN ["COM"]
properties('MP2/aug-cc-pvtz', properties = ['dipole'])
--------------------------------------------------------------------------

    Molecular point group: c1
  Charge       = 0
  Multiplicity = 1
  Basis Set: AUG-CC-PVTZ
    Blend: AUG-CC-PVTZ
  Basis Set: (AUG-CC-PVTZ AUX)
    Blend: AUG-CC-PVTZ-JKFIT

    Orbital Energies [Eh]
    ---------------------

    Doubly Occupied:

       1A    -20.621192     2A    -20.588091     3A    -15.853724
       4A    -11.311381     5A    -11.271945     6A    -11.270224
       7A    -11.268839     8A    -11.266627     9A    -11.264279
      10A    -11.244012    11A     -1.605155    12A     -1.388631
      13A     -1.195288    14A     -1.095920    15A     -1.062416
      16A     -0.967331    17A     -0.951691    18A     -0.846685
      19A     -0.819640    20A     -0.765409    21A     -0.726614
      22A     -0.715140    23A     -0.702429    24A     -0.664755
      25A     -0.633858    26A     -0.602910    27A     -0.596962
      28A     -0.563841    29A     -0.543814    30A     -0.521062
      31A     -0.519827    32A     -0.495734    33A     -0.484275
      34A     -0.453756    35A     -0.372151    36A     -0.355493

  @DF-RHF Final Energy:  -473.37221731862206

   => Energetics <=

    Nuclear Repulsion Energy =            493.4291310018195418
    One-Electron Energy =               -1622.3804888267532078
    Two-Electron Energy =                 655.5791405063116599
    Total Energy =                       -473.3722173186220061
  Basis Set: (AUG-CC-PVTZ AUX)
    Blend: AUG-CC-PVTZ-RI
    Molecular point group: c1

    Geometry (in Angstrom), charge = 0, multiplicity = 1:

       Center              X                  Y                   Z               Mass
    ------------   -----------------  -----------------  -----------------  -----------------
         O            2.805721678086     0.495385306736     0.018690264827    15.994914619570
         O            2.099127678086    -1.588378693264    -0.015255735173    15.994914619570
         N            1.941317378086    -0.326404293264     0.001808864827    14.003074004430
         C           -1.839343321914    -0.396195693264    -0.013103735173    12.000000000000
         C           -0.510297321914    -0.831848693264    -0.006587735173    12.000000000000
         C            0.512471678086     0.112483306736     0.000275264827    12.000000000000
         C           -2.097281321914     0.982039306736    -0.009457735173    12.000000000000
         C            0.274503678086     1.484035306736     0.003306264827    12.000000000000
         C           -1.053528321914     1.909144306736    -0.003090735173    12.000000000000
         C           -2.968621321914    -1.392300693264     0.017266264827    12.000000000000
         H           -0.262423321914    -1.888688693264    -0.012512735173     1.007825032230
         H           -3.127889321914     1.332412306736    -0.018620735173     1.007825032230
         H            1.104297678086     2.181557306736     0.005479264827     1.007825032230
         H           -1.274165321914     2.973526306736    -0.004832735173     1.007825032230
         H           -2.660896321914    -2.347837693264    -0.415072735173     1.007825032230
         H           -3.294832321914    -1.579486693264     1.045742264827     1.007825032230
         H           -3.831549321914    -1.024010693264    -0.544179735173     1.007825032230

  Basis Set: AUG-CC-PVTZ
    Blend: AUG-CC-PVTZ
  Basis Set: (AUG-CC-PVTZ AUX)
    Blend: AUG-CC-PVTZ-JKFIT
	 Reference Energy          =    -473.3722173186220630 [Eh]
	 Singles Energy            =      -0.0000000000000000 [Eh]
	 Same-Spin Energy          =      -0.5020382252030413 [Eh]
	 Opposite-Spin Energy      =      -1.5140385533773815 [Eh]
	 Correlation Energy        =      -2.0160767785804228 [Eh]
	 Total Energy              =    -475.3882940972025040 [Eh]

	 ================> DF-SCS-MP2 Energies <==================
	-----------------------------------------------------------
	 SCS Same-Spin Scale       =       0.3333333333333333 [-]
	 SCS Opposite-Spin Scale   =       1.2000000000000000 [-]
	 SCS Same-Spin Energy      =      -0.1673460750676804 [Eh]
	 SCS Opposite-Spin Energy  =      -1.8168462640528578 [Eh]
	 SCS Correlation Energy    =      -1.9841923391205383 [Eh]
	 SCS Total Energy          =    -475.3564096577425744 [Eh]
	-----------------------------------------------------------

  Dipole Moment: [D]
     X:    -4.3528      Y:     1.2297      Z:     0.0385     Total:     4.5233

*** Psi4 exiting successfully. Buy a developer a beer!
