                               Psi4 1.3.2 release

  ==> Input File <==

--------------------------------------------------------------------------
#psi4
#
memory 32 gb

molecule  {
0 1
  O        2.9010970     0.5011680     0.0190930
  O        2.1944780    -1.5825590    -0.0163220
  N        1.9433445    -0.4980159    -0.0000392
  C       -1.7439920    -0.3903900    -0.0133100
  C       -0.4149300    -0.8260450    -0.0068870
  C        0.6078150     0.1183000     0.0001420
  C       -2.0019240     0.9878430    -0.0100420
  C        0.3698690     1.4898440     0.0027510
  C       -0.9581620     1.9149690    -0.0035660
  C       -2.8732770    -1.3864780     0.0172390
  H       -0.1671010    -1.8828910    -0.0126110
  H       -3.0325270     1.3382360    -0.0191480
  H        1.1996340     2.1873950     0.0050900
  H       -1.1788320     2.9793390    -0.0057220
  H       -2.5659080    -2.3418330    -0.4157720
  H       -3.1988470    -1.5742060     1.0458220
  H       -3.7365580    -1.0178890    -0.5434620
units angstrom
no_reorient  #important for SAPT in psi4, default
symmetry c1  #important for SAPT in psi4, default
}

set PROPERTIES_ORIGIN ["COM"]
properties('MP2/aug-cc-pvtz', properties = ['dipole'])
--------------------------------------------------------------------------

    Molecular point group: c1
  Charge       = 0
  Multiplicity = 1
  Basis Set: AUG-CC-PVTZ
    Blend: AUG-CC-PVTZ
  Basis Set: (AUG-CC-PVTZ AUX)
    Blend: AUG-CC-PVTZ-JKFIT

    Orbital Energies [Eh]
    ---------------------

    Doubly Occupied:

       1A    -20.656057     2A    -20.547753     3A    -15.845366
       4A    -11.311554     5A    -11.273104     6A    -11.272576
       7A    -11.270554     8A    -11.268858     9A    -11.265304
      10A    -11.245901    11A     -1.668162    12A     -1.324668
      13A     -1.197589    14A     -1.100334    15A     -1.068669
      16A     -0.965238    17A     -0.959325    18A     -0.851156
      19A     -0.834930    20A     -0.770511    21A     -0.736830
      22A     -0.736189    23A     -0.706381    24A     -0.666658
      25A     -0.636052    26A     -0.601528    27A     -0.598922
      28A     -0.567761    29A     -0.546131    30A     -0.524139
      31A     -0.523140    32A     -0.478885    33A     -0.455379
      34A     -0.437602    35A     -0.374989    36A     -0.355355

  @DF-RHF Final Energy:  -473.33957766674064

   => Energetics <=

    Nuclear Repulsion Energy =            494.0524190337566210
    One-Electron Energy =               -1623.4968916326872659
    Two-Electron Energy =                 656.1048949321899499
    Total Energy =                       -473.3395776667406381
  Basis Set: (AUG-CC-PVTZ AUX)
    Blend: AUG-CC-PVTZ-RI
    Molecular point group: c1

    Geometry (in Angstrom), charge = 0, multiplicity = 1:

       Center              X                  Y                   Z               Mass
    ------------   -----------------  -----------------  -----------------  -----------------
         O            2.815276426115     0.513486949622     0.019572263272    15.994914619570
         O            2.108657426115    -1.570240050378    -0.015842736728    15.994914619570
         N            1.857523926115    -0.485696950378     0.000440063272    14.003074004430
         C           -1.829812573885    -0.378071050378    -0.012830736728    12.000000000000
         C           -0.500750573885    -0.813726050378    -0.006407736728    12.000000000000
         C            0.521994426115     0.130618949622     0.000621263272    12.000000000000
         C           -2.087744573885     1.000161949622    -0.009562736728    12.000000000000
         C            0.284048426115     1.502162949622     0.003230263272    12.000000000000
         C           -1.043982573885     1.927287949622    -0.003086736728    12.000000000000
         C           -2.959097573885    -1.374159050378     0.017718263272    12.000000000000
         H           -0.252921573885    -1.870572050378    -0.012131736728     1.007825032230
         H           -3.118347573885     1.350554949622    -0.018668736728     1.007825032230
         H            1.113813426115     2.199713949622     0.005569263272     1.007825032230
         H           -1.264652573885     2.991657949622    -0.005242736728     1.007825032230
         H           -2.651728573885    -2.329514050378    -0.415292736728     1.007825032230
         H           -3.284667573885    -1.561887050378     1.046301263272     1.007825032230
         H           -3.822378573885    -1.005570050378    -0.542982736728     1.007825032230

  Basis Set: AUG-CC-PVTZ
    Blend: AUG-CC-PVTZ
  Basis Set: (AUG-CC-PVTZ AUX)
    Blend: AUG-CC-PVTZ-JKFIT
	 Reference Energy          =    -473.3395776667406381 [Eh]
	 Singles Energy            =      -0.0000000000000000 [Eh]
	 Same-Spin Energy          =      -0.4999454457779446 [Eh]
	 Opposite-Spin Energy      =      -1.5103021779430594 [Eh]
	 Correlation Energy        =      -2.0102476237210043 [Eh]
	 Total Energy              =    -475.3498252904616379 [Eh]

	 ================> DF-SCS-MP2 Energies <==================
	-----------------------------------------------------------
	 SCS Same-Spin Scale       =       0.3333333333333333 [-]
	 SCS Opposite-Spin Scale   =       1.2000000000000000 [-]
	 SCS Same-Spin Energy      =      -0.1666484819259815 [Eh]
	 SCS Opposite-Spin Energy  =      -1.8123626135316713 [Eh]
	 SCS Correlation Energy    =      -1.9790110954576527 [Eh]
	 SCS Total Energy          =    -475.3185887621983170 [Eh]
	-----------------------------------------------------------

  Dipole Moment: [D]
     X:    -5.1192      Y:     0.1812      Z:     0.0181     Total:     5.1225

*** Psi4 exiting successfully. Buy a developer a beer!
