                               Psi4 1.3.2 release

  ==> Input File <==

--------------------------------------------------------------------------
#psi4
#
memory 32 gb

molecule  {
0 1
  O        2.9010970     0.5011680     0.0190930
  O        2.1944780    -1.5825590    -0.0163220
  N        2.0004500    -0.3550410     0.0008100
  C       -1.6847684    -0.4644711    -0.0586534
  C       -0.4149300    -0.8260450    -0.0068870
  C        0.6078150     0.1183000     0.0001420
  C       -2.0019240     0.9878430    -0.0100420
  C        0.3698690     1.4898440     0.0027510
  C       -0.9581620     1.9149690    -0.0035660
  C       -2.8732770    -1.3864780     0.0172390
  H       -0.1671010    -1.8828910    -0.0126110
  H       -3.0325270     1.3382360    -0.0191480
  H        1.1996340     2.1873950     0.0050900
  H       -1.1788320     2.9793390    -0.0057220
  H       -2.5659080    -2.3418330    -0.4157720
  H       -3.1988470    -1.5742060     1.0458220
  H       -3.7365580    -1.0178890    -0.5434620
units angstrom
no_reorient  #important for SAPT in psi4, default
symmetry c1  #important for SAPT in psi4, default
}

set PROPERTIES_ORIGIN ["COM"]
properties('MP2/aug-cc-pvtz', properties = ['dipole'])
--------------------------------------------------------------------------

    Molecular point group: c1
  Charge       = 0
  Multiplicity = 1
  Basis Set: AUG-CC-PVTZ
    Blend: AUG-CC-PVTZ
  Basis Set: (AUG-CC-PVTZ AUX)
    Blend: AUG-CC-PVTZ-JKFIT

    Orbital Energies [Eh]
    ---------------------

    Doubly Occupied:

       1A    -20.602563     2A    -20.601242     3A    -15.852619
       4A    -11.310760     5A    -11.278406     6A    -11.276109
       7A    -11.271185     8A    -11.265208     9A    -11.258572
      10A    -11.245029    11A     -1.585513    12A     -1.384007
      13A     -1.199484    14A     -1.095961    15A     -1.071475
      16A     -0.974282    17A     -0.950791    18A     -0.838962
      19A     -0.822333    20A     -0.765514    21A     -0.720453
      22A     -0.706380    23A     -0.702363    24A     -0.663683
      25A     -0.632856    26A     -0.608216    27A     -0.597052
      28A     -0.565120    29A     -0.556643    30A     -0.522021
      31A     -0.501381    32A     -0.493755    33A     -0.489690
      34A     -0.450474    35A     -0.376597    36A     -0.356468

  @DF-RHF Final Energy:  -473.36159352716606

   => Energetics <=

    Nuclear Repulsion Energy =            493.7513580773574517
    One-Electron Energy =               -1623.0395729999174819
    Two-Electron Energy =                 655.9266213953939086
    Total Energy =                       -473.3615935271660646
  Basis Set: (AUG-CC-PVTZ AUX)
    Blend: AUG-CC-PVTZ-RI
    Molecular point group: c1

    Geometry (in Angstrom), charge = 0, multiplicity = 1:

       Center              X                  Y                   Z               Mass
    ------------   -----------------  -----------------  -----------------  -----------------
         O            2.804255912966     0.505364849942     0.023455797787    15.994914619570
         O            2.097636912966    -1.578362150058    -0.011959202213    15.994914619570
         N            1.903608912966    -0.350844150058     0.005172797787    14.003074004430
         C           -1.781609487034    -0.460274250058    -0.054290602213    12.000000000000
         C           -0.511771087034    -0.821848150058    -0.002524202213    12.000000000000
         C            0.510973912966     0.122496849942     0.004504797787    12.000000000000
         C           -2.098765087034     0.992039849942    -0.005679202213    12.000000000000
         C            0.273027912966     1.494040849942     0.007113797787    12.000000000000
         C           -1.055003087034     1.919165849942     0.000796797787    12.000000000000
         C           -2.970118087034    -1.382281150058     0.021601797787    12.000000000000
         H           -0.263942087034    -1.878694150058    -0.008248202213     1.007825032230
         H           -3.129368087034     1.342432849942    -0.014785202213     1.007825032230
         H            1.102792912966     2.191591849942     0.009452797787     1.007825032230
         H           -1.275673087034     2.983535849942    -0.001359202213     1.007825032230
         H           -2.662749087034    -2.337636150058    -0.411409202213     1.007825032230
         H           -3.295688087034    -1.570009150058     1.050184797787     1.007825032230
         H           -3.833399087034    -1.013692150058    -0.539099202213     1.007825032230

  Basis Set: AUG-CC-PVTZ
    Blend: AUG-CC-PVTZ
  Basis Set: (AUG-CC-PVTZ AUX)
    Blend: AUG-CC-PVTZ-JKFIT
	 Reference Energy          =    -473.3615935271660646 [Eh]
	 Singles Energy            =      -0.0000000000000000 [Eh]
	 Same-Spin Energy          =      -0.5025873574538849 [Eh]
	 Opposite-Spin Energy      =      -1.5163076806153108 [Eh]
	 Correlation Energy        =      -2.0188950380691959 [Eh]
	 Total Energy              =    -475.3804885652352823 [Eh]

	 ================> DF-SCS-MP2 Energies <==================
	-----------------------------------------------------------
	 SCS Same-Spin Scale       =       0.3333333333333333 [-]
	 SCS Opposite-Spin Scale   =       1.2000000000000000 [-]
	 SCS Same-Spin Energy      =      -0.1675291191512950 [Eh]
	 SCS Opposite-Spin Energy  =      -1.8195692167383730 [Eh]
	 SCS Correlation Energy    =      -1.9870983358896681 [Eh]
	 SCS Total Energy          =    -475.3486918630557057 [Eh]
	-----------------------------------------------------------

  Dipole Moment: [D]
     X:    -4.5839      Y:     1.0953      Z:     0.0504     Total:     4.7132

*** Psi4 exiting successfully. Buy a developer a beer!
