                               Psi4 1.3.2 release

  ==> Input File <==

--------------------------------------------------------------------------
#psi4
#
memory 32 gb

molecule  {
0 1
  O        2.8391657     0.5619079     0.0196208
  O        2.1944780    -1.5825590    -0.0163220
  N        2.0004500    -0.3550410     0.0008100
  C       -1.7439920    -0.3903900    -0.0133100
  C       -0.4149300    -0.8260450    -0.0068870
  C        0.6078150     0.1183000     0.0001420
  C       -2.0019240     0.9878430    -0.0100420
  C        0.3698690     1.4898440     0.0027510
  C       -0.9581620     1.9149690    -0.0035660
  C       -2.8732770    -1.3864780     0.0172390
  H       -0.1671010    -1.8828910    -0.0126110
  H       -3.0325270     1.3382360    -0.0191480
  H        1.1996340     2.1873950     0.0050900
  H       -1.1788320     2.9793390    -0.0057220
  H       -2.5659080    -2.3418330    -0.4157720
  H       -3.1988470    -1.5742060     1.0458220
  H       -3.7365580    -1.0178890    -0.5434620
units angstrom
no_reorient  #important for SAPT in psi4, default
symmetry c1  #important for SAPT in psi4, default
}

set PROPERTIES_ORIGIN ["COM"]
properties('MP2/aug-cc-pvtz', properties = ['dipole'])
--------------------------------------------------------------------------

    Molecular point group: c1
  Charge       = 0
  Multiplicity = 1
  Basis Set: AUG-CC-PVTZ
    Blend: AUG-CC-PVTZ
  Basis Set: (AUG-CC-PVTZ AUX)
    Blend: AUG-CC-PVTZ-JKFIT

    Orbital Energies [Eh]
    ---------------------

    Doubly Occupied:

       1A    -20.608977     2A    -20.606165     3A    -15.855556
       4A    -11.307963     5A    -11.271185     6A    -11.269125
       7A    -11.268230     8A    -11.266461     9A    -11.263356
      10A    -11.243848    11A     -1.587422    12A     -1.393987
      13A     -1.195465    14A     -1.097430    15A     -1.063596
      16A     -0.966653    17A     -0.954186    18A     -0.847327
      19A     -0.818044    20A     -0.762614    21A     -0.725992
      22A     -0.709355    23A     -0.700374    24A     -0.664029
      25A     -0.633801    26A     -0.601883    27A     -0.596678
      28A     -0.564025    29A     -0.541214    30A     -0.519564
      31A     -0.518943    32A     -0.498650    33A     -0.489911
      34A     -0.456488    35A     -0.371755    36A     -0.354339

  @DF-RHF Final Energy:  -473.37049937317431

   => Energetics <=

    Nuclear Repulsion Energy =            494.2363532827544077
    One-Electron Energy =               -1624.0245233871148685
    Two-Electron Energy =                 656.4176707311861492
    Total Energy =                       -473.3704993731743116
  Basis Set: (AUG-CC-PVTZ AUX)
    Blend: AUG-CC-PVTZ-RI
    Molecular point group: c1

    Geometry (in Angstrom), charge = 0, multiplicity = 1:

       Center              X                  Y                   Z               Mass
    ------------   -----------------  -----------------  -----------------  -----------------
         O            2.754738315079     0.552529162706     0.019951695006    15.994914619570
         O            2.110050615079    -1.591937737294    -0.015991104994    15.994914619570
         N            1.916022615079    -0.364419737294     0.001140895006    14.003074004430
         C           -1.828419384921    -0.399768737294    -0.012979104994    12.000000000000
         C           -0.499357384921    -0.835423737294    -0.006556104994    12.000000000000
         C            0.523387615079     0.108921262706     0.000472895006    12.000000000000
         C           -2.086351384921     0.978464262706    -0.009711104994    12.000000000000
         C            0.285441615079     1.480465262706     0.003081895006    12.000000000000
         C           -1.042589384921     1.905590262706    -0.003235104994    12.000000000000
         C           -2.957704384921    -1.395856737294     0.017569895006    12.000000000000
         H           -0.251528384921    -1.892269737294    -0.012280104994     1.007825032230
         H           -3.116954384921     1.328857262706    -0.018817104994     1.007825032230
         H            1.115206615079     2.178016262706     0.005420895006     1.007825032230
         H           -1.263259384921     2.969960262706    -0.005391104994     1.007825032230
         H           -2.650335384921    -2.351211737294    -0.415441104994     1.007825032230
         H           -3.283274384921    -1.583584737294     1.046152895006     1.007825032230
         H           -3.820985384921    -1.027267737294    -0.543131104994     1.007825032230

  Basis Set: AUG-CC-PVTZ
    Blend: AUG-CC-PVTZ
  Basis Set: (AUG-CC-PVTZ AUX)
    Blend: AUG-CC-PVTZ-JKFIT
	 Reference Energy          =    -473.3704993731743116 [Eh]
	 Singles Energy            =      -0.0000000000000000 [Eh]
	 Same-Spin Energy          =      -0.5033218845034325 [Eh]
	 Opposite-Spin Energy      =      -1.5165537457391527 [Eh]
	 Correlation Energy        =      -2.0198756302425851 [Eh]
	 Total Energy              =    -475.3903750034169207 [Eh]

	 ================> DF-SCS-MP2 Energies <==================
	-----------------------------------------------------------
	 SCS Same-Spin Scale       =       0.3333333333333333 [-]
	 SCS Opposite-Spin Scale   =       1.2000000000000000 [-]
	 SCS Same-Spin Energy      =      -0.1677739615011442 [Eh]
	 SCS Opposite-Spin Energy  =      -1.8198644948869831 [Eh]
	 SCS Correlation Energy    =      -1.9876384563881273 [Eh]
	 SCS Total Energy          =    -475.3581378295624518 [Eh]
	-----------------------------------------------------------

  Dipole Moment: [D]
     X:    -4.3400      Y:     0.9538      Z:     0.0344     Total:     4.4437

*** Psi4 exiting successfully. Buy a developer a beer!
