                               Psi4 1.3.2 release

  ==> Input File <==

--------------------------------------------------------------------------
#psi4
#
memory 32 gb

molecule  {
0 1
  O        2.8706613     0.5320780     0.0193942
  O        2.1944780    -1.5825590    -0.0163220
  N        2.0004500    -0.3550410     0.0008100
  C       -1.7439920    -0.3903900    -0.0133100
  C       -0.4149300    -0.8260450    -0.0068870
  C        0.6078150     0.1183000     0.0001420
  C       -2.0019240     0.9878430    -0.0100420
  C        0.3698690     1.4898440     0.0027510
  C       -0.9581620     1.9149690    -0.0035660
  C       -2.8732770    -1.3864780     0.0172390
  H       -0.1671010    -1.8828910    -0.0126110
  H       -3.0325270     1.3382360    -0.0191480
  H        1.1996340     2.1873950     0.0050900
  H       -1.1788320     2.9793390    -0.0057220
  H       -2.5659080    -2.3418330    -0.4157720
  H       -3.1988470    -1.5742060     1.0458220
  H       -3.7365580    -1.0178890    -0.5434620
units angstrom
no_reorient  #important for SAPT in psi4, default
symmetry c1  #important for SAPT in psi4, default
}

set PROPERTIES_ORIGIN ["COM"]
properties('MP2/aug-cc-pvtz', properties = ['dipole'])
--------------------------------------------------------------------------

    Molecular point group: c1
  Charge       = 0
  Multiplicity = 1
  Basis Set: AUG-CC-PVTZ
    Blend: AUG-CC-PVTZ
  Basis Set: (AUG-CC-PVTZ AUX)
    Blend: AUG-CC-PVTZ-JKFIT

    Orbital Energies [Eh]
    ---------------------

    Doubly Occupied:

       1A    -20.606122     2A    -20.604772     3A    -15.854480
       4A    -11.309725     5A    -11.272108     6A    -11.270559
       7A    -11.269360     8A    -11.267486     9A    -11.264335
      10A    -11.244445    11A     -1.586959    12A     -1.389603
      13A     -1.196815    14A     -1.099057    15A     -1.064546
      16A     -0.967731    17A     -0.954781    18A     -0.847825
      19A     -0.817661    20A     -0.762458    21A     -0.724129
      22A     -0.708241    23A     -0.701572    24A     -0.664313
      25A     -0.634609    26A     -0.602600    27A     -0.597303
      28A     -0.564650    29A     -0.542268    30A     -0.520476
      31A     -0.519820    32A     -0.495462    33A     -0.491549
      34A     -0.453886    35A     -0.372798    36A     -0.355363

  @DF-RHF Final Energy:  -473.37221703171940

   => Energetics <=

    Nuclear Repulsion Energy =            493.8705303679255962
    One-Electron Energy =               -1623.2857572346565576
    Two-Electron Energy =                 656.0430098350116168
    Total Energy =                       -473.3722170317194013
  Basis Set: (AUG-CC-PVTZ AUX)
    Blend: AUG-CC-PVTZ-RI
    Molecular point group: c1

    Geometry (in Angstrom), charge = 0, multiplicity = 1:

       Center              X                  Y                   Z               Mass
    ------------   -----------------  -----------------  -----------------  -----------------
         O            2.782558045203     0.526180727763     0.019751541625    15.994914619570
         O            2.106374745203    -1.588456272237    -0.015964658375    15.994914619570
         N            1.912346745203    -0.360938272237     0.001167341625    14.003074004430
         C           -1.832095254797    -0.396287272237    -0.012952658375    12.000000000000
         C           -0.503033254797    -0.831942272237    -0.006529658375    12.000000000000
         C            0.519711745203     0.112402727763     0.000499341625    12.000000000000
         C           -2.090027254797     0.981945727763    -0.009684658375    12.000000000000
         C            0.281765745203     1.483946727763     0.003108341625    12.000000000000
         C           -1.046265254797     1.909071727763    -0.003208658375    12.000000000000
         C           -2.961380254797    -1.392375272237     0.017596341625    12.000000000000
         H           -0.255204254797    -1.888788272237    -0.012253658375     1.007825032230
         H           -3.120630254797     1.332338727763    -0.018790658375     1.007825032230
         H            1.111530745203     2.181497727763     0.005447341625     1.007825032230
         H           -1.266935254797     2.973441727763    -0.005364658375     1.007825032230
         H           -2.654011254797    -2.347730272237    -0.415414658375     1.007825032230
         H           -3.286950254797    -1.580103272237     1.046179341625     1.007825032230
         H           -3.824661254797    -1.023786272237    -0.543104658375     1.007825032230

  Basis Set: AUG-CC-PVTZ
    Blend: AUG-CC-PVTZ
  Basis Set: (AUG-CC-PVTZ AUX)
    Blend: AUG-CC-PVTZ-JKFIT
	 Reference Energy          =    -473.3722170317194013 [Eh]
	 Singles Energy            =      -0.0000000000000000 [Eh]
	 Same-Spin Energy          =      -0.5031267691998852 [Eh]
	 Opposite-Spin Energy      =      -1.5162659555003390 [Eh]
	 Correlation Energy        =      -2.0193927247002241 [Eh]
	 Total Energy              =    -475.3916097564195979 [Eh]

	 ================> DF-SCS-MP2 Energies <==================
	-----------------------------------------------------------
	 SCS Same-Spin Scale       =       0.3333333333333333 [-]
	 SCS Opposite-Spin Scale   =       1.2000000000000000 [-]
	 SCS Same-Spin Energy      =      -0.1677089230666284 [Eh]
	 SCS Opposite-Spin Energy  =      -1.8195191466004068 [Eh]
	 SCS Correlation Energy    =      -1.9872280696670352 [Eh]
	 SCS Total Energy          =    -475.3594451013864273 [Eh]
	-----------------------------------------------------------

  Dipole Moment: [D]
     X:    -4.4556      Y:     1.0046      Z:     0.0345     Total:     4.5676

*** Psi4 exiting successfully. Buy a developer a beer!
