                               Psi4 1.3.2 release

  ==> Input File <==

--------------------------------------------------------------------------
#psi4
#
memory 32 gb

molecule  {
0 1
  O        2.9010970     0.5011680     0.0190930
  O        2.1944780    -1.5825590    -0.0163220
  N        2.0004500    -0.3550410     0.0008100
  C       -1.7136738    -0.4268460    -0.0360141
  C       -0.4149300    -0.8260450    -0.0068870
  C        0.6078150     0.1183000     0.0001420
  C       -2.0019240     0.9878430    -0.0100420
  C        0.3698690     1.4898440     0.0027510
  C       -0.9581620     1.9149690    -0.0035660
  C       -2.8732770    -1.3864780     0.0172390
  H       -0.1671010    -1.8828910    -0.0126110
  H       -3.0325270     1.3382360    -0.0191480
  H        1.1996340     2.1873950     0.0050900
  H       -1.1788320     2.9793390    -0.0057220
  H       -2.5659080    -2.3418330    -0.4157720
  H       -3.1988470    -1.5742060     1.0458220
  H       -3.7365580    -1.0178890    -0.5434620
units angstrom
no_reorient  #important for SAPT in psi4, default
symmetry c1  #important for SAPT in psi4, default
}

set PROPERTIES_ORIGIN ["COM"]
properties('MP2/aug-cc-pvtz', properties = ['dipole'])
--------------------------------------------------------------------------

    Molecular point group: c1
  Charge       = 0
  Multiplicity = 1
  Basis Set: AUG-CC-PVTZ
    Blend: AUG-CC-PVTZ
  Basis Set: (AUG-CC-PVTZ AUX)
    Blend: AUG-CC-PVTZ-JKFIT

    Orbital Energies [Eh]
    ---------------------

    Doubly Occupied:

       1A    -20.602961     2A    -20.602295     3A    -15.853025
       4A    -11.311167     5A    -11.273958     6A    -11.273872
       7A    -11.272038     8A    -11.265330     9A    -11.264576
      10A    -11.244898    11A     -1.586097    12A     -1.384608
      13A     -1.198704    14A     -1.097859    15A     -1.068583
      16A     -0.971553    17A     -0.952967    18A     -0.843479
      19A     -0.820057    20A     -0.763949    21A     -0.721461
      22A     -0.706798    23A     -0.702584    24A     -0.664327
      25A     -0.633965    26A     -0.605442    27A     -0.597359
      28A     -0.565222    29A     -0.550193    30A     -0.521681
      31A     -0.511680    32A     -0.493705    33A     -0.491101
      34A     -0.450883    35A     -0.373342    36A     -0.357718

  @DF-RHF Final Energy:  -473.37015270207354

   => Energetics <=

    Nuclear Repulsion Energy =            493.6479324701878681
    One-Electron Energy =               -1622.8372946376630352
    Two-Electron Energy =                 655.8192094654016273
    Total Energy =                       -473.3701527020734829
  Basis Set: (AUG-CC-PVTZ AUX)
    Blend: AUG-CC-PVTZ-RI
    Molecular point group: c1

    Geometry (in Angstrom), charge = 0, multiplicity = 1:

       Center              X                  Y                   Z               Mass
    ------------   -----------------  -----------------  -----------------  -----------------
         O            2.806786891994     0.502070367284     0.021473483289    15.994914619570
         O            2.100167891994    -1.581656632716    -0.013941516711    15.994914619570
         N            1.906139891994    -0.354138632716     0.003190483289    14.003074004430
         C           -1.807983908006    -0.425943632716    -0.033633616711    12.000000000000
         C           -0.509240108006    -0.825142632716    -0.004506516711    12.000000000000
         C            0.513504891994     0.119202367284     0.002522483289    12.000000000000
         C           -2.096234108006     0.988745367284    -0.007661516711    12.000000000000
         C            0.275558891994     1.490746367284     0.005131483289    12.000000000000
         C           -1.052472108006     1.915871367284    -0.001185516711    12.000000000000
         C           -2.967587108006    -1.385575632716     0.019619483289    12.000000000000
         H           -0.261411108006    -1.881988632716    -0.010230516711     1.007825032230
         H           -3.126837108006     1.339138367284    -0.016767516711     1.007825032230
         H            1.105323891994     2.188297367284     0.007470483289     1.007825032230
         H           -1.273142108006     2.980241367284    -0.003341516711     1.007825032230
         H           -2.660218108006    -2.340930632716    -0.413391516711     1.007825032230
         H           -3.293157108006    -1.573303632716     1.048202483289     1.007825032230
         H           -3.830868108006    -1.016986632716    -0.541081516711     1.007825032230

  Basis Set: AUG-CC-PVTZ
    Blend: AUG-CC-PVTZ
  Basis Set: (AUG-CC-PVTZ AUX)
    Blend: AUG-CC-PVTZ-JKFIT
	 Reference Energy          =    -473.3701527020735398 [Eh]
	 Singles Energy            =      -0.0000000000000000 [Eh]
	 Same-Spin Energy          =      -0.5028382162691729 [Eh]
	 Opposite-Spin Energy      =      -1.5160667657312072 [Eh]
	 Correlation Energy        =      -2.0189049820003802 [Eh]
	 Total Energy              =    -475.3890576840739186 [Eh]

	 ================> DF-SCS-MP2 Energies <==================
	-----------------------------------------------------------
	 SCS Same-Spin Scale       =       0.3333333333333333 [-]
	 SCS Opposite-Spin Scale   =       1.2000000000000000 [-]
	 SCS Same-Spin Energy      =      -0.1676127387563910 [Eh]
	 SCS Opposite-Spin Energy  =      -1.8192801188774486 [Eh]
	 SCS Correlation Energy    =      -1.9868928576338396 [Eh]
	 SCS Total Energy          =    -475.3570455597073874 [Eh]
	-----------------------------------------------------------

  Dipole Moment: [D]
     X:    -4.5777      Y:     1.0762      Z:     0.0427     Total:     4.7027

*** Psi4 exiting successfully. Buy a developer a beer!
