                               Psi4 1.4a3.dev225

  ==> Input File <==

--------------------------------------------------------------------------
#psi4
#
memory 32 gb

molecule  {
0 1
  O        2.9010780     0.5011950     0.0183730
  O        2.1944840    -1.5825690    -0.0155730
  N        2.0004400    -0.3550420     0.0007840
  C       -1.7439870    -0.3903860    -0.0134210
  C       -0.4149410    -0.8260390    -0.0069050
  C        0.6551682     0.1022025    -0.0000139
  C       -2.0019250     0.9878490    -0.0097750
  C        0.3698600     1.4898450     0.0029890
  C       -0.9581720     1.9149540    -0.0034080
  C       -2.8732650    -1.3864910     0.0169490
  H       -0.1670670    -1.8828790    -0.0128300
  H       -3.0325330     1.3382220    -0.0189380
  H        1.1996540     2.1873670     0.0051620
  H       -1.1788090     2.9793360    -0.0051500
  H       -2.5655400    -2.3420280    -0.4153900
  H       -3.1994760    -1.5736770     1.0454250
  H       -3.7361930    -1.0182010    -0.5444970
units angstrom
no_reorient  #important for SAPT in psi4, default
symmetry c1  #important for SAPT in psi4, default
}

set PROPERTIES_ORIGIN ["COM"]
properties('MP2/aug-cc-pvtz', properties = ['dipole'])
--------------------------------------------------------------------------

    Molecular point group: c1
  Charge       = 0
  Multiplicity = 1
  Basis Set: AUG-CC-PVTZ
    Blend: AUG-CC-PVTZ
  Basis Set: (AUG-CC-PVTZ AUX)
    Blend: AUG-CC-PVTZ-JKFIT

    Orbital Energies [Eh]
    ---------------------

    Doubly Occupied:

       1A    -20.601795     2A    -20.601745     3A    -15.853865
       4A    -11.310720     5A    -11.276493     6A    -11.275117
       7A    -11.272862     8A    -11.271483     9A    -11.265389
      10A    -11.245428    11A     -1.590253    12A     -1.385806
      13A     -1.195213    14A     -1.108315    15A     -1.065478
      16A     -0.971463    17A     -0.957104    18A     -0.846680
      19A     -0.817216    20A     -0.762277    21A     -0.723853
      22A     -0.711782    23A     -0.705287    24A     -0.661273
      25A     -0.635169    26A     -0.599863    27A     -0.597462
      28A     -0.564753    29A     -0.543961    30A     -0.517109
      31A     -0.516658    32A     -0.498846    33A     -0.491309
      34A     -0.451409    35A     -0.371891    36A     -0.355802

  @DF-RHF Final Energy:  -473.37018527530057

   => Energetics <=

    Nuclear Repulsion Energy =            493.5147255956460413
    One-Electron Energy =               -1622.5275590500666567
    Two-Electron Energy =                 655.6426481791199876
    Total Energy =                       -473.3701852753006278
  Basis Set: (AUG-CC-PVTZ AUX)
    Blend: AUG-CC-PVTZ-RI
    Molecular point group: c1

    Geometry (in Angstrom), charge = 0, multiplicity = 1:

       Center              X                  Y                   Z               Mass
    ------------   -----------------  -----------------  -----------------  -----------------
         O            2.805278772243     0.500313923543     0.018760104574    15.994914619570
         O            2.098684772243    -1.583450076457    -0.015185895426    15.994914619570
         N            1.904640772243    -0.355923076457     0.001171104574    14.003074004430
         C           -1.839786227757    -0.391267076457    -0.013033895426    12.000000000000
         C           -0.510740227757    -0.826920076457    -0.006517895426    12.000000000000
         C            0.559368972243     0.101321423543     0.000373204574    12.000000000000
         C           -2.097724227757     0.986967923543    -0.009387895426    12.000000000000
         C            0.274060772243     1.488963923543     0.003376104574    12.000000000000
         C           -1.053971227757     1.914072923543    -0.003020895426    12.000000000000
         C           -2.969064227757    -1.387372076457     0.017336104574    12.000000000000
         H           -0.262866227757    -1.883760076457    -0.012442895426     1.007825032230
         H           -3.128332227757     1.337340923543    -0.018550895426     1.007825032230
         H            1.103854772243     2.186485923543     0.005549104574     1.007825032230
         H           -1.274608227757     2.978454923543    -0.004762895426     1.007825032230
         H           -2.661339227757    -2.342909076457    -0.415002895426     1.007825032230
         H           -3.295275227757    -1.574558076457     1.045812104574     1.007825032230
         H           -3.831992227757    -1.019082076457    -0.544109895426     1.007825032230

  Basis Set: AUG-CC-PVTZ
    Blend: AUG-CC-PVTZ
  Basis Set: (AUG-CC-PVTZ AUX)
    Blend: AUG-CC-PVTZ-JKFIT
	 Reference Energy          =    -473.3701852753005710 [Eh]
	 Singles Energy            =      -0.0000000000000000 [Eh]
	 Same-Spin Energy          =      -0.5030693050445096 [Eh]
	 Opposite-Spin Energy      =      -1.5161804194527144 [Eh]
	 Correlation Energy        =      -2.0192497244972243 [Eh]
	 Total Energy              =    -475.3894349997977997 [Eh]

	 ================> DF-SCS-MP2 Energies <==================
	-----------------------------------------------------------
	 SCS Same-Spin Scale       =       0.3333333333333333 [-]
	 SCS Opposite-Spin Scale   =       1.2000000000000000 [-]
	 SCS Same-Spin Energy      =      -0.1676897683481699 [Eh]
	 SCS Opposite-Spin Energy  =      -1.8194165033432572 [Eh]
	 SCS Correlation Energy    =      -1.9871062716914272 [Eh]
	 SCS Total Energy          =    -475.3572915469919735 [Eh]
	-----------------------------------------------------------

  Dipole Moment: [D]
     X:    -4.6314      Y:     1.0716      Z:     0.0340     Total:     4.7539

*** Psi4 exiting successfully. Buy a developer a beer!
