                               Psi4 1.3.2 release

  ==> Input File <==

--------------------------------------------------------------------------
#psi4
#
memory 32 gb

molecule  {
0 1
  O        2.9010970     0.5011680     0.0190930
  O        2.1944780    -1.5825590    -0.0163220
  N        2.0300755    -0.2567440     0.0013726
  C       -1.7439920    -0.3903900    -0.0133100
  C       -0.4149300    -0.8260450    -0.0068870
  C        0.6078150     0.1183000     0.0001420
  C       -2.0019240     0.9878430    -0.0100420
  C        0.3698690     1.4898440     0.0027510
  C       -0.9581620     1.9149690    -0.0035660
  C       -2.8732770    -1.3864780     0.0172390
  H       -0.1671010    -1.8828910    -0.0126110
  H       -3.0325270     1.3382360    -0.0191480
  H        1.1996340     2.1873950     0.0050900
  H       -1.1788320     2.9793390    -0.0057220
  H       -2.5659080    -2.3418330    -0.4157720
  H       -3.1988470    -1.5742060     1.0458220
  H       -3.7365580    -1.0178890    -0.5434620
units angstrom
no_reorient  #important for SAPT in psi4, default
symmetry c1  #important for SAPT in psi4, default
}

set PROPERTIES_ORIGIN ["COM"]
properties('MP2/aug-cc-pvtz', properties = ['dipole'])
--------------------------------------------------------------------------

    Molecular point group: c1
  Charge       = 0
  Multiplicity = 1
  Basis Set: AUG-CC-PVTZ
    Blend: AUG-CC-PVTZ
  Basis Set: (AUG-CC-PVTZ AUX)
    Blend: AUG-CC-PVTZ-JKFIT

    Orbital Energies [Eh]
    ---------------------

    Doubly Occupied:

       1A    -20.639867     2A    -20.565275     3A    -15.849620
       4A    -11.311401     5A    -11.272926     6A    -11.271854
       7A    -11.270636     8A    -11.268647     9A    -11.265290
      10A    -11.244487    11A     -1.628601    12A     -1.352703
      13A     -1.197701    14A     -1.102296    15A     -1.063429
      16A     -0.972123    17A     -0.953701    18A     -0.847980
      19A     -0.823916    20A     -0.770513    21A     -0.726987
      22A     -0.720880    23A     -0.704991    24A     -0.664241
      25A     -0.633794    26A     -0.604692    27A     -0.597535
      28A     -0.564449    29A     -0.545242    30A     -0.522773
      31A     -0.521902    32A     -0.490206    33A     -0.470124
      34A     -0.444813    35A     -0.372875    36A     -0.356913

  @DF-RHF Final Energy:  -473.35859843407570

   => Energetics <=

    Nuclear Repulsion Energy =            493.6638982836709033
    One-Electron Energy =               -1622.8142241131547507
    Two-Electron Energy =                 655.7917273954080883
    Total Energy =                       -473.3585984340757022
  Basis Set: (AUG-CC-PVTZ AUX)
    Blend: AUG-CC-PVTZ-RI
    Molecular point group: c1

    Geometry (in Angstrom), charge = 0, multiplicity = 1:

       Center              X                  Y                   Z               Mass
    ------------   -----------------  -----------------  -----------------  -----------------
         O            2.806414542243     0.488834592803     0.019428010264    15.994914619570
         O            2.099795542243    -1.594892407197    -0.015986989736    15.994914619570
         N            1.935393042243    -0.269077407197     0.001707610264    14.003074004430
         C           -1.838674457757    -0.402723407197    -0.012974989736    12.000000000000
         C           -0.509612457757    -0.838378407197    -0.006551989736    12.000000000000
         C            0.513132542243     0.105966592803     0.000477010264    12.000000000000
         C           -2.096606457757     0.975509592803    -0.009706989736    12.000000000000
         C            0.275186542243     1.477510592803     0.003086010264    12.000000000000
         C           -1.052844457757     1.902635592803    -0.003230989736    12.000000000000
         C           -2.967959457757    -1.398811407197     0.017574010264    12.000000000000
         H           -0.261783457757    -1.895224407197    -0.012275989736     1.007825032230
         H           -3.127209457757     1.325902592803    -0.018812989736     1.007825032230
         H            1.104951542243     2.175061592803     0.005425010264     1.007825032230
         H           -1.273514457757     2.967005592803    -0.005386989736     1.007825032230
         H           -2.660590457757    -2.354166407197    -0.415436989736     1.007825032230
         H           -3.293529457757    -1.586539407197     1.046157010264     1.007825032230
         H           -3.831240457757    -1.030222407197    -0.543126989736     1.007825032230

  Basis Set: AUG-CC-PVTZ
    Blend: AUG-CC-PVTZ
  Basis Set: (AUG-CC-PVTZ AUX)
    Blend: AUG-CC-PVTZ-JKFIT
	 Reference Energy          =    -473.3585984340757022 [Eh]
	 Singles Energy            =      -0.0000000000000000 [Eh]
	 Same-Spin Energy          =      -0.5014874893898194 [Eh]
	 Opposite-Spin Energy      =      -1.5131340468515757 [Eh]
	 Correlation Energy        =      -2.0146215362413953 [Eh]
	 Total Energy              =    -475.3732199703171091 [Eh]

	 ================> DF-SCS-MP2 Energies <==================
	-----------------------------------------------------------
	 SCS Same-Spin Scale       =       0.3333333333333333 [-]
	 SCS Opposite-Spin Scale   =       1.2000000000000000 [-]
	 SCS Same-Spin Energy      =      -0.1671624964632731 [Eh]
	 SCS Opposite-Spin Energy  =      -1.8157608562218908 [Eh]
	 SCS Correlation Energy    =      -1.9829233526851640 [Eh]
	 SCS Total Energy          =    -475.3415217867608931 [Eh]
	-----------------------------------------------------------

  Dipole Moment: [D]
     X:    -4.4857      Y:     1.6318      Z:     0.0441     Total:     4.7735

*** Psi4 exiting successfully. Buy a developer a beer!
