                               Psi4 1.4a3.dev225

  ==> Input File <==

--------------------------------------------------------------------------
#psi4
#
memory 32 gb

molecule  {
0 1
  O        2.9010780     0.5011950     0.0183730
  O        2.1944840    -1.5825690    -0.0155730
  N        2.0004400    -0.3550420     0.0007840
  C       -1.7439870    -0.3903860    -0.0134210
  C       -0.4149410    -0.8260390    -0.0069050
  C        0.6445635     0.1522112     0.0002045
  C       -2.0019250     0.9878490    -0.0097750
  C        0.3698600     1.4898450     0.0029890
  C       -0.9581720     1.9149540    -0.0034080
  C       -2.8732650    -1.3864910     0.0169490
  H       -0.1670670    -1.8828790    -0.0128300
  H       -3.0325330     1.3382220    -0.0189380
  H        1.1996540     2.1873670     0.0051620
  H       -1.1788090     2.9793360    -0.0051500
  H       -2.5655400    -2.3420280    -0.4153900
  H       -3.1994760    -1.5736770     1.0454250
  H       -3.7361930    -1.0182010    -0.5444970
units angstrom
no_reorient  #important for SAPT in psi4, default
symmetry c1  #important for SAPT in psi4, default
}

set PROPERTIES_ORIGIN ["COM"]
properties('MP2/aug-cc-pvtz', properties = ['dipole'])
--------------------------------------------------------------------------

    Molecular point group: c1
  Charge       = 0
  Multiplicity = 1
  Basis Set: AUG-CC-PVTZ
    Blend: AUG-CC-PVTZ
  Basis Set: (AUG-CC-PVTZ AUX)
    Blend: AUG-CC-PVTZ-JKFIT

    Orbital Energies [Eh]
    ---------------------

    Doubly Occupied:

       1A    -20.603818     2A    -20.601981     3A    -15.853957
       4A    -11.310926     5A    -11.274765     6A    -11.272152
       7A    -11.271142     8A    -11.270170     9A    -11.265678
      10A    -11.244856    11A     -1.588505    12A     -1.385754
      13A     -1.196664    14A     -1.105131    15A     -1.064777
      16A     -0.965445    17A     -0.959941    18A     -0.851471
      19A     -0.814812    20A     -0.761294    21A     -0.723262
      22A     -0.709476    23A     -0.704097    24A     -0.662707
      25A     -0.634708    26A     -0.601681    27A     -0.597369
      28A     -0.566157    29A     -0.542416    30A     -0.519906
      31A     -0.519185    32A     -0.495369    33A     -0.491590
      34A     -0.451515    35A     -0.371463    36A     -0.357484

  @DF-RHF Final Energy:  -473.36989927866716

   => Energetics <=

    Nuclear Repulsion Energy =            493.4790984180428381
    One-Electron Energy =               -1622.4747461438955725
    Two-Electron Energy =                 655.6257484471855150
    Total Energy =                       -473.3698992786671624
  Basis Set: (AUG-CC-PVTZ AUX)
    Blend: AUG-CC-PVTZ-RI
    Molecular point group: c1

    Geometry (in Angstrom), charge = 0, multiplicity = 1:

       Center              X                  Y                   Z               Mass
    ------------   -----------------  -----------------  -----------------  -----------------
         O            2.806207327921     0.495935123357     0.018740981302    15.994914619570
         O            2.099613327921    -1.587828876643    -0.015205018698    15.994914619570
         N            1.905569327921    -0.360301876643     0.001151981302    14.003074004430
         C           -1.838857672079    -0.395645876643    -0.013053018698    12.000000000000
         C           -0.509811672079    -0.831298876643    -0.006537018698    12.000000000000
         C            0.549692827921     0.146951323357     0.000572481302    12.000000000000
         C           -2.096795672079     0.982589123357    -0.009407018698    12.000000000000
         C            0.274989327921     1.484585123357     0.003356981302    12.000000000000
         C           -1.053042672079     1.909694123357    -0.003040018698    12.000000000000
         C           -2.968135672079    -1.391750876643     0.017316981302    12.000000000000
         H           -0.261937672079    -1.888138876643    -0.012462018698     1.007825032230
         H           -3.127403672079     1.332962123357    -0.018570018698     1.007825032230
         H            1.104783327921     2.182107123357     0.005529981302     1.007825032230
         H           -1.273679672079     2.974076123357    -0.004782018698     1.007825032230
         H           -2.660410672079    -2.347287876643    -0.415022018698     1.007825032230
         H           -3.294346672079    -1.578936876643     1.045792981302     1.007825032230
         H           -3.831063672079    -1.023460876643    -0.544129018698     1.007825032230

  Basis Set: AUG-CC-PVTZ
    Blend: AUG-CC-PVTZ
  Basis Set: (AUG-CC-PVTZ AUX)
    Blend: AUG-CC-PVTZ-JKFIT
	 Reference Energy          =    -473.3698992786671624 [Eh]
	 Singles Energy            =      -0.0000000000000000 [Eh]
	 Same-Spin Energy          =      -0.5029166482437373 [Eh]
	 Opposite-Spin Energy      =      -1.5161434976458010 [Eh]
	 Correlation Energy        =      -2.0190601458895383 [Eh]
	 Total Energy              =    -475.3889594245566741 [Eh]

	 ================> DF-SCS-MP2 Energies <==================
	-----------------------------------------------------------
	 SCS Same-Spin Scale       =       0.3333333333333333 [-]
	 SCS Opposite-Spin Scale   =       1.2000000000000000 [-]
	 SCS Same-Spin Energy      =      -0.1676388827479124 [Eh]
	 SCS Opposite-Spin Energy  =      -1.8193721971749612 [Eh]
	 SCS Correlation Energy    =      -1.9870110799228737 [Eh]
	 SCS Total Energy          =    -475.3569103585900280 [Eh]
	-----------------------------------------------------------

  Dipole Moment: [D]
     X:    -4.5778      Y:     1.0838      Z:     0.0344     Total:     4.7045

*** Psi4 exiting successfully. Buy a developer a beer!
