                               Psi4 1.3.2 release

  ==> Input File <==

--------------------------------------------------------------------------
#psi4
#
memory 32 gb

molecule  {
0 1
  O        2.9010970     0.5011680     0.0190930
  O        2.1944780    -1.5825590    -0.0163220
  N        2.0004500    -0.3550410     0.0008100
  C       -1.7439920    -0.3903900    -0.0133100
  C       -0.4309443    -0.8721459    -0.0056111
  C        0.6078150     0.1183000     0.0001420
  C       -2.0019240     0.9878430    -0.0100420
  C        0.3698690     1.4898440     0.0027510
  C       -0.9581620     1.9149690    -0.0035660
  C       -2.8732770    -1.3864780     0.0172390
  H       -0.1671010    -1.8828910    -0.0126110
  H       -3.0325270     1.3382360    -0.0191480
  H        1.1996340     2.1873950     0.0050900
  H       -1.1788320     2.9793390    -0.0057220
  H       -2.5659080    -2.3418330    -0.4157720
  H       -3.1988470    -1.5742060     1.0458220
  H       -3.7365580    -1.0178890    -0.5434620
units angstrom
no_reorient  #important for SAPT in psi4, default
symmetry c1  #important for SAPT in psi4, default
}

set PROPERTIES_ORIGIN ["COM"]
properties('MP2/aug-cc-pvtz', properties = ['dipole'])
--------------------------------------------------------------------------

    Molecular point group: c1
  Charge       = 0
  Multiplicity = 1
  Basis Set: AUG-CC-PVTZ
    Blend: AUG-CC-PVTZ
  Basis Set: (AUG-CC-PVTZ AUX)
    Blend: AUG-CC-PVTZ-JKFIT

    Orbital Energies [Eh]
    ---------------------

    Doubly Occupied:

       1A    -20.602571     2A    -20.602304     3A    -15.852495
       4A    -11.315291     5A    -11.273754     6A    -11.273189
       7A    -11.272114     8A    -11.269634     9A    -11.266593
      10A    -11.243822    11A     -1.585838    12A     -1.384428
      13A     -1.194105    14A     -1.099378    15A     -1.066437
      16A     -0.966273    17A     -0.955755    18A     -0.851202
      19A     -0.814673    20A     -0.758025    21A     -0.721902
      22A     -0.708144    23A     -0.706166    24A     -0.662533
      25A     -0.640739    26A     -0.604991    27A     -0.597428
      28A     -0.566749    29A     -0.543697    30A     -0.520600
      31A     -0.518317    32A     -0.492408    33A     -0.490760
      34A     -0.450811    35A     -0.370158    36A     -0.358030

  @DF-RHF Final Energy:  -473.36935939252675

   => Energetics <=

    Nuclear Repulsion Energy =            492.8206680132562951
    One-Electron Energy =               -1621.1774287979985729
    Two-Electron Energy =                 654.9874013922154745
    Total Energy =                       -473.3693593925266896
  Basis Set: (AUG-CC-PVTZ AUX)
    Blend: AUG-CC-PVTZ-RI
    Molecular point group: c1

    Geometry (in Angstrom), charge = 0, multiplicity = 1:

       Center              X                  Y                   Z               Mass
    ------------   -----------------  -----------------  -----------------  -----------------
         O            2.810843801284     0.502914882137     0.019373776069    15.994914619570
         O            2.104224801284    -1.580812117863    -0.016041223931    15.994914619570
         N            1.910196801284    -0.353294117863     0.001090776069    14.003074004430
         C           -1.834245198716    -0.388643117863    -0.013029223931    12.000000000000
         C           -0.521197498716    -0.870399017863    -0.005330323931    12.000000000000
         C            0.517561801284     0.120046882137     0.000422776069    12.000000000000
         C           -2.092177198716     0.989589882137    -0.009761223931    12.000000000000
         C            0.279615801284     1.491590882137     0.003031776069    12.000000000000
         C           -1.048415198716     1.916715882137    -0.003285223931    12.000000000000
         C           -2.963530198716    -1.384731117863     0.017519776069    12.000000000000
         H           -0.257354198716    -1.881144117863    -0.012330223931     1.007825032230
         H           -3.122780198716     1.339982882137    -0.018867223931     1.007825032230
         H            1.109380801284     2.189141882137     0.005370776069     1.007825032230
         H           -1.269085198716     2.981085882137    -0.005441223931     1.007825032230
         H           -2.656161198716    -2.340086117863    -0.415491223931     1.007825032230
         H           -3.289100198716    -1.572459117863     1.046102776069     1.007825032230
         H           -3.826811198716    -1.016142117863    -0.543181223931     1.007825032230

  Basis Set: AUG-CC-PVTZ
    Blend: AUG-CC-PVTZ
  Basis Set: (AUG-CC-PVTZ AUX)
    Blend: AUG-CC-PVTZ-JKFIT
	 Reference Energy          =    -473.3693593925267464 [Eh]
	 Singles Energy            =      -0.0000000000000000 [Eh]
	 Same-Spin Energy          =      -0.5029109139326722 [Eh]
	 Opposite-Spin Energy      =      -1.5163481498654550 [Eh]
	 Correlation Energy        =      -2.0192590637981271 [Eh]
	 Total Energy              =    -475.3886184563248776 [Eh]

	 ================> DF-SCS-MP2 Energies <==================
	-----------------------------------------------------------
	 SCS Same-Spin Scale       =       0.3333333333333333 [-]
	 SCS Opposite-Spin Scale   =       1.2000000000000000 [-]
	 SCS Same-Spin Energy      =      -0.1676369713108907 [Eh]
	 SCS Opposite-Spin Energy  =      -1.8196177798385458 [Eh]
	 SCS Correlation Energy    =      -1.9872547511494365 [Eh]
	 SCS Total Energy          =    -475.3566141436762109 [Eh]
	-----------------------------------------------------------

  Dipole Moment: [D]
     X:    -4.5697      Y:     1.0918      Z:     0.0339     Total:     4.6984

*** Psi4 exiting successfully. Buy a developer a beer!
