                               Psi4 1.3.2 release

  ==> Input File <==

--------------------------------------------------------------------------
#psi4
#
memory 32 gb

molecule  {
0 1
  O        2.9010970     0.5011680     0.0190930
  O        2.1944780    -1.5825590    -0.0163220
  N        2.0004500    -0.3550410     0.0008100
  C       -1.7439920    -0.3903900    -0.0133100
  C       -0.4075289    -0.8027920    -0.0075280
  C        0.6078150     0.1183000     0.0001420
  C       -2.0019240     0.9878430    -0.0100420
  C        0.3698690     1.4898440     0.0027510
  C       -0.9581620     1.9149690    -0.0035660
  C       -2.8732770    -1.3864780     0.0172390
  H       -0.1671010    -1.8828910    -0.0126110
  H       -3.0325270     1.3382360    -0.0191480
  H        1.1996340     2.1873950     0.0050900
  H       -1.1788320     2.9793390    -0.0057220
  H       -2.5659080    -2.3418330    -0.4157720
  H       -3.1988470    -1.5742060     1.0458220
  H       -3.7365580    -1.0178890    -0.5434620
units angstrom
no_reorient  #important for SAPT in psi4, default
symmetry c1  #important for SAPT in psi4, default
}

set PROPERTIES_ORIGIN ["COM"]
properties('MP2/aug-cc-pvtz', properties = ['dipole'])
--------------------------------------------------------------------------

    Molecular point group: c1
  Charge       = 0
  Multiplicity = 1
  Basis Set: AUG-CC-PVTZ
    Blend: AUG-CC-PVTZ
  Basis Set: (AUG-CC-PVTZ AUX)
    Blend: AUG-CC-PVTZ-JKFIT

    Orbital Energies [Eh]
    ---------------------

    Doubly Occupied:

       1A    -20.603765     2A    -20.603599     3A    -15.853797
       4A    -11.309453     5A    -11.272767     6A    -11.271328
       7A    -11.269608     8A    -11.267920     9A    -11.264639
      10A    -11.245637    11A     -1.586984    12A     -1.385481
      13A     -1.200378    14A     -1.101382    15A     -1.064943
      16A     -0.970154    17A     -0.955294    18A     -0.847194
      19A     -0.818719    20A     -0.764335    21A     -0.722507
      22A     -0.707659    23A     -0.700450    24A     -0.665573
      25A     -0.632660    26A     -0.602301    27A     -0.598123
      28A     -0.564692    29A     -0.543345    30A     -0.522905
      31A     -0.519923    32A     -0.493945    33A     -0.491686
      34A     -0.451458    35A     -0.375739    36A     -0.355503

  @DF-RHF Final Energy:  -473.37238353061883

   => Energetics <=

    Nuclear Repulsion Energy =            493.8983582697779866
    One-Electron Energy =               -1623.3297937066461145
    Two-Electron Energy =                 656.0590519062492376
    Total Energy =                       -473.3723835306187766
  Basis Set: (AUG-CC-PVTZ AUX)
    Blend: AUG-CC-PVTZ-RI
    Molecular point group: c1

    Geometry (in Angstrom), charge = 0, multiplicity = 1:

       Center              X                  Y                   Z               Mass
    ------------   -----------------  -----------------  -----------------  -----------------
         O            2.808793530874     0.496842201379     0.019541621305    15.994914619570
         O            2.102174530874    -1.586884798621    -0.015873378695    15.994914619570
         N            1.908146530874    -0.359366798621     0.001258621305    14.003074004430
         C           -1.836295469126    -0.394715798621    -0.012861378695    12.000000000000
         C           -0.499832369126    -0.807117798621    -0.007079378695    12.000000000000
         C            0.515511530874     0.113974201379     0.000590621305    12.000000000000
         C           -2.094227469126     0.983517201379    -0.009593378695    12.000000000000
         C            0.277565530874     1.485518201379     0.003199621305    12.000000000000
         C           -1.050465469126     1.910643201379    -0.003117378695    12.000000000000
         C           -2.965580469126    -1.390803798621     0.017687621305    12.000000000000
         H           -0.259404469126    -1.887216798621    -0.012162378695     1.007825032230
         H           -3.124830469126     1.333910201379    -0.018699378695     1.007825032230
         H            1.107330530874     2.183069201379     0.005538621305     1.007825032230
         H           -1.271135469126     2.975013201379    -0.005273378695     1.007825032230
         H           -2.658211469126    -2.346158798621    -0.415323378695     1.007825032230
         H           -3.291150469126    -1.578531798621     1.046270621305     1.007825032230
         H           -3.828861469126    -1.022214798621    -0.543013378695     1.007825032230

  Basis Set: AUG-CC-PVTZ
    Blend: AUG-CC-PVTZ
  Basis Set: (AUG-CC-PVTZ AUX)
    Blend: AUG-CC-PVTZ-JKFIT
	 Reference Energy          =    -473.3723835306188334 [Eh]
	 Singles Energy            =      -0.0000000000000000 [Eh]
	 Same-Spin Energy          =      -0.5030148804424472 [Eh]
	 Opposite-Spin Energy      =      -1.5160221284641078 [Eh]
	 Correlation Energy        =      -2.0190370089065550 [Eh]
	 Total Energy              =    -475.3914205395253703 [Eh]

	 ================> DF-SCS-MP2 Energies <==================
	-----------------------------------------------------------
	 SCS Same-Spin Scale       =       0.3333333333333333 [-]
	 SCS Opposite-Spin Scale   =       1.2000000000000000 [-]
	 SCS Same-Spin Energy      =      -0.1676716268141491 [Eh]
	 SCS Opposite-Spin Energy  =      -1.8192265541569292 [Eh]
	 SCS Correlation Energy    =      -1.9868981809710784 [Eh]
	 SCS Total Energy          =    -475.3592817115899152 [Eh]
	-----------------------------------------------------------

  Dipole Moment: [D]
     X:    -4.5671      Y:     1.0395      Z:     0.0352     Total:     4.6840

*** Psi4 exiting successfully. Buy a developer a beer!
