                               Psi4 1.3.2 release

  ==> Input File <==

--------------------------------------------------------------------------
#psi4
#
memory 32 gb

molecule  {
0 1
  O        2.9010970     0.5011680     0.0190930
  O        2.1944780    -1.5825590    -0.0163220
  N        2.0004500    -0.3550410     0.0008100
  C       -1.7439920    -0.3903900    -0.0133100
  C       -0.4149300    -0.8260450    -0.0068870
  C        0.4184541     0.1826617     0.0000512
  C       -2.0019240     0.9878430    -0.0100420
  C        0.3698690     1.4898440     0.0027510
  C       -0.9581620     1.9149690    -0.0035660
  C       -2.8732770    -1.3864780     0.0172390
  H       -0.1671010    -1.8828910    -0.0126110
  H       -3.0325270     1.3382360    -0.0191480
  H        1.1996340     2.1873950     0.0050900
  H       -1.1788320     2.9793390    -0.0057220
  H       -2.5659080    -2.3418330    -0.4157720
  H       -3.1988470    -1.5742060     1.0458220
  H       -3.7365580    -1.0178890    -0.5434620
units angstrom
no_reorient  #important for SAPT in psi4, default
symmetry c1  #important for SAPT in psi4, default
}

set PROPERTIES_ORIGIN ["COM"]
properties('MP2/aug-cc-pvtz', properties = ['dipole'])
--------------------------------------------------------------------------

    Molecular point group: c1
  Charge       = 0
  Multiplicity = 1
  Basis Set: AUG-CC-PVTZ
    Blend: AUG-CC-PVTZ
  Basis Set: (AUG-CC-PVTZ AUX)
    Blend: AUG-CC-PVTZ-JKFIT

    Orbital Energies [Eh]
    ---------------------

    Doubly Occupied:

       1A    -20.595812     2A    -20.595743     3A    -15.831555
       4A    -11.317215     5A    -11.278131     6A    -11.270732
       7A    -11.262363     8A    -11.261951     9A    -11.261206
      10A    -11.246696    11A     -1.565525    12A     -1.371850
      13A     -1.221078    14A     -1.093493    15A     -1.068132
      16A     -0.975609    17A     -0.927437    18A     -0.856935
      19A     -0.813656    20A     -0.762343    21A     -0.710244
      22A     -0.691457    23A     -0.683693    24A     -0.682919
      25A     -0.638179    26A     -0.621546    27A     -0.602826
      28A     -0.568727    29A     -0.544814    30A     -0.544019
      31A     -0.532065    32A     -0.482813    33A     -0.454268
      34A     -0.442784    35A     -0.382796    36A     -0.363684

  @DF-RHF Final Energy:  -473.33670860289453

   => Energetics <=

    Nuclear Repulsion Energy =            494.0456863841239965
    One-Electron Energy =               -1623.7162008216091635
    Two-Electron Energy =                 656.3338058345905210
    Total Energy =                       -473.3367086028945323
  Basis Set: (AUG-CC-PVTZ AUX)
    Blend: AUG-CC-PVTZ-RI
    Molecular point group: c1

    Geometry (in Angstrom), charge = 0, multiplicity = 1:

       Center              X                  Y                   Z               Mass
    ------------   -----------------  -----------------  -----------------  -----------------
         O            2.826022162736     0.493242692029     0.019493445370    15.994914619570
         O            2.119403162736    -1.590484307971    -0.015921554630    15.994914619570
         N            1.925375162736    -0.362966307971     0.001210445370    14.003074004430
         C           -1.819066837264    -0.398315307971    -0.012909554630    12.000000000000
         C           -0.490004837264    -0.833970307971    -0.006486554630    12.000000000000
         C            0.343379262736     0.174736392029     0.000451645370    12.000000000000
         C           -2.076998837264     0.979917692029    -0.009641554630    12.000000000000
         C            0.294794162736     1.481918692029     0.003151445370    12.000000000000
         C           -1.033236837264     1.907043692029    -0.003165554630    12.000000000000
         C           -2.948351837264    -1.394403307971     0.017639445370    12.000000000000
         H           -0.242175837264    -1.890816307971    -0.012210554630     1.007825032230
         H           -3.107601837264     1.330310692029    -0.018747554630     1.007825032230
         H            1.124559162736     2.179469692029     0.005490445370     1.007825032230
         H           -1.253906837264     2.971413692029    -0.005321554630     1.007825032230
         H           -2.640982837264    -2.349758307971    -0.415371554630     1.007825032230
         H           -3.273921837264    -1.582131307971     1.046222445370     1.007825032230
         H           -3.811632837264    -1.025814307971    -0.543061554630     1.007825032230

  Basis Set: AUG-CC-PVTZ
    Blend: AUG-CC-PVTZ
  Basis Set: (AUG-CC-PVTZ AUX)
    Blend: AUG-CC-PVTZ-JKFIT
	 Reference Energy          =    -473.3367086028945323 [Eh]
	 Singles Energy            =      -0.0000000000000000 [Eh]
	 Same-Spin Energy          =      -0.5041109397233623 [Eh]
	 Opposite-Spin Energy      =      -1.5175348092755141 [Eh]
	 Correlation Energy        =      -2.0216457489988766 [Eh]
	 Total Energy              =    -475.3583543518934107 [Eh]

	 ================> DF-SCS-MP2 Energies <==================
	-----------------------------------------------------------
	 SCS Same-Spin Scale       =       0.3333333333333333 [-]
	 SCS Opposite-Spin Scale   =       1.2000000000000000 [-]
	 SCS Same-Spin Energy      =      -0.1680369799077874 [Eh]
	 SCS Opposite-Spin Energy  =      -1.8210417711306168 [Eh]
	 SCS Correlation Energy    =      -1.9890787510384043 [Eh]
	 SCS Total Energy          =    -475.3257873539329239 [Eh]
	-----------------------------------------------------------

  Dipole Moment: [D]
     X:    -4.6521      Y:     1.0870      Z:     0.0368     Total:     4.7776

*** Psi4 exiting successfully. Buy a developer a beer!
