                               Psi4 1.3.2 release

  ==> Input File <==

--------------------------------------------------------------------------
#psi4
#
memory 32 gb

molecule  {
0 1
  O        2.9010970     0.5011680     0.0190930
  O        2.1944780    -1.5825590    -0.0163220
  N        2.0004500    -0.3550410     0.0008100
  C       -1.7439920    -0.3903900    -0.0133100
  C       -0.4149300    -0.8260450    -0.0068870
  C        0.6078150     0.1183000     0.0001420
  C       -2.0019240     0.9878430    -0.0100420
  C        0.3698690     1.4898440     0.0027510
  C       -0.9581620     1.9149690    -0.0035660
  C       -3.0232361    -1.5187497     0.0212956
  H       -0.1671010    -1.8828910    -0.0126110
  H       -3.0325270     1.3382360    -0.0191480
  H        1.1996340     2.1873950     0.0050900
  H       -1.1788320     2.9793390    -0.0057220
  H       -2.5659080    -2.3418330    -0.4157720
  H       -3.1988470    -1.5742060     1.0458220
  H       -3.7365580    -1.0178890    -0.5434620
units angstrom
no_reorient  #important for SAPT in psi4, default
symmetry c1  #important for SAPT in psi4, default
}

set PROPERTIES_ORIGIN ["COM"]
properties('MP2/aug-cc-pvtz', properties = ['dipole'])
--------------------------------------------------------------------------

    Molecular point group: c1
  Charge       = 0
  Multiplicity = 1
  Basis Set: AUG-CC-PVTZ
    Blend: AUG-CC-PVTZ
  Basis Set: (AUG-CC-PVTZ AUX)
    Blend: AUG-CC-PVTZ-JKFIT

    Orbital Energies [Eh]
    ---------------------

    Doubly Occupied:

       1A    -20.602623     2A    -20.602554     3A    -15.852693
       4A    -11.310621     5A    -11.277655     6A    -11.271189
       7A    -11.270231     8A    -11.268215     9A    -11.264457
      10A    -11.246319    11A     -1.585952    12A     -1.384490
      13A     -1.194422    14A     -1.091870    15A     -1.056494
      16A     -0.971454    17A     -0.956092    18A     -0.847612
      19A     -0.816588    20A     -0.759886    21A     -0.721022
      22A     -0.706495    23A     -0.701745    24A     -0.662231
      25A     -0.631670    26A     -0.620500    27A     -0.597926
      28A     -0.584210    29A     -0.543376    30A     -0.526901
      31A     -0.496972    32A     -0.491272    33A     -0.472736
      34A     -0.450709    35A     -0.373052    36A     -0.358732

  @DF-RHF Final Energy:  -473.34599081921147

   => Energetics <=

    Nuclear Repulsion Energy =            490.2829657134333274
    One-Electron Energy =               -1616.1159799360930265
    Two-Electron Energy =                 652.4870234034481200
    Total Energy =                       -473.3459908192114654
  Basis Set: (AUG-CC-PVTZ AUX)
    Blend: AUG-CC-PVTZ-RI
    Molecular point group: c1

    Geometry (in Angstrom), charge = 0, multiplicity = 1:

       Center              X                  Y                   Z               Mass
    ------------   -----------------  -----------------  -----------------  -----------------
         O            2.822572110862     0.510460063577     0.019130295841    15.994914619570
         O            2.115953110862    -1.573266936423    -0.016284704159    15.994914619570
         N            1.921925110862    -0.345748936423     0.000847295841    14.003074004430
         C           -1.822516889138    -0.381097936423    -0.013272704159    12.000000000000
         C           -0.493454889138    -0.816752936423    -0.006849704159    12.000000000000
         C            0.529290110862     0.127592063577     0.000179295841    12.000000000000
         C           -2.080448889138     0.997135063577    -0.010004704159    12.000000000000
         C            0.291344110862     1.499136063577     0.002788295841    12.000000000000
         C           -1.036686889138     1.924261063577    -0.003528704159    12.000000000000
         C           -3.101760989138    -1.509457636423     0.021332895841    12.000000000000
         H           -0.245625889138    -1.873598936423    -0.012573704159     1.007825032230
         H           -3.111051889138     1.347528063577    -0.019110704159     1.007825032230
         H            1.121109110862     2.196687063577     0.005127295841     1.007825032230
         H           -1.257356889138     2.988631063577    -0.005684704159     1.007825032230
         H           -2.644432889138    -2.332540936423    -0.415734704159     1.007825032230
         H           -3.277371889138    -1.564913936423     1.045859295841     1.007825032230
         H           -3.815082889138    -1.008596936423    -0.543424704159     1.007825032230

  Basis Set: AUG-CC-PVTZ
    Blend: AUG-CC-PVTZ
  Basis Set: (AUG-CC-PVTZ AUX)
    Blend: AUG-CC-PVTZ-JKFIT
	 Reference Energy          =    -473.3459908192114654 [Eh]
	 Singles Energy            =      -0.0000000000000000 [Eh]
	 Same-Spin Energy          =      -0.5026823852025064 [Eh]
	 Opposite-Spin Energy      =      -1.5169235450717635 [Eh]
	 Correlation Energy        =      -2.0196059302742699 [Eh]
	 Total Energy              =    -475.3655967494857464 [Eh]

	 ================> DF-SCS-MP2 Energies <==================
	-----------------------------------------------------------
	 SCS Same-Spin Scale       =       0.3333333333333333 [-]
	 SCS Opposite-Spin Scale   =       1.2000000000000000 [-]
	 SCS Same-Spin Energy      =      -0.1675607950675021 [Eh]
	 SCS Opposite-Spin Energy  =      -1.8203082540861162 [Eh]
	 SCS Correlation Energy    =      -1.9878690491536184 [Eh]
	 SCS Total Energy          =    -475.3338598683650957 [Eh]
	-----------------------------------------------------------

  Dipole Moment: [D]
     X:    -4.5269      Y:     1.0931      Z:     0.0274     Total:     4.6571

*** Psi4 exiting successfully. Buy a developer a beer!
