                               Psi4 1.4a3.dev225

  ==> Input File <==

--------------------------------------------------------------------------
#psi4
#
memory 32 gb

molecule  {
0 1
  O        2.9010780     0.5011950     0.0183730
  O        2.1944840    -1.5825690    -0.0155730
  N        2.0004400    -0.3550420     0.0007840
  C       -1.7439870    -0.3903860    -0.0134210
  C       -0.4149410    -0.8260390    -0.0069050
  C        0.5888919     0.1247292    -0.0000532
  C       -2.0019250     0.9878490    -0.0097750
  C        0.3698600     1.4898450     0.0029890
  C       -0.9581720     1.9149540    -0.0034080
  C       -2.8732650    -1.3864910     0.0169490
  H       -0.1670670    -1.8828790    -0.0128300
  H       -3.0325330     1.3382220    -0.0189380
  H        1.1996540     2.1873670     0.0051620
  H       -1.1788090     2.9793360    -0.0051500
  H       -2.5655400    -2.3420280    -0.4153900
  H       -3.1994760    -1.5736770     1.0454250
  H       -3.7361930    -1.0182010    -0.5444970
units angstrom
no_reorient  #important for SAPT in psi4, default
symmetry c1  #important for SAPT in psi4, default
}

set PROPERTIES_ORIGIN ["COM"]
properties('MP2/aug-cc-pvtz', properties = ['dipole'])
--------------------------------------------------------------------------

    Molecular point group: c1
  Charge       = 0
  Multiplicity = 1
  Basis Set: AUG-CC-PVTZ
    Blend: AUG-CC-PVTZ
  Basis Set: (AUG-CC-PVTZ AUX)
    Blend: AUG-CC-PVTZ-JKFIT

    Orbital Energies [Eh]
    ---------------------

    Doubly Occupied:

       1A    -20.603449     2A    -20.603392     3A    -15.852558
       4A    -11.311802     5A    -11.273095     6A    -11.270363
       7A    -11.268976     8A    -11.267467     9A    -11.265326
      10A    -11.244955    11A     -1.584958    12A     -1.384526
      13A     -1.199655    14A     -1.098209    15A     -1.065574
      16A     -0.968310    17A     -0.953983    18A     -0.849122
      19A     -0.817115    20A     -0.762217    21A     -0.721448
      22A     -0.705171    23A     -0.701682    24A     -0.666047
      25A     -0.635541    26A     -0.604997    27A     -0.598109
      28A     -0.565549    29A     -0.543156    30A     -0.523285
      31A     -0.522078    32A     -0.491800    33A     -0.490303
      34A     -0.450945    35A     -0.374605    36A     -0.356719

  @DF-RHF Final Energy:  -473.37260753270431

   => Energetics <=

    Nuclear Repulsion Energy =            493.5572411952937273
    One-Electron Energy =               -1622.6667246666461324
    Two-Electron Energy =                 655.7368759386481543
    Total Energy =                       -473.3726075327042508
  Basis Set: (AUG-CC-PVTZ AUX)
    Blend: AUG-CC-PVTZ-RI
    Molecular point group: c1

    Geometry (in Angstrom), charge = 0, multiplicity = 1:

       Center              X                  Y                   Z               Mass
    ------------   -----------------  -----------------  -----------------  -----------------
         O            2.811081975982     0.498341468387     0.018763545712    15.994914619570
         O            2.104487975982    -1.585422531613    -0.015182454288    15.994914619570
         N            1.910443975982    -0.357895531613     0.001174545712    14.003074004430
         C           -1.833983024018    -0.393239531613    -0.013030454288    12.000000000000
         C           -0.504937024018    -0.828892531613    -0.006514454288    12.000000000000
         C            0.498895875982     0.121875668387     0.000337345712    12.000000000000
         C           -2.091921024018     0.984995468387    -0.009384454288    12.000000000000
         C            0.279863975982     1.486991468387     0.003379545712    12.000000000000
         C           -1.048168024018     1.912100468387    -0.003017454288    12.000000000000
         C           -2.963261024018    -1.389344531613     0.017339545712    12.000000000000
         H           -0.257063024018    -1.885732531613    -0.012439454288     1.007825032230
         H           -3.122529024018     1.335368468387    -0.018547454288     1.007825032230
         H            1.109657975982     2.184513468387     0.005552545712     1.007825032230
         H           -1.268805024018     2.976482468387    -0.004759454288     1.007825032230
         H           -2.655536024018    -2.344881531613    -0.414999454288     1.007825032230
         H           -3.289472024018    -1.576530531613     1.045815545712     1.007825032230
         H           -3.826189024018    -1.021054531613    -0.544106454288     1.007825032230

  Basis Set: AUG-CC-PVTZ
    Blend: AUG-CC-PVTZ
  Basis Set: (AUG-CC-PVTZ AUX)
    Blend: AUG-CC-PVTZ-JKFIT
	 Reference Energy          =    -473.3726075327043077 [Eh]
	 Singles Energy            =      -0.0000000000000000 [Eh]
	 Same-Spin Energy          =      -0.5029578539034816 [Eh]
	 Opposite-Spin Energy      =      -1.5160333400252874 [Eh]
	 Correlation Energy        =      -2.0189911939287688 [Eh]
	 Total Energy              =    -475.3915987266330490 [Eh]

	 ================> DF-SCS-MP2 Energies <==================
	-----------------------------------------------------------
	 SCS Same-Spin Scale       =       0.3333333333333333 [-]
	 SCS Opposite-Spin Scale   =       1.2000000000000000 [-]
	 SCS Same-Spin Energy      =      -0.1676526179678272 [Eh]
	 SCS Opposite-Spin Energy  =      -1.8192400080303448 [Eh]
	 SCS Correlation Energy    =      -1.9868926259981721 [Eh]
	 SCS Total Energy          =    -475.3595001587024740 [Eh]
	-----------------------------------------------------------

  Dipole Moment: [D]
     X:    -4.5508      Y:     1.0522      Z:     0.0348     Total:     4.6709

*** Psi4 exiting successfully. Buy a developer a beer!
