                               Psi4 1.4a3.dev225

  ==> Input File <==

--------------------------------------------------------------------------
#psi4
#
memory 32 gb

molecule  {
0 1
  O        2.9010780     0.5011950     0.0183730
  O        2.1944840    -1.5825690    -0.0155730
  N        2.0004400    -0.3550420     0.0007840
  C       -1.7439870    -0.3903860    -0.0134210
  C       -0.4149410    -0.8260390    -0.0069050
  C        0.6078280     0.1182930    -0.0000420
  C       -2.0019250     0.9878490    -0.0097750
  C        0.3698600     1.4898450     0.0029890
  C       -0.9581720     1.9149540    -0.0034080
  C       -2.9107545    -1.4195594     0.0179572
  H       -0.1670670    -1.8828790    -0.0128300
  H       -3.0325330     1.3382220    -0.0189380
  H        1.1996540     2.1873670     0.0051620
  H       -1.1788090     2.9793360    -0.0051500
  H       -2.5655400    -2.3420280    -0.4153900
  H       -3.1994760    -1.5736770     1.0454250
  H       -3.7361930    -1.0182010    -0.5444970
units angstrom
no_reorient  #important for SAPT in psi4, default
symmetry c1  #important for SAPT in psi4, default
}

set PROPERTIES_ORIGIN ["COM"]
properties('MP2/aug-cc-pvtz', properties = ['dipole'])
--------------------------------------------------------------------------

    Molecular point group: c1
  Charge       = 0
  Multiplicity = 1
  Basis Set: AUG-CC-PVTZ
    Blend: AUG-CC-PVTZ
  Basis Set: (AUG-CC-PVTZ AUX)
    Blend: AUG-CC-PVTZ-JKFIT

    Orbital Energies [Eh]
    ---------------------

    Doubly Occupied:

       1A    -20.603119     2A    -20.603062     3A    -15.853200
       4A    -11.311276     5A    -11.274658     6A    -11.271764
       7A    -11.270421     8A    -11.268422     9A    -11.265086
      10A    -11.244103    11A     -1.586443    12A     -1.384972
      13A     -1.196958    14A     -1.097589    15A     -1.063081
      16A     -0.969051    17A     -0.955666    18A     -0.848244
      19A     -0.817194    20A     -0.761610    21A     -0.721931
      22A     -0.706995    23A     -0.702472    24A     -0.663685
      25A     -0.633878    26A     -0.603447    27A     -0.596568
      28A     -0.573107    29A     -0.543986    30A     -0.523437
      31A     -0.513559    32A     -0.492552    33A     -0.491615
      34A     -0.451118    35A     -0.373635    36A     -0.357352

  @DF-RHF Final Energy:  -473.37146085196440

   => Energetics <=

    Nuclear Repulsion Energy =            492.6891345214523881
    One-Electron Energy =               -1620.9306826956085388
    Two-Electron Energy =                 654.8700873221918073
    Total Energy =                       -473.3714608519643434
  Basis Set: (AUG-CC-PVTZ AUX)
    Blend: AUG-CC-PVTZ-RI
    Molecular point group: c1

    Geometry (in Angstrom), charge = 0, multiplicity = 1:

       Center              X                  Y                   Z               Mass
    ------------   -----------------  -----------------  -----------------  -----------------
         O            2.812706525937     0.501800521509     0.018674286265    15.994914619570
         O            2.106112525937    -1.581963478491    -0.015271713735    15.994914619570
         N            1.912068525937    -0.354436478491     0.001085286265    14.003074004430
         C           -1.832358474063    -0.389780478491    -0.013119713735    12.000000000000
         C           -0.503312474063    -0.825433478491    -0.006603713735    12.000000000000
         C            0.519456525937     0.118898521509     0.000259286265    12.000000000000
         C           -2.090296474063     0.988454521509    -0.009473713735    12.000000000000
         C            0.281488525937     1.490450521509     0.003290286265    12.000000000000
         C           -1.046543474063     1.915559521509    -0.003106713735    12.000000000000
         C           -2.999125974063    -1.418953878491     0.018258486265    12.000000000000
         H           -0.255438474063    -1.882273478491    -0.012528713735     1.007825032230
         H           -3.120904474063     1.338827521509    -0.018636713735     1.007825032230
         H            1.111282525937     2.187972521509     0.005463286265     1.007825032230
         H           -1.267180474063     2.979941521509    -0.004848713735     1.007825032230
         H           -2.653911474063    -2.341422478491    -0.415088713735     1.007825032230
         H           -3.287847474063    -1.573071478491     1.045726286265     1.007825032230
         H           -3.824564474063    -1.017595478491    -0.544195713735     1.007825032230

  Basis Set: AUG-CC-PVTZ
    Blend: AUG-CC-PVTZ
  Basis Set: (AUG-CC-PVTZ AUX)
    Blend: AUG-CC-PVTZ-JKFIT
	 Reference Energy          =    -473.3714608519644003 [Eh]
	 Singles Energy            =      -0.0000000000000000 [Eh]
	 Same-Spin Energy          =      -0.5026254197689080 [Eh]
	 Opposite-Spin Energy      =      -1.5157970904738651 [Eh]
	 Correlation Energy        =      -2.0184225102427731 [Eh]
	 Total Energy              =    -475.3898833622071720 [Eh]

	 ================> DF-SCS-MP2 Energies <==================
	-----------------------------------------------------------
	 SCS Same-Spin Scale       =       0.3333333333333333 [-]
	 SCS Opposite-Spin Scale   =       1.2000000000000000 [-]
	 SCS Same-Spin Energy      =      -0.1675418065896360 [Eh]
	 SCS Opposite-Spin Energy  =      -1.8189565085686381 [Eh]
	 SCS Correlation Energy    =      -1.9864983151582740 [Eh]
	 SCS Total Energy          =    -475.3579591671226581 [Eh]
	-----------------------------------------------------------

  Dipole Moment: [D]
     X:    -4.5617      Y:     1.0626      Z:     0.0322     Total:     4.6839

*** Psi4 exiting successfully. Buy a developer a beer!
