                               Psi4 1.3.2 release

  ==> Input File <==

--------------------------------------------------------------------------
#psi4
#
memory 32 gb

molecule  {
0 1
  O        2.9010970     0.5011680     0.0190930
  O        2.1944780    -1.5825590    -0.0163220
  N        1.9640398    -0.4510319     0.0002441
  C       -1.7439920    -0.3903900    -0.0133100
  C       -0.4149300    -0.8260450    -0.0068870
  C        0.6078150     0.1183000     0.0001420
  C       -2.0019240     0.9878430    -0.0100420
  C        0.3698690     1.4898440     0.0027510
  C       -0.9581620     1.9149690    -0.0035660
  C       -2.8732770    -1.3864780     0.0172390
  H       -0.1671010    -1.8828910    -0.0126110
  H       -3.0325270     1.3382360    -0.0191480
  H        1.1996340     2.1873950     0.0050900
  H       -1.1788320     2.9793390    -0.0057220
  H       -2.5659080    -2.3418330    -0.4157720
  H       -3.1988470    -1.5742060     1.0458220
  H       -3.7365580    -1.0178890    -0.5434620
units angstrom
no_reorient  #important for SAPT in psi4, default
symmetry c1  #important for SAPT in psi4, default
}

set PROPERTIES_ORIGIN ["COM"]
properties('MP2/aug-cc-pvtz', properties = ['dipole'])
--------------------------------------------------------------------------

    Molecular point group: c1
  Charge       = 0
  Multiplicity = 1
  Basis Set: AUG-CC-PVTZ
    Blend: AUG-CC-PVTZ
  Basis Set: (AUG-CC-PVTZ AUX)
    Blend: AUG-CC-PVTZ-JKFIT

    Orbital Energies [Eh]
    ---------------------

    Doubly Occupied:

       1A    -20.639916     2A    -20.565311     3A    -15.849666
       4A    -11.311492     5A    -11.273097     6A    -11.272281
       7A    -11.270506     8A    -11.268663     9A    -11.265271
      10A    -11.245624    11A     -1.628602    12A     -1.352652
      13A     -1.197993    14A     -1.100123    15A     -1.067629
      16A     -0.966232    17A     -0.957892    18A     -0.850061
      19A     -0.825313    20A     -0.766830    21A     -0.728121
      22A     -0.720941    23A     -0.704284    24A     -0.665320
      25A     -0.636242    26A     -0.601946    27A     -0.598582
      28A     -0.566990    29A     -0.545145    30A     -0.522927
      31A     -0.522288    32A     -0.490786    33A     -0.469755
      34A     -0.444433    35A     -0.374637    36A     -0.355698

  @DF-RHF Final Energy:  -473.35848824859704

   => Energetics <=

    Nuclear Repulsion Energy =            493.7873513207721317
    One-Electron Energy =               -1623.0451819681293273
    Two-Electron Energy =                 655.8993423987601545
    Total Energy =                       -473.3584882485970411
  Basis Set: (AUG-CC-PVTZ AUX)
    Blend: AUG-CC-PVTZ-RI
    Molecular point group: c1

    Geometry (in Angstrom), charge = 0, multiplicity = 1:

       Center              X                  Y                   Z               Mass
    ------------   -----------------  -----------------  -----------------  -----------------
         O            2.813161849489     0.508686281443     0.019543316624    15.994914619570
         O            2.106542849489    -1.575040718557    -0.015871683376    15.994914619570
         N            1.876104649489    -0.443513618557     0.000694416624    14.003074004430
         C           -1.831927150511    -0.382871718557    -0.012859683376    12.000000000000
         C           -0.502865150511    -0.818526718557    -0.006436683376    12.000000000000
         C            0.519879849489     0.125818281443     0.000592316624    12.000000000000
         C           -2.089859150511     0.995361281443    -0.009591683376    12.000000000000
         C            0.281933849489     1.497362281443     0.003201316624    12.000000000000
         C           -1.046097150511     1.922487281443    -0.003115683376    12.000000000000
         C           -2.961212150511    -1.378959718557     0.017689316624    12.000000000000
         H           -0.255036150511    -1.875372718557    -0.012160683376     1.007825032230
         H           -3.120462150511     1.345754281443    -0.018697683376     1.007825032230
         H            1.111698849489     2.194913281443     0.005540316624     1.007825032230
         H           -1.266767150511     2.986857281443    -0.005271683376     1.007825032230
         H           -2.653843150511    -2.334314718557    -0.415321683376     1.007825032230
         H           -3.286782150511    -1.566687718557     1.046272316624     1.007825032230
         H           -3.824493150511    -1.010370718557    -0.543011683376     1.007825032230

  Basis Set: AUG-CC-PVTZ
    Blend: AUG-CC-PVTZ
  Basis Set: (AUG-CC-PVTZ AUX)
    Blend: AUG-CC-PVTZ-JKFIT
	 Reference Energy          =    -473.3584882485970411 [Eh]
	 Singles Energy            =      -0.0000000000000000 [Eh]
	 Same-Spin Energy          =      -0.5015096686909970 [Eh]
	 Opposite-Spin Energy      =      -1.5131814120332447 [Eh]
	 Correlation Energy        =      -2.0146910807242415 [Eh]
	 Total Energy              =    -475.3731793293212604 [Eh]

	 ================> DF-SCS-MP2 Energies <==================
	-----------------------------------------------------------
	 SCS Same-Spin Scale       =       0.3333333333333333 [-]
	 SCS Opposite-Spin Scale   =       1.2000000000000000 [-]
	 SCS Same-Spin Energy      =      -0.1671698895636657 [Eh]
	 SCS Opposite-Spin Energy  =      -1.8158176944398936 [Eh]
	 SCS Correlation Energy    =      -1.9829875840035593 [Eh]
	 SCS Total Energy          =    -475.3414758326006222 [Eh]
	-----------------------------------------------------------

  Dipole Moment: [D]
     X:    -4.8526      Y:     0.5450      Z:     0.0253     Total:     4.8832

*** Psi4 exiting successfully. Buy a developer a beer!
