                               Psi4 1.3.2 release

  ==> Input File <==

--------------------------------------------------------------------------
#psi4
#
memory 32 gb

molecule  {
0 1
  O        2.9010970     0.5011680     0.0190930
  O        2.1944780    -1.5825590    -0.0163220
  N        2.0729182    -0.2861484     0.0022811
  C       -1.7439920    -0.3903900    -0.0133100
  C       -0.4149300    -0.8260450    -0.0068870
  C        0.6078150     0.1183000     0.0001420
  C       -2.0019240     0.9878430    -0.0100420
  C        0.3698690     1.4898440     0.0027510
  C       -0.9581620     1.9149690    -0.0035660
  C       -2.8732770    -1.3864780     0.0172390
  H       -0.1671010    -1.8828910    -0.0126110
  H       -3.0325270     1.3382360    -0.0191480
  H        1.1996340     2.1873950     0.0050900
  H       -1.1788320     2.9793390    -0.0057220
  H       -2.5659080    -2.3418330    -0.4157720
  H       -3.1988470    -1.5742060     1.0458220
  H       -3.7365580    -1.0178890    -0.5434620
units angstrom
no_reorient  #important for SAPT in psi4, default
symmetry c1  #important for SAPT in psi4, default
}

set PROPERTIES_ORIGIN ["COM"]
properties('MP2/aug-cc-pvtz', properties = ['dipole'])
--------------------------------------------------------------------------

    Molecular point group: c1
  Charge       = 0
  Multiplicity = 1
  Basis Set: AUG-CC-PVTZ
    Blend: AUG-CC-PVTZ
  Basis Set: (AUG-CC-PVTZ AUX)
    Blend: AUG-CC-PVTZ-JKFIT

    Orbital Energies [Eh]
    ---------------------

    Doubly Occupied:

       1A    -20.638723     2A    -20.573031     3A    -15.852674
       4A    -11.310845     5A    -11.270814     6A    -11.268535
       7A    -11.267130     8A    -11.264858     9A    -11.263205
      10A    -11.242963    11A     -1.641692    12A     -1.378980
      13A     -1.192483    14A     -1.091732    15A     -1.059099
      16A     -0.966066    17A     -0.947889    18A     -0.846036
      19A     -0.824722    20A     -0.771181    21A     -0.733090
      22A     -0.729906    23A     -0.702813    24A     -0.664503
      25A     -0.632219    26A     -0.602260    27A     -0.595979
      28A     -0.562669    29A     -0.544876    30A     -0.521041
      31A     -0.519107    32A     -0.493511    33A     -0.471858
      34A     -0.453519    35A     -0.370346    36A     -0.354544

  @DF-RHF Final Energy:  -473.36317005726522

   => Energetics <=

    Nuclear Repulsion Energy =            493.4082279311799084
    One-Electron Energy =               -1622.2929970960112769
    Two-Electron Energy =                 655.5215991075660895
    Total Energy =                       -473.3631700572652790
  Basis Set: (AUG-CC-PVTZ AUX)
    Blend: AUG-CC-PVTZ-RI
    Molecular point group: c1

    Geometry (in Angstrom), charge = 0, multiplicity = 1:

       Center              X                  Y                   Z               Mass
    ------------   -----------------  -----------------  -----------------  -----------------
         O            2.802037018265     0.491839036175     0.019335182769    15.994914619570
         O            2.095418018265    -1.591887963825    -0.016079817231    15.994914619570
         N            1.973858218265    -0.295477363825     0.002523282769    14.003074004430
         C           -1.843051981735    -0.399718963825    -0.013067817231    12.000000000000
         C           -0.513989981735    -0.835373963825    -0.006644817231    12.000000000000
         C            0.508755018265     0.108971036175     0.000384182769    12.000000000000
         C           -2.100983981735     0.978514036175    -0.009799817231    12.000000000000
         C            0.270809018265     1.480515036175     0.002993182769    12.000000000000
         C           -1.057221981735     1.905640036175    -0.003323817231    12.000000000000
         C           -2.972336981735    -1.395806963825     0.017481182769    12.000000000000
         H           -0.266160981735    -1.892219963825    -0.012368817231     1.007825032230
         H           -3.131586981735     1.328907036175    -0.018905817231     1.007825032230
         H            1.100574018265     2.178066036175     0.005332182769     1.007825032230
         H           -1.277891981735     2.970010036175    -0.005479817231     1.007825032230
         H           -2.664967981735    -2.351161963825    -0.415529817231     1.007825032230
         H           -3.297906981735    -1.583534963825     1.046064182769     1.007825032230
         H           -3.835617981735    -1.027217963825    -0.543219817231     1.007825032230

  Basis Set: AUG-CC-PVTZ
    Blend: AUG-CC-PVTZ
  Basis Set: (AUG-CC-PVTZ AUX)
    Blend: AUG-CC-PVTZ-JKFIT
	 Reference Energy          =    -473.3631700572652221 [Eh]
	 Singles Energy            =      -0.0000000000000000 [Eh]
	 Same-Spin Energy          =      -0.5006986022338534 [Eh]
	 Opposite-Spin Energy      =      -1.5111649912262168 [Eh]
	 Correlation Energy        =      -2.0118635934600704 [Eh]
	 Total Energy              =    -475.3750336507252996 [Eh]

	 ================> DF-SCS-MP2 Energies <==================
	-----------------------------------------------------------
	 SCS Same-Spin Scale       =       0.3333333333333333 [-]
	 SCS Opposite-Spin Scale   =       1.2000000000000000 [-]
	 SCS Same-Spin Energy      =      -0.1668995340779511 [Eh]
	 SCS Opposite-Spin Energy  =      -1.8133979894714600 [Eh]
	 SCS Correlation Energy    =      -1.9802975235494111 [Eh]
	 SCS Total Energy          =    -475.3434675808146608 [Eh]
	-----------------------------------------------------------

  Dipole Moment: [D]
     X:    -4.1219      Y:     1.4712      Z:     0.0442     Total:     4.3768

*** Psi4 exiting successfully. Buy a developer a beer!
