                               Psi4 1.3.2 release

  ==> Input File <==

--------------------------------------------------------------------------
#psi4
#
memory 32 gb

molecule  {
0 1
  O        2.9159056     0.4853194     0.0189340
  O        2.1944780    -1.5825590    -0.0163220
  N        2.0004500    -0.3550410     0.0008100
  C       -1.7439920    -0.3903900    -0.0133100
  C       -0.4149300    -0.8260450    -0.0068870
  C        0.6078150     0.1183000     0.0001420
  C       -2.0019240     0.9878430    -0.0100420
  C        0.3698690     1.4898440     0.0027510
  C       -0.9581620     1.9149690    -0.0035660
  C       -2.8732770    -1.3864780     0.0172390
  H       -0.1671010    -1.8828910    -0.0126110
  H       -3.0325270     1.3382360    -0.0191480
  H        1.1996340     2.1873950     0.0050900
  H       -1.1788320     2.9793390    -0.0057220
  H       -2.5659080    -2.3418330    -0.4157720
  H       -3.1988470    -1.5742060     1.0458220
  H       -3.7365580    -1.0178890    -0.5434620
units angstrom
no_reorient  #important for SAPT in psi4, default
symmetry c1  #important for SAPT in psi4, default
}

set PROPERTIES_ORIGIN ["COM"]
properties('MP2/aug-cc-pvtz', properties = ['dipole'])
--------------------------------------------------------------------------

    Molecular point group: c1
  Charge       = 0
  Multiplicity = 1
  Basis Set: AUG-CC-PVTZ
    Blend: AUG-CC-PVTZ
  Basis Set: (AUG-CC-PVTZ AUX)
    Blend: AUG-CC-PVTZ-JKFIT

    Orbital Energies [Eh]
    ---------------------

    Doubly Occupied:

       1A    -20.602461     2A    -20.601778     3A    -15.852772
       4A    -11.312354     5A    -11.273444     6A    -11.272614
       7A    -11.270980     8A    -11.268956     9A    -11.265734
      10A    -11.245304    11A     -1.586451    12A     -1.382843
      13A     -1.198767    14A     -1.101399    15A     -1.065924
      16A     -0.969295    17A     -0.955734    18A     -0.848673
      19A     -0.817050    20A     -0.762126    21A     -0.721359
      22A     -0.706613    23A     -0.703258    24A     -0.664672
      25A     -0.635780    26A     -0.603679    27A     -0.598203
      28A     -0.565602    29A     -0.543767    30A     -0.521840
      31A     -0.521087    32A     -0.494013    33A     -0.489921
      34A     -0.449902    35A     -0.374291    36A     -0.356831

  @DF-RHF Final Energy:  -473.37306827561719

   => Energetics <=

    Nuclear Repulsion Energy =            493.3759334948162518
    One-Electron Energy =               -1622.2870473630955530
    Two-Electron Energy =                 655.5380455926620016
    Total Energy =                       -473.3730682756172428
  Basis Set: (AUG-CC-PVTZ AUX)
    Blend: AUG-CC-PVTZ-RI
    Molecular point group: c1

    Geometry (in Angstrom), charge = 0, multiplicity = 1:

       Center              X                  Y                   Z               Mass
    ------------   -----------------  -----------------  -----------------  -----------------
         O            2.822521856517     0.484879351286     0.019345051836    15.994914619570
         O            2.101094256517    -1.582999048714    -0.015910948164    15.994914619570
         N            1.907066256517    -0.355481048714     0.001221051836    14.003074004430
         C           -1.837375743483    -0.390830048714    -0.012898948164    12.000000000000
         C           -0.508313743483    -0.826485048714    -0.006475948164    12.000000000000
         C            0.514431256517     0.117859951286     0.000553051836    12.000000000000
         C           -2.095307743483     0.987402951286    -0.009630948164    12.000000000000
         C            0.276485256517     1.489403951286     0.003162051836    12.000000000000
         C           -1.051545743483     1.914528951286    -0.003154948164    12.000000000000
         C           -2.966660743483    -1.386918048714     0.017650051836    12.000000000000
         H           -0.260484743483    -1.883331048714    -0.012199948164     1.007825032230
         H           -3.125910743483     1.337795951286    -0.018736948164     1.007825032230
         H            1.106250256517     2.186954951286     0.005501051836     1.007825032230
         H           -1.272215743483     2.978898951286    -0.005310948164     1.007825032230
         H           -2.659291743483    -2.342273048714    -0.415360948164     1.007825032230
         H           -3.292230743483    -1.574646048714     1.046233051836     1.007825032230
         H           -3.829941743483    -1.018329048714    -0.543050948164     1.007825032230

  Basis Set: AUG-CC-PVTZ
    Blend: AUG-CC-PVTZ
  Basis Set: (AUG-CC-PVTZ AUX)
    Blend: AUG-CC-PVTZ-JKFIT
	 Reference Energy          =    -473.3730682756171859 [Eh]
	 Singles Energy            =      -0.0000000000000000 [Eh]
	 Same-Spin Energy          =      -0.5028787620309454 [Eh]
	 Opposite-Spin Energy      =      -1.5159281289046513 [Eh]
	 Correlation Energy        =      -2.0188068909355970 [Eh]
	 Total Energy              =    -475.3918751665527793 [Eh]

	 ================> DF-SCS-MP2 Energies <==================
	-----------------------------------------------------------
	 SCS Same-Spin Scale       =       0.3333333333333333 [-]
	 SCS Opposite-Spin Scale   =       1.2000000000000000 [-]
	 SCS Same-Spin Energy      =      -0.1676262540103151 [Eh]
	 SCS Opposite-Spin Energy  =      -1.8191137546855816 [Eh]
	 SCS Correlation Energy    =      -1.9867400086958966 [Eh]
	 SCS Total Energy          =    -475.3598082843130896 [Eh]
	-----------------------------------------------------------

  Dipole Moment: [D]
     X:    -4.6226      Y:     1.0822      Z:     0.0349     Total:     4.7478

*** Psi4 exiting successfully. Buy a developer a beer!
