                               Psi4 1.3.2 release

  ==> Input File <==

--------------------------------------------------------------------------
#psi4
#
memory 32 gb

molecule  {
0 1
  O        2.9586408     0.4362575     0.0184241
  O        2.1944780    -1.5825590    -0.0163220
  N        2.0004500    -0.3550410     0.0008100
  C       -1.7439920    -0.3903900    -0.0133100
  C       -0.4149300    -0.8260450    -0.0068870
  C        0.6078150     0.1183000     0.0001420
  C       -2.0019240     0.9878430    -0.0100420
  C        0.3698690     1.4898440     0.0027510
  C       -0.9581620     1.9149690    -0.0035660
  C       -2.8732770    -1.3864780     0.0172390
  H       -0.1671010    -1.8828910    -0.0126110
  H       -3.0325270     1.3382360    -0.0191480
  H        1.1996340     2.1873950     0.0050900
  H       -1.1788320     2.9793390    -0.0057220
  H       -2.5659080    -2.3418330    -0.4157720
  H       -3.1988470    -1.5742060     1.0458220
  H       -3.7365580    -1.0178890    -0.5434620
units angstrom
no_reorient  #important for SAPT in psi4, default
symmetry c1  #important for SAPT in psi4, default
}

set PROPERTIES_ORIGIN ["COM"]
properties('MP2/aug-cc-pvtz', properties = ['dipole'])
--------------------------------------------------------------------------

    Molecular point group: c1
  Charge       = 0
  Multiplicity = 1
  Basis Set: AUG-CC-PVTZ
    Blend: AUG-CC-PVTZ
  Basis Set: (AUG-CC-PVTZ AUX)
    Blend: AUG-CC-PVTZ-JKFIT

    Orbital Energies [Eh]
    ---------------------

    Doubly Occupied:

       1A    -20.599881     2A    -20.597354     3A    -15.850954
       4A    -11.314951     5A    -11.274718     6A    -11.274552
       7A    -11.272507     8A    -11.270348     9A    -11.267054
      10A    -11.246117    11A     -1.586170    12A     -1.375834
      13A     -1.200629    14A     -1.103628    15A     -1.067242
      16A     -0.970796    17A     -0.956736    18A     -0.849595
      19A     -0.816430    20A     -0.761675    21A     -0.718609
      22A     -0.705045    23A     -0.704800    24A     -0.664908
      25A     -0.636898    26A     -0.604756    27A     -0.599057
      28A     -0.566554    29A     -0.545153    30A     -0.523169
      31A     -0.522298    32A     -0.496219    33A     -0.483840
      34A     -0.445814    35A     -0.375697    36A     -0.358219

  @DF-RHF Final Energy:  -473.37189661998798

   => Energetics <=

    Nuclear Repulsion Energy =            492.9452189412591565
    One-Electron Energy =               -1621.4178137658184369
    Two-Electron Energy =                 655.1006982045713585
    Total Energy =                       -473.3718966199879787
  Basis Set: (AUG-CC-PVTZ AUX)
    Blend: AUG-CC-PVTZ-RI
    Molecular point group: c1

    Geometry (in Angstrom), charge = 0, multiplicity = 1:

       Center              X                  Y                   Z               Mass
    ------------   -----------------  -----------------  -----------------  -----------------
         O            2.860269406359     0.441543494297     0.018894662562    15.994914619570
         O            2.096106606359    -1.577273005703    -0.015851437438    15.994914619570
         N            1.902078606359    -0.349755005703     0.001280562562    14.003074004430
         C           -1.842363393641    -0.385104005703    -0.012839437438    12.000000000000
         C           -0.513301393641    -0.820759005703    -0.006416437438    12.000000000000
         C            0.509443606359     0.123585994297     0.000612562562    12.000000000000
         C           -2.100295393641     0.993128994297    -0.009571437438    12.000000000000
         C            0.271497606359     1.495129994297     0.003221562562    12.000000000000
         C           -1.056533393641     1.920254994297    -0.003095437438    12.000000000000
         C           -2.971648393641    -1.381192005703     0.017709562562    12.000000000000
         H           -0.265472393641    -1.877605005703    -0.012140437438     1.007825032230
         H           -3.130898393641     1.343521994297    -0.018677437438     1.007825032230
         H            1.101262606359     2.192680994297     0.005560562562     1.007825032230
         H           -1.277203393641     2.984624994297    -0.005251437438     1.007825032230
         H           -2.664279393641    -2.336547005703    -0.415301437438     1.007825032230
         H           -3.297218393641    -1.568920005703     1.046292562562     1.007825032230
         H           -3.834929393641    -1.012603005703    -0.542991437438     1.007825032230

  Basis Set: AUG-CC-PVTZ
    Blend: AUG-CC-PVTZ
  Basis Set: (AUG-CC-PVTZ AUX)
    Blend: AUG-CC-PVTZ-JKFIT
	 Reference Energy          =    -473.3718966199879787 [Eh]
	 Singles Energy            =      -0.0000000000000000 [Eh]
	 Same-Spin Energy          =      -0.5026818400827666 [Eh]
	 Opposite-Spin Energy      =      -1.5157010463484188 [Eh]
	 Correlation Energy        =      -2.0183828864311852 [Eh]
	 Total Energy              =    -475.3902795064191764 [Eh]

	 ================> DF-SCS-MP2 Energies <==================
	-----------------------------------------------------------
	 SCS Same-Spin Scale       =       0.3333333333333333 [-]
	 SCS Opposite-Spin Scale   =       1.2000000000000000 [-]
	 SCS Same-Spin Energy      =      -0.1675606133609222 [Eh]
	 SCS Opposite-Spin Energy  =      -1.8188412556181026 [Eh]
	 SCS Correlation Energy    =      -1.9864018689790248 [Eh]
	 SCS Total Energy          =    -475.3582984889670229 [Eh]
	-----------------------------------------------------------

  Dipole Moment: [D]
     X:    -4.7818      Y:     1.1615      Z:     0.0353     Total:     4.9210

*** Psi4 exiting successfully. Buy a developer a beer!
