                               Psi4 1.4a3.dev225

  ==> Input File <==

--------------------------------------------------------------------------
#psi4
#
memory 32 gb

molecule  {
0 1
  O        2.9010780     0.5011950     0.0183730
  O        2.1944840    -1.5825690    -0.0155730
  N        2.0004400    -0.3550420     0.0007840
  C       -1.7439870    -0.3903860    -0.0134210
  C       -0.4149410    -0.8260390    -0.0069050
  C        0.6078280     0.1182930    -0.0000420
  C       -2.0019250     0.9878490    -0.0097750
  C        0.3698600     1.4898450     0.0029890
  C       -0.9581720     1.9149540    -0.0034080
  C       -2.8582692    -1.3732636     0.0165457
  H       -0.1670670    -1.8828790    -0.0128300
  H       -3.0325330     1.3382220    -0.0189380
  H        1.1996540     2.1873670     0.0051620
  H       -1.1788090     2.9793360    -0.0051500
  H       -2.5655400    -2.3420280    -0.4153900
  H       -3.1994760    -1.5736770     1.0454250
  H       -3.7361930    -1.0182010    -0.5444970
units angstrom
no_reorient  #important for SAPT in psi4, default
symmetry c1  #important for SAPT in psi4, default
}

set PROPERTIES_ORIGIN ["COM"]
properties('MP2/aug-cc-pvtz', properties = ['dipole'])
--------------------------------------------------------------------------

    Molecular point group: c1
  Charge       = 0
  Multiplicity = 1
  Basis Set: AUG-CC-PVTZ
    Blend: AUG-CC-PVTZ
  Basis Set: (AUG-CC-PVTZ AUX)
    Blend: AUG-CC-PVTZ-JKFIT

    Orbital Energies [Eh]
    ---------------------

    Doubly Occupied:

       1A    -20.603336     2A    -20.603282     3A    -15.853415
       4A    -11.311553     5A    -11.272273     6A    -11.272013
       7A    -11.270419     8A    -11.268487     9A    -11.265347
      10A    -11.245602    11A     -1.586655    12A     -1.385181
      13A     -1.198665    14A     -1.102088    15A     -1.066430
      16A     -0.968761    17A     -0.955316    18A     -0.848420
      19A     -0.817245    20A     -0.762505    21A     -0.722429
      22A     -0.707212    23A     -0.702809    24A     -0.664980
      25A     -0.636228    26A     -0.605907    27A     -0.596239
      28A     -0.562745    29A     -0.542702    30A     -0.522851
      31A     -0.520205    32A     -0.493496    33A     -0.491730
      34A     -0.451289    35A     -0.373868    36A     -0.355843

  @DF-RHF Final Energy:  -473.37231364297321

   => Energetics <=

    Nuclear Repulsion Energy =            493.8812814147324275
    One-Electron Energy =               -1623.2921343378154688
    Two-Electron Energy =                 656.0385392801098305
    Total Energy =                       -473.3723136429731539
  Basis Set: (AUG-CC-PVTZ AUX)
    Blend: AUG-CC-PVTZ-RI
    Molecular point group: c1

    Geometry (in Angstrom), charge = 0, multiplicity = 1:

       Center              X                  Y                   Z               Mass
    ------------   -----------------  -----------------  -----------------  -----------------
         O            2.808110872753     0.497746825699     0.018797878289    15.994914619570
         O            2.101516872753    -1.586017174301    -0.015148121711    15.994914619570
         N            1.907472872753    -0.358490174301     0.001208878289    14.003074004430
         C           -1.836954127247    -0.393834174301    -0.012996121711    12.000000000000
         C           -0.507908127247    -0.829487174301    -0.006480121711    12.000000000000
         C            0.514860872753     0.114844825699     0.000382878289    12.000000000000
         C           -2.094892127247     0.984400825699    -0.009350121711    12.000000000000
         C            0.276892872753     1.486396825699     0.003413878289    12.000000000000
         C           -1.051139127247     1.911505825699    -0.002983121711    12.000000000000
         C           -2.951236327247    -1.376711774301     0.016970578289    12.000000000000
         H           -0.260034127247    -1.886327174301    -0.012405121711     1.007825032230
         H           -3.125500127247     1.334773825699    -0.018513121711     1.007825032230
         H            1.106686872753     2.183918825699     0.005586878289     1.007825032230
         H           -1.271776127247     2.975887825699    -0.004725121711     1.007825032230
         H           -2.658507127247    -2.345476174301    -0.414965121711     1.007825032230
         H           -3.292443127247    -1.577125174301     1.045849878289     1.007825032230
         H           -3.829160127247    -1.021649174301    -0.544072121711     1.007825032230

  Basis Set: AUG-CC-PVTZ
    Blend: AUG-CC-PVTZ
  Basis Set: (AUG-CC-PVTZ AUX)
    Blend: AUG-CC-PVTZ-JKFIT
	 Reference Energy          =    -473.3723136429732108 [Eh]
	 Singles Energy            =      -0.0000000000000000 [Eh]
	 Same-Spin Energy          =      -0.5031440903789426 [Eh]
	 Opposite-Spin Energy      =      -1.5162156460057830 [Eh]
	 Correlation Energy        =      -2.0193597363847253 [Eh]
	 Total Energy              =    -475.3916733793579397 [Eh]

	 ================> DF-SCS-MP2 Energies <==================
	-----------------------------------------------------------
	 SCS Same-Spin Scale       =       0.3333333333333333 [-]
	 SCS Opposite-Spin Scale   =       1.2000000000000000 [-]
	 SCS Same-Spin Energy      =      -0.1677146967929808 [Eh]
	 SCS Opposite-Spin Energy  =      -1.8194587752069395 [Eh]
	 SCS Correlation Energy    =      -1.9871734719999203 [Eh]
	 SCS Total Energy          =    -475.3594871149731489 [Eh]
	-----------------------------------------------------------

  Dipole Moment: [D]
     X:    -4.5702      Y:     1.0537      Z:     0.0357     Total:     4.6902

*** Psi4 exiting successfully. Buy a developer a beer!
