                               Psi4 1.3.2 release

  ==> Input File <==

--------------------------------------------------------------------------
#psi4
#
memory 32 gb

molecule  {
0 1
  O        2.9010970     0.5011680     0.0190930
  O        2.1944780    -1.5825590    -0.0163220
  N        2.0004500    -0.3550410     0.0008100
  C       -1.7596694    -0.3726144    -0.0019423
  C       -0.4149300    -0.8260450    -0.0068870
  C        0.6078150     0.1183000     0.0001420
  C       -2.0019240     0.9878430    -0.0100420
  C        0.3698690     1.4898440     0.0027510
  C       -0.9581620     1.9149690    -0.0035660
  C       -2.8732770    -1.3864780     0.0172390
  H       -0.1671010    -1.8828910    -0.0126110
  H       -3.0325270     1.3382360    -0.0191480
  H        1.1996340     2.1873950     0.0050900
  H       -1.1788320     2.9793390    -0.0057220
  H       -2.5659080    -2.3418330    -0.4157720
  H       -3.1988470    -1.5742060     1.0458220
  H       -3.7365580    -1.0178890    -0.5434620
units angstrom
no_reorient  #important for SAPT in psi4, default
symmetry c1  #important for SAPT in psi4, default
}

set PROPERTIES_ORIGIN ["COM"]
properties('MP2/aug-cc-pvtz', properties = ['dipole'])
--------------------------------------------------------------------------

    Molecular point group: c1
  Charge       = 0
  Multiplicity = 1
  Basis Set: AUG-CC-PVTZ
    Blend: AUG-CC-PVTZ
  Basis Set: (AUG-CC-PVTZ AUX)
    Blend: AUG-CC-PVTZ-JKFIT

    Orbital Energies [Eh]
    ---------------------

    Doubly Occupied:

       1A    -20.603698     2A    -20.603318     3A    -15.853481
       4A    -11.311593     5A    -11.273834     6A    -11.272666
       7A    -11.271031     8A    -11.266081     9A    -11.264865
      10A    -11.245174    11A     -1.586802    12A     -1.385337
      13A     -1.197917    14A     -1.102246    15A     -1.063937
      16A     -0.967390    17A     -0.956726    18A     -0.850828
      19A     -0.815774    20A     -0.761352    21A     -0.722607
      22A     -0.707293    23A     -0.702748    24A     -0.664526
      25A     -0.636226    26A     -0.602512    27A     -0.598255
      28A     -0.565306    29A     -0.540249    30A     -0.524099
      31A     -0.521128    32A     -0.493081    33A     -0.491754
      34A     -0.451394    35A     -0.375303    36A     -0.354837

  @DF-RHF Final Energy:  -473.37228913359439

   => Energetics <=

    Nuclear Repulsion Energy =            493.4728748321891771
    One-Electron Energy =               -1622.4795863537624427
    Two-Electron Energy =                 655.6344223879789297
    Total Energy =                       -473.3722891335944496
  Basis Set: (AUG-CC-PVTZ AUX)
    Blend: AUG-CC-PVTZ-RI
    Molecular point group: c1

    Geometry (in Angstrom), charge = 0, multiplicity = 1:

       Center              X                  Y                   Z               Mass
    ------------   -----------------  -----------------  -----------------  -----------------
         O            2.810814302061     0.497321806730     0.018490130309    15.994914619570
         O            2.104195302061    -1.586405193270    -0.016924869691    15.994914619570
         N            1.910167302061    -0.358887193270     0.000207130309    14.003074004430
         C           -1.849952097939    -0.376460593270    -0.002545169691    12.000000000000
         C           -0.505212697939    -0.829891193270    -0.007489869691    12.000000000000
         C            0.517532302061     0.114453806730    -0.000460869691    12.000000000000
         C           -2.092206697939     0.983996806730    -0.010644869691    12.000000000000
         C            0.279586302061     1.485997806730     0.002148130309    12.000000000000
         C           -1.048444697939     1.911122806730    -0.004168869691    12.000000000000
         C           -2.963559697939    -1.390324193270     0.016636130309    12.000000000000
         H           -0.257383697939    -1.886737193270    -0.013213869691     1.007825032230
         H           -3.122809697939     1.334389806730    -0.019750869691     1.007825032230
         H            1.109351302061     2.183548806730     0.004487130309     1.007825032230
         H           -1.269114697939     2.975492806730    -0.006324869691     1.007825032230
         H           -2.656190697939    -2.345679193270    -0.416374869691     1.007825032230
         H           -3.289129697939    -1.578052193270     1.045219130309     1.007825032230
         H           -3.826840697939    -1.021735193270    -0.544064869691     1.007825032230

  Basis Set: AUG-CC-PVTZ
    Blend: AUG-CC-PVTZ
  Basis Set: (AUG-CC-PVTZ AUX)
    Blend: AUG-CC-PVTZ-JKFIT
	 Reference Energy          =    -473.3722891335943928 [Eh]
	 Singles Energy            =      -0.0000000000000000 [Eh]
	 Same-Spin Energy          =      -0.5029535638791685 [Eh]
	 Opposite-Spin Energy      =      -1.5160859634715542 [Eh]
	 Correlation Energy        =      -2.0190395273507225 [Eh]
	 Total Energy              =    -475.3913286609451347 [Eh]

	 ================> DF-SCS-MP2 Energies <==================
	-----------------------------------------------------------
	 SCS Same-Spin Scale       =       0.3333333333333333 [-]
	 SCS Opposite-Spin Scale   =       1.2000000000000000 [-]
	 SCS Same-Spin Energy      =      -0.1676511879597228 [Eh]
	 SCS Opposite-Spin Energy  =      -1.8193031561658650 [Eh]
	 SCS Correlation Energy    =      -1.9869543441255879 [Eh]
	 SCS Total Energy          =    -475.3592434777199855 [Eh]
	-----------------------------------------------------------

  Dipole Moment: [D]
     X:    -4.5617      Y:     1.0458      Z:     0.0308     Total:     4.6801

*** Psi4 exiting successfully. Buy a developer a beer!
