                               Psi4 1.3.2 release

  ==> Input File <==

--------------------------------------------------------------------------
#psi4
#
memory 32 gb

molecule  {
0 1
  O        2.9010970     0.5011680     0.0190930
  O        2.1944780    -1.5825590    -0.0163220
  N        1.9830827    -0.4033542     0.0005273
  C       -1.7439920    -0.3903900    -0.0133100
  C       -0.4149300    -0.8260450    -0.0068870
  C        0.6078150     0.1183000     0.0001420
  C       -2.0019240     0.9878430    -0.0100420
  C        0.3698690     1.4898440     0.0027510
  C       -0.9581620     1.9149690    -0.0035660
  C       -2.8732770    -1.3864780     0.0172390
  H       -0.1671010    -1.8828910    -0.0126110
  H       -3.0325270     1.3382360    -0.0191480
  H        1.1996340     2.1873950     0.0050900
  H       -1.1788320     2.9793390    -0.0057220
  H       -2.5659080    -2.3418330    -0.4157720
  H       -3.1988470    -1.5742060     1.0458220
  H       -3.7365580    -1.0178890    -0.5434620
units angstrom
no_reorient  #important for SAPT in psi4, default
symmetry c1  #important for SAPT in psi4, default
}

set PROPERTIES_ORIGIN ["COM"]
properties('MP2/aug-cc-pvtz', properties = ['dipole'])
--------------------------------------------------------------------------

    Molecular point group: c1
  Charge       = 0
  Multiplicity = 1
  Basis Set: AUG-CC-PVTZ
    Blend: AUG-CC-PVTZ
  Basis Set: (AUG-CC-PVTZ AUX)
    Blend: AUG-CC-PVTZ-JKFIT

    Orbital Energies [Eh]
    ---------------------

    Doubly Occupied:

       1A    -20.622115     2A    -20.584058     3A    -15.852419
       4A    -11.311490     5A    -11.273059     6A    -11.272071
       7A    -11.270461     8A    -11.268527     9A    -11.265266
      10A    -11.245325    11A     -1.598488    12A     -1.375634
      13A     -1.198138    14A     -1.100225    15A     -1.066551
      16A     -0.967408    17A     -0.956562    18A     -0.849140
      19A     -0.819282    20A     -0.763383    21A     -0.723795
      22A     -0.710707    23A     -0.702884    24A     -0.664772
      25A     -0.636060    26A     -0.602550    27A     -0.598222
      28A     -0.566142    29A     -0.543761    30A     -0.521876
      31A     -0.521258    32A     -0.495788    33A     -0.482797
      34A     -0.449355    35A     -0.374237    36A     -0.356032

  @DF-RHF Final Energy:  -473.36942084094426

   => Energetics <=

    Nuclear Repulsion Energy =            493.6128842342309895
    One-Electron Energy =               -1622.7449313027273092
    Two-Electron Energy =                 655.7626262275521185
    Total Energy =                       -473.3694208409442581
  Basis Set: (AUG-CC-PVTZ AUX)
    Blend: AUG-CC-PVTZ-RI
    Molecular point group: c1

    Geometry (in Angstrom), charge = 0, multiplicity = 1:

       Center              X                  Y                   Z               Mass
    ------------   -----------------  -----------------  -----------------  -----------------
         O            2.811216109577     0.503814733316     0.019514380194    15.994914619570
         O            2.104597109577    -1.579912266684    -0.015900619806    15.994914619570
         N            1.893201809577    -0.400707466684     0.000948680194    14.003074004430
         C           -1.833872890423    -0.387743266684    -0.012888619806    12.000000000000
         C           -0.504810890423    -0.823398266684    -0.006465619806    12.000000000000
         C            0.517934109577     0.120946733316     0.000563380194    12.000000000000
         C           -2.091804890423     0.990489733316    -0.009620619806    12.000000000000
         C            0.279988109577     1.492490733316     0.003172380194    12.000000000000
         C           -1.048042890423     1.917615733316    -0.003144619806    12.000000000000
         C           -2.963157890423    -1.383831266684     0.017660380194    12.000000000000
         H           -0.256981890423    -1.880244266684    -0.012189619806     1.007825032230
         H           -3.122407890423     1.340882733316    -0.018726619806     1.007825032230
         H            1.109753109577     2.190041733316     0.005511380194     1.007825032230
         H           -1.268712890423     2.981985733316    -0.005300619806     1.007825032230
         H           -2.655788890423    -2.339186266684    -0.415350619806     1.007825032230
         H           -3.288727890423    -1.571559266684     1.046243380194     1.007825032230
         H           -3.826438890423    -1.015242266684    -0.543040619806     1.007825032230

  Basis Set: AUG-CC-PVTZ
    Blend: AUG-CC-PVTZ
  Basis Set: (AUG-CC-PVTZ AUX)
    Blend: AUG-CC-PVTZ-JKFIT
	 Reference Energy          =    -473.3694208409442581 [Eh]
	 Singles Energy            =      -0.0000000000000000 [Eh]
	 Same-Spin Energy          =      -0.5025811053465833 [Eh]
	 Opposite-Spin Energy      =      -1.5152742198542000 [Eh]
	 Correlation Energy        =      -2.0178553252007831 [Eh]
	 Total Energy              =    -475.3872761661450568 [Eh]

	 ================> DF-SCS-MP2 Energies <==================
	-----------------------------------------------------------
	 SCS Same-Spin Scale       =       0.3333333333333333 [-]
	 SCS Opposite-Spin Scale   =       1.2000000000000000 [-]
	 SCS Same-Spin Energy      =      -0.1675270351155277 [Eh]
	 SCS Opposite-Spin Energy  =      -1.8183290638250398 [Eh]
	 SCS Correlation Energy    =      -1.9858560989405676 [Eh]
	 SCS Total Energy          =    -475.3552769398848454 [Eh]
	-----------------------------------------------------------

  Dipole Moment: [D]
     X:    -4.6732      Y:     0.8249      Z:     0.0306     Total:     4.7455

*** Psi4 exiting successfully. Buy a developer a beer!
