                               Psi4 1.3.2 release

  ==> Input File <==

--------------------------------------------------------------------------
#psi4
#
memory 32 gb

molecule  {
0 1
  O        2.9010970     0.5011680     0.0190930
  O        2.1944780    -1.5825590    -0.0163220
  N        2.0161206    -0.3061511     0.0010919
  C       -1.7439920    -0.3903900    -0.0133100
  C       -0.4149300    -0.8260450    -0.0068870
  C        0.6078150     0.1183000     0.0001420
  C       -2.0019240     0.9878430    -0.0100420
  C        0.3698690     1.4898440     0.0027510
  C       -0.9581620     1.9149690    -0.0035660
  C       -2.8732770    -1.3864780     0.0172390
  H       -0.1671010    -1.8828910    -0.0126110
  H       -3.0325270     1.3382360    -0.0191480
  H        1.1996340     2.1873950     0.0050900
  H       -1.1788320     2.9793390    -0.0057220
  H       -2.5659080    -2.3418330    -0.4157720
  H       -3.1988470    -1.5742060     1.0458220
  H       -3.7365580    -1.0178890    -0.5434620
units angstrom
no_reorient  #important for SAPT in psi4, default
symmetry c1  #important for SAPT in psi4, default
}

set PROPERTIES_ORIGIN ["COM"]
properties('MP2/aug-cc-pvtz', properties = ['dipole'])
--------------------------------------------------------------------------

    Molecular point group: c1
  Charge       = 0
  Multiplicity = 1
  Basis Set: AUG-CC-PVTZ
    Blend: AUG-CC-PVTZ
  Basis Set: (AUG-CC-PVTZ AUX)
    Blend: AUG-CC-PVTZ-JKFIT

    Orbital Energies [Eh]
    ---------------------

    Doubly Occupied:

       1A    -20.622112     2A    -20.584020     3A    -15.852395
       4A    -11.311445     5A    -11.272956     6A    -11.271880
       7A    -11.270504     8A    -11.268519     9A    -11.265291
      10A    -11.244739    11A     -1.598482    12A     -1.375664
      13A     -1.197991    14A     -1.101329    15A     -1.064424
      16A     -0.970358    17A     -0.954462    18A     -0.847888
      19A     -0.818977    20A     -0.764906    21A     -0.723272
      22A     -0.710671    23A     -0.703488    24A     -0.664173
      25A     -0.634574    26A     -0.604111    27A     -0.597682
      28A     -0.564631    29A     -0.544177    30A     -0.521773
      31A     -0.521017    32A     -0.495000    33A     -0.483360
      34A     -0.449560    35A     -0.373347    36A     -0.356648

  @DF-RHF Final Energy:  -473.36948049710486

   => Energetics <=

    Nuclear Repulsion Energy =            493.5511532111134443
    One-Electron Energy =               -1622.6296113493656321
    Two-Electron Energy =                 655.7089776411473849
    Total Energy =                       -473.3694804971048598
  Basis Set: (AUG-CC-PVTZ AUX)
    Blend: AUG-CC-PVTZ-RI
    Molecular point group: c1

    Geometry (in Angstrom), charge = 0, multiplicity = 1:

       Center              X                  Y                   Z               Mass
    ------------   -----------------  -----------------  -----------------  -----------------
         O            2.807840407311     0.493882845246     0.019456691252    15.994914619570
         O            2.101221407311    -1.589844154754    -0.015958308748    15.994914619570
         N            1.922864007311    -0.313436254754     0.001455591252    14.003074004430
         C           -1.837248592689    -0.397675154754    -0.012946308748    12.000000000000
         C           -0.508186592689    -0.833330154754    -0.006523308748    12.000000000000
         C            0.514558407311     0.111014845246     0.000505691252    12.000000000000
         C           -2.095180592689     0.980557845246    -0.009678308748    12.000000000000
         C            0.276612407311     1.482558845246     0.003114691252    12.000000000000
         C           -1.051418592689     1.907683845246    -0.003202308748    12.000000000000
         C           -2.966533592689    -1.393763154754     0.017602691252    12.000000000000
         H           -0.260357592689    -1.890176154754    -0.012247308748     1.007825032230
         H           -3.125783592689     1.330950845246    -0.018784308748     1.007825032230
         H            1.106377407311     2.180109845246     0.005453691252     1.007825032230
         H           -1.272088592689     2.972053845246    -0.005358308748     1.007825032230
         H           -2.659164592689    -2.349118154754    -0.415408308748     1.007825032230
         H           -3.292103592689    -1.581491154754     1.046185691252     1.007825032230
         H           -3.829814592689    -1.025174154754    -0.543098308748     1.007825032230

  Basis Set: AUG-CC-PVTZ
    Blend: AUG-CC-PVTZ
  Basis Set: (AUG-CC-PVTZ AUX)
    Blend: AUG-CC-PVTZ-JKFIT
	 Reference Energy          =    -473.3694804971048598 [Eh]
	 Singles Energy            =      -0.0000000000000000 [Eh]
	 Same-Spin Energy          =      -0.5025680987119699 [Eh]
	 Opposite-Spin Energy      =      -1.5152455693670215 [Eh]
	 Correlation Energy        =      -2.0178136680789915 [Eh]
	 Total Energy              =    -475.3872941651838460 [Eh]

	 ================> DF-SCS-MP2 Energies <==================
	-----------------------------------------------------------
	 SCS Same-Spin Scale       =       0.3333333333333333 [-]
	 SCS Opposite-Spin Scale   =       1.2000000000000000 [-]
	 SCS Same-Spin Energy      =      -0.1675226995706566 [Eh]
	 SCS Opposite-Spin Energy  =      -1.8182946832404256 [Eh]
	 SCS Correlation Energy    =      -1.9858173828110823 [Eh]
	 SCS Total Energy          =    -475.3552978799159519 [Eh]
	-----------------------------------------------------------

  Dipole Moment: [D]
     X:    -4.5123      Y:     1.3033      Z:     0.0389     Total:     4.6969

*** Psi4 exiting successfully. Buy a developer a beer!
