                               Psi4 1.3.2 release

  ==> Input File <==

--------------------------------------------------------------------------
#psi4
#
memory 32 gb

molecule  {
0 1
  O        2.9010970     0.5011680     0.0190930
  O        2.1944780    -1.5825590    -0.0163220
  N        2.0004500    -0.3550410     0.0008100
  C       -1.7439920    -0.3903900    -0.0133100
  C       -0.4149300    -0.8260450    -0.0068870
  C        0.7024955     0.0861192     0.0001874
  C       -2.0019240     0.9878430    -0.0100420
  C        0.3698690     1.4898440     0.0027510
  C       -0.9581620     1.9149690    -0.0035660
  C       -2.8732770    -1.3864780     0.0172390
  H       -0.1671010    -1.8828910    -0.0126110
  H       -3.0325270     1.3382360    -0.0191480
  H        1.1996340     2.1873950     0.0050900
  H       -1.1788320     2.9793390    -0.0057220
  H       -2.5659080    -2.3418330    -0.4157720
  H       -3.1988470    -1.5742060     1.0458220
  H       -3.7365580    -1.0178890    -0.5434620
units angstrom
no_reorient  #important for SAPT in psi4, default
symmetry c1  #important for SAPT in psi4, default
}

set PROPERTIES_ORIGIN ["COM"]
properties('MP2/aug-cc-pvtz', properties = ['dipole'])
--------------------------------------------------------------------------

    Molecular point group: c1
  Charge       = 0
  Multiplicity = 1
  Basis Set: AUG-CC-PVTZ
    Blend: AUG-CC-PVTZ
  Basis Set: (AUG-CC-PVTZ AUX)
    Blend: AUG-CC-PVTZ-JKFIT

    Orbital Energies [Eh]
    ---------------------

    Doubly Occupied:

       1A    -20.598672     2A    -20.598624     3A    -15.852120
       4A    -11.309919     5A    -11.281850     6A    -11.280144
       7A    -11.276066     8A    -11.273010     9A    -11.266007
      10A    -11.246198    11A     -1.593300    12A     -1.385242
      13A     -1.193746    14A     -1.117982    15A     -1.065912
      16A     -0.974925    17A     -0.957486    18A     -0.845254
      19A     -0.816495    20A     -0.762149    21A     -0.724667
      22A     -0.715994    23A     -0.707930    24A     -0.658513
      25A     -0.635178    26A     -0.598836    27A     -0.595990
      28A     -0.564498    29A     -0.545290    30A     -0.512985
      31A     -0.512495    32A     -0.502210    33A     -0.489283
      34A     -0.450712    35A     -0.370129    36A     -0.355788

  @DF-RHF Final Energy:  -473.36133537889657

   => Energetics <=

    Nuclear Repulsion Energy =            493.5503441480411198
    One-Electron Energy =               -1622.5521497020147308
    Two-Electron Energy =                 655.6404701750769846
    Total Energy =                       -473.3613353788965696
  Basis Set: (AUG-CC-PVTZ AUX)
    Blend: AUG-CC-PVTZ-RI
    Molecular point group: c1

    Geometry (in Angstrom), charge = 0, multiplicity = 1:

       Center              X                  Y                   Z               Mass
    ------------   -----------------  -----------------  -----------------  -----------------
         O            2.801151279566     0.501696027488     0.019481519594    15.994914619570
         O            2.094532279566    -1.582030972512    -0.015933480406    15.994914619570
         N            1.900504279566    -0.354512972512     0.001198519594    14.003074004430
         C           -1.843937720434    -0.389861972512    -0.012921480406    12.000000000000
         C           -0.514875720434    -0.825516972512    -0.006498480406    12.000000000000
         C            0.602549779566     0.086647227488     0.000575919594    12.000000000000
         C           -2.101869720434     0.988371027488    -0.009653480406    12.000000000000
         C            0.269923279566     1.490372027488     0.003139519594    12.000000000000
         C           -1.058107720434     1.915497027488    -0.003177480406    12.000000000000
         C           -2.973222720434    -1.385949972512     0.017627519594    12.000000000000
         H           -0.267046720434    -1.882362972512    -0.012222480406     1.007825032230
         H           -3.132472720434     1.338764027488    -0.018759480406     1.007825032230
         H            1.099688279566     2.187923027488     0.005478519594     1.007825032230
         H           -1.278777720434     2.979867027488    -0.005333480406     1.007825032230
         H           -2.665853720434    -2.341304972512    -0.415383480406     1.007825032230
         H           -3.298792720434    -1.573677972512     1.046210519594     1.007825032230
         H           -3.836503720434    -1.017360972512    -0.543073480406     1.007825032230

  Basis Set: AUG-CC-PVTZ
    Blend: AUG-CC-PVTZ
  Basis Set: (AUG-CC-PVTZ AUX)
    Blend: AUG-CC-PVTZ-JKFIT
	 Reference Energy          =    -473.3613353788965696 [Eh]
	 Singles Energy            =      -0.0000000000000000 [Eh]
	 Same-Spin Energy          =      -0.5033313379825856 [Eh]
	 Opposite-Spin Energy      =      -1.5165355922165342 [Eh]
	 Correlation Energy        =      -2.0198669301991199 [Eh]
	 Total Energy              =    -475.3812023090956700 [Eh]

	 ================> DF-SCS-MP2 Energies <==================
	-----------------------------------------------------------
	 SCS Same-Spin Scale       =       0.3333333333333333 [-]
	 SCS Opposite-Spin Scale   =       1.2000000000000000 [-]
	 SCS Same-Spin Energy      =      -0.1677771126608618 [Eh]
	 SCS Opposite-Spin Energy  =      -1.8198427106598409 [Eh]
	 SCS Correlation Energy    =      -1.9876198233207027 [Eh]
	 SCS Total Energy          =    -475.3489552022172688 [Eh]
	-----------------------------------------------------------

  Dipole Moment: [D]
     X:    -4.7193      Y:     1.0931      Z:     0.0338     Total:     4.8443

*** Psi4 exiting successfully. Buy a developer a beer!
