                               Psi4 1.3.2 release

  ==> Input File <==

--------------------------------------------------------------------------
#psi4
#
memory 32 gb

molecule  {
0 1
  O        2.9010970     0.5011680     0.0190930
  O        2.1944780    -1.5825590    -0.0163220
  N        2.0004500    -0.3550410     0.0008100
  C       -1.7439920    -0.3903900    -0.0133100
  C       -0.4149300    -0.8260450    -0.0068870
  C        0.6078150     0.1183000     0.0001420
  C       -2.0019240     0.9878430    -0.0100420
  C        0.3698690     1.4898440     0.0027510
  C       -0.9581620     1.9149690    -0.0035660
  C       -2.7982974    -1.3203421     0.0152107
  H       -0.1671010    -1.8828910    -0.0126110
  H       -3.0325270     1.3382360    -0.0191480
  H        1.1996340     2.1873950     0.0050900
  H       -1.1788320     2.9793390    -0.0057220
  H       -2.5659080    -2.3418330    -0.4157720
  H       -3.1988470    -1.5742060     1.0458220
  H       -3.7365580    -1.0178890    -0.5434620
units angstrom
no_reorient  #important for SAPT in psi4, default
symmetry c1  #important for SAPT in psi4, default
}

set PROPERTIES_ORIGIN ["COM"]
properties('MP2/aug-cc-pvtz', properties = ['dipole'])
--------------------------------------------------------------------------

    Molecular point group: c1
  Charge       = 0
  Multiplicity = 1
  Basis Set: AUG-CC-PVTZ
    Blend: AUG-CC-PVTZ
  Basis Set: (AUG-CC-PVTZ AUX)
    Blend: AUG-CC-PVTZ-JKFIT

    Orbital Energies [Eh]
    ---------------------

    Doubly Occupied:

       1A    -20.603584     2A    -20.603531     3A    -15.853651
       4A    -11.311860     5A    -11.272297     6A    -11.270961
       7A    -11.269031     8A    -11.267601     9A    -11.265627
      10A    -11.248973    11A     -1.586893    12A     -1.385416
      13A     -1.201400    14A     -1.109554    15A     -1.070086
      16A     -0.969184    17A     -0.955072    18A     -0.848550
      19A     -0.816898    20A     -0.763480    21A     -0.723100
      22A     -0.707455    23A     -0.703213    24A     -0.667035
      25A     -0.641888    26A     -0.616060    27A     -0.591006
      28A     -0.557725    29A     -0.541110    30A     -0.522121
      31A     -0.515106    32A     -0.493623    33A     -0.491450
      34A     -0.451475    35A     -0.374136    36A     -0.353036

  @DF-RHF Final Energy:  -473.36049271605134

   => Energetics <=

    Nuclear Repulsion Energy =            495.3210949140441812
    One-Electron Energy =               -1626.1167985965644220
    Two-Electron Energy =                 657.4352109664689578
    Total Energy =                       -473.3604927160513398
  Basis Set: (AUG-CC-PVTZ AUX)
    Blend: AUG-CC-PVTZ-RI
    Molecular point group: c1

    Geometry (in Angstrom), charge = 0, multiplicity = 1:

       Center              X                  Y                   Z               Mass
    ------------   -----------------  -----------------  -----------------  -----------------
         O            2.802876305503     0.493087341714     0.019663094359    15.994914619570
         O            2.096257305503    -1.590639658286    -0.015751905641    15.994914619570
         N            1.902229305503    -0.363121658286     0.001380094359    14.003074004430
         C           -1.842212694497    -0.398470658286    -0.012739905641    12.000000000000
         C           -0.513150694497    -0.834125658286    -0.006316905641    12.000000000000
         C            0.509594305503     0.110219341714     0.000712094359    12.000000000000
         C           -2.100144694497     0.979762341714    -0.009471905641    12.000000000000
         C            0.271648305503     1.481763341714     0.003321094359    12.000000000000
         C           -1.056382694497     1.906888341714    -0.002995905641    12.000000000000
         C           -2.896518094497    -1.328422758286     0.015780794359    12.000000000000
         H           -0.265321694497    -1.890971658286    -0.012040905641     1.007825032230
         H           -3.130747694497     1.330155341714    -0.018577905641     1.007825032230
         H            1.101413305503     2.179314341714     0.005660094359     1.007825032230
         H           -1.277052694497     2.971258341714    -0.005151905641     1.007825032230
         H           -2.664128694497    -2.349913658286    -0.415201905641     1.007825032230
         H           -3.297067694497    -1.582286658286     1.046392094359     1.007825032230
         H           -3.834778694497    -1.025969658286    -0.542891905641     1.007825032230

  Basis Set: AUG-CC-PVTZ
    Blend: AUG-CC-PVTZ
  Basis Set: (AUG-CC-PVTZ AUX)
    Blend: AUG-CC-PVTZ-JKFIT
	 Reference Energy          =    -473.3604927160513398 [Eh]
	 Singles Energy            =      -0.0000000000000000 [Eh]
	 Same-Spin Energy          =      -0.5042460186520022 [Eh]
	 Opposite-Spin Energy      =      -1.5175536068415101 [Eh]
	 Correlation Energy        =      -2.0217996254935122 [Eh]
	 Total Energy              =    -475.3822923415448258 [Eh]

	 ================> DF-SCS-MP2 Energies <==================
	-----------------------------------------------------------
	 SCS Same-Spin Scale       =       0.3333333333333333 [-]
	 SCS Opposite-Spin Scale   =       1.2000000000000000 [-]
	 SCS Same-Spin Energy      =      -0.1680820062173341 [Eh]
	 SCS Opposite-Spin Energy  =      -1.8210643282098120 [Eh]
	 SCS Correlation Energy    =      -1.9891463344271461 [Eh]
	 SCS Total Energy          =    -475.3496390504784586 [Eh]
	-----------------------------------------------------------

  Dipole Moment: [D]
     X:    -4.5783      Y:     1.0440      Z:     0.0415     Total:     4.6960

*** Psi4 exiting successfully. Buy a developer a beer!
