                               Psi4 1.4a3.dev225

  ==> Input File <==

--------------------------------------------------------------------------
#psi4
#
memory 32 gb

molecule  {
0 1
  O        2.9010780     0.5011950     0.0183730
  O        2.1944840    -1.5825690    -0.0155730
  N        2.0004400    -0.3550420     0.0007840
  C       -1.7439870    -0.3903860    -0.0134210
  C       -0.4149410    -0.8260390    -0.0069050
  C        0.5604878     0.1343835    -0.0000701
  C       -2.0019250     0.9878490    -0.0097750
  C        0.3698600     1.4898450     0.0029890
  C       -0.9581720     1.9149540    -0.0034080
  C       -2.8732650    -1.3864910     0.0169490
  H       -0.1670670    -1.8828790    -0.0128300
  H       -3.0325330     1.3382220    -0.0189380
  H        1.1996540     2.1873670     0.0051620
  H       -1.1788090     2.9793360    -0.0051500
  H       -2.5655400    -2.3420280    -0.4153900
  H       -3.1994760    -1.5736770     1.0454250
  H       -3.7361930    -1.0182010    -0.5444970
units angstrom
no_reorient  #important for SAPT in psi4, default
symmetry c1  #important for SAPT in psi4, default
}

set PROPERTIES_ORIGIN ["COM"]
properties('MP2/aug-cc-pvtz', properties = ['dipole'])
--------------------------------------------------------------------------

    Molecular point group: c1
  Charge       = 0
  Multiplicity = 1
  Basis Set: AUG-CC-PVTZ
    Blend: AUG-CC-PVTZ
  Basis Set: (AUG-CC-PVTZ AUX)
    Blend: AUG-CC-PVTZ-JKFIT

    Orbital Energies [Eh]
    ---------------------

    Doubly Occupied:

       1A    -20.603293     2A    -20.603234     3A    -15.850757
       4A    -11.312347     5A    -11.273451     6A    -11.268299
       7A    -11.266954     8A    -11.266419     9A    -11.265248
      10A    -11.244955    11A     -1.582313    12A     -1.383307
      13A     -1.202302    14A     -1.095298    15A     -1.065813
      16A     -0.968345    17A     -0.950952    18A     -0.850296
      19A     -0.816765    20A     -0.762163    21A     -0.719995
      22A     -0.702055    23A     -0.700119    24A     -0.668452
      25A     -0.635825    26A     -0.607684    27A     -0.598509
      28A     -0.565979    29A     -0.543106    30A     -0.526346
      31A     -0.523994    32A     -0.491125    33A     -0.485671
      34A     -0.450263    35A     -0.375844    36A     -0.357428

  @DF-RHF Final Energy:  -473.37048460561601

   => Energetics <=

    Nuclear Repulsion Energy =            493.6048400752902126
    One-Electron Energy =               -1622.7808421510655990
    Two-Electron Energy =                 655.8055174701593160
    Total Energy =                       -473.3704846056160704
  Basis Set: (AUG-CC-PVTZ AUX)
    Blend: AUG-CC-PVTZ-RI
    Molecular point group: c1

    Geometry (in Angstrom), charge = 0, multiplicity = 1:

       Center              X                  Y                   Z               Mass
    ------------   -----------------  -----------------  -----------------  -----------------
         O            2.813569060796     0.497496130463     0.018765025489    15.994914619570
         O            2.106975060796    -1.586267869537    -0.015180974511    15.994914619570
         N            1.912931060796    -0.358740869537     0.001176025489    14.003074004430
         C           -1.831495939204    -0.394084869537    -0.013028974511    12.000000000000
         C           -0.502449939204    -0.829737869537    -0.006512974511    12.000000000000
         C            0.472978860796     0.130684630463     0.000321925489    12.000000000000
         C           -2.089433939204     0.984150130463    -0.009382974511    12.000000000000
         C            0.282351060796     1.486146130463     0.003381025489    12.000000000000
         C           -1.045680939204     1.911255130463    -0.003015974511    12.000000000000
         C           -2.960773939204    -1.390189869537     0.017341025489    12.000000000000
         H           -0.254575939204    -1.886577869537    -0.012437974511     1.007825032230
         H           -3.120041939204     1.334523130463    -0.018545974511     1.007825032230
         H            1.112145060796     2.183668130463     0.005554025489     1.007825032230
         H           -1.266317939204     2.975637130463    -0.004757974511     1.007825032230
         H           -2.653048939204    -2.345726869537    -0.414997974511     1.007825032230
         H           -3.286984939204    -1.577375869537     1.045817025489     1.007825032230
         H           -3.823701939204    -1.021899869537    -0.544104974511     1.007825032230

  Basis Set: AUG-CC-PVTZ
    Blend: AUG-CC-PVTZ
  Basis Set: (AUG-CC-PVTZ AUX)
    Blend: AUG-CC-PVTZ-JKFIT
	 Reference Energy          =    -473.3704846056160136 [Eh]
	 Singles Energy            =      -0.0000000000000000 [Eh]
	 Same-Spin Energy          =      -0.5030125097990272 [Eh]
	 Opposite-Spin Energy      =      -1.5161113226571747 [Eh]
	 Correlation Energy        =      -2.0191238324562022 [Eh]
	 Total Energy              =    -475.3896084380722300 [Eh]

	 ================> DF-SCS-MP2 Energies <==================
	-----------------------------------------------------------
	 SCS Same-Spin Scale       =       0.3333333333333333 [-]
	 SCS Opposite-Spin Scale   =       1.2000000000000000 [-]
	 SCS Same-Spin Energy      =      -0.1676708365996757 [Eh]
	 SCS Opposite-Spin Energy  =      -1.8193335871886096 [Eh]
	 SCS Correlation Energy    =      -1.9870044237882853 [Eh]
	 SCS Total Energy          =    -475.3574890294042916 [Eh]
	-----------------------------------------------------------

  Dipole Moment: [D]
     X:    -4.5349      Y:     1.0489      Z:     0.0351     Total:     4.6547

*** Psi4 exiting successfully. Buy a developer a beer!
