                               Psi4 1.3.2 release

  ==> Input File <==

--------------------------------------------------------------------------
#psi4
#
memory 32 gb

molecule  {
0 1
  O        2.9856783     0.4023349     0.0181352
  O        2.1944780    -1.5825590    -0.0163220
  N        2.0004500    -0.3550410     0.0008100
  C       -1.7439920    -0.3903900    -0.0133100
  C       -0.4149300    -0.8260450    -0.0068870
  C        0.6078150     0.1183000     0.0001420
  C       -2.0019240     0.9878430    -0.0100420
  C        0.3698690     1.4898440     0.0027510
  C       -0.9581620     1.9149690    -0.0035660
  C       -2.8732770    -1.3864780     0.0172390
  H       -0.1671010    -1.8828910    -0.0126110
  H       -3.0325270     1.3382360    -0.0191480
  H        1.1996340     2.1873950     0.0050900
  H       -1.1788320     2.9793390    -0.0057220
  H       -2.5659080    -2.3418330    -0.4157720
  H       -3.1988470    -1.5742060     1.0458220
  H       -3.7365580    -1.0178890    -0.5434620
units angstrom
no_reorient  #important for SAPT in psi4, default
symmetry c1  #important for SAPT in psi4, default
}

set PROPERTIES_ORIGIN ["COM"]
properties('MP2/aug-cc-pvtz', properties = ['dipole'])
--------------------------------------------------------------------------

    Molecular point group: c1
  Charge       = 0
  Multiplicity = 1
  Basis Set: AUG-CC-PVTZ
    Blend: AUG-CC-PVTZ
  Basis Set: (AUG-CC-PVTZ AUX)
    Blend: AUG-CC-PVTZ-JKFIT

    Orbital Energies [Eh]
    ---------------------

    Doubly Occupied:

       1A    -20.598012     2A    -20.594354     3A    -15.849683
       4A    -11.316659     5A    -11.275781     6A    -11.275531
       7A    -11.273475     8A    -11.271234     9A    -11.267889
      10A    -11.246633    11A     -1.586116    12A     -1.371011
      13A     -1.201820    14A     -1.105053    15A     -1.068086
      16A     -0.971764    17A     -0.957418    18A     -0.850229
      19A     -0.816026    20A     -0.761307    21A     -0.716789
      22A     -0.705774    23A     -0.704006    24A     -0.664971
      25A     -0.637613    26A     -0.605468    27A     -0.599600
      28A     -0.567181    29A     -0.546014    30A     -0.524026
      31A     -0.523074    32A     -0.497676    33A     -0.479397
      34A     -0.443026    35A     -0.376585    36A     -0.359099

  @DF-RHF Final Energy:  -473.37000150834717

   => Energetics <=

    Nuclear Repulsion Energy =            492.6930811197993876
    One-Electron Energy =               -1620.9094014022898591
    Two-Electron Energy =                 654.8463187741432421
    Total Energy =                       -473.3700015083471726
  Basis Set: (AUG-CC-PVTZ AUX)
    Blend: AUG-CC-PVTZ-RI
    Molecular point group: c1

    Geometry (in Angstrom), charge = 0, multiplicity = 1:

       Center              X                  Y                   Z               Mass
    ------------   -----------------  -----------------  -----------------  -----------------
         O            2.884151343938     0.411580020762     0.018639480250    15.994914619570
         O            2.092951043938    -1.573313879238    -0.015817719750    15.994914619570
         N            1.898923043938    -0.345795879238     0.001314280250    14.003074004430
         C           -1.845518956062    -0.381144879238    -0.012805719750    12.000000000000
         C           -0.516456956062    -0.816799879238    -0.006382719750    12.000000000000
         C            0.506288043938     0.127545120762     0.000646280250    12.000000000000
         C           -2.103450956062     0.997088120762    -0.009537719750    12.000000000000
         C            0.268342043938     1.499089120762     0.003255280250    12.000000000000
         C           -1.059688956062     1.924214120762    -0.003061719750    12.000000000000
         C           -2.974803956062    -1.377232879238     0.017743280250    12.000000000000
         H           -0.268627956062    -1.873645879238    -0.012106719750     1.007825032230
         H           -3.134053956062     1.347481120762    -0.018643719750     1.007825032230
         H            1.098107043938     2.196640120762     0.005594280250     1.007825032230
         H           -1.280358956062     2.988584120762    -0.005217719750     1.007825032230
         H           -2.667434956062    -2.332587879238    -0.415267719750     1.007825032230
         H           -3.300373956062    -1.564960879238     1.046326280250     1.007825032230
         H           -3.838084956062    -1.008643879238    -0.542957719750     1.007825032230

  Basis Set: AUG-CC-PVTZ
    Blend: AUG-CC-PVTZ
  Basis Set: (AUG-CC-PVTZ AUX)
    Blend: AUG-CC-PVTZ-JKFIT
	 Reference Energy          =    -473.3700015083471726 [Eh]
	 Singles Energy            =      -0.0000000000000000 [Eh]
	 Same-Spin Energy          =      -0.5025778133227420 [Eh]
	 Opposite-Spin Energy      =      -1.5156103031087853 [Eh]
	 Correlation Energy        =      -2.0181881164315274 [Eh]
	 Total Energy              =    -475.3881896247787040 [Eh]

	 ================> DF-SCS-MP2 Energies <==================
	-----------------------------------------------------------
	 SCS Same-Spin Scale       =       0.3333333333333333 [-]
	 SCS Opposite-Spin Scale   =       1.2000000000000000 [-]
	 SCS Same-Spin Energy      =      -0.1675259377742473 [Eh]
	 SCS Opposite-Spin Energy  =      -1.8187323637305424 [Eh]
	 SCS Correlation Energy    =      -1.9862583015047897 [Eh]
	 SCS Total Energy          =    -475.3562598098519629 [Eh]
	-----------------------------------------------------------

  Dipole Moment: [D]
     X:    -4.8835      Y:     1.2153      Z:     0.0356     Total:     5.0326

*** Psi4 exiting successfully. Buy a developer a beer!
