                               Psi4 1.3.2 release

  ==> Input File <==

--------------------------------------------------------------------------
#psi4
#
memory 32 gb

molecule  {
0 1
  O        2.9010970     0.5011680     0.0190930
  O        2.1944780    -1.5825590    -0.0163220
  N        2.0004500    -0.3550410     0.0008100
  C       -1.8087174    -0.3211618     0.0321822
  C       -0.4149300    -0.8260450    -0.0068870
  C        0.6078150     0.1183000     0.0001420
  C       -2.0019240     0.9878430    -0.0100420
  C        0.3698690     1.4898440     0.0027510
  C       -0.9581620     1.9149690    -0.0035660
  C       -2.8732770    -1.3864780     0.0172390
  H       -0.1671010    -1.8828910    -0.0126110
  H       -3.0325270     1.3382360    -0.0191480
  H        1.1996340     2.1873950     0.0050900
  H       -1.1788320     2.9793390    -0.0057220
  H       -2.5659080    -2.3418330    -0.4157720
  H       -3.1988470    -1.5742060     1.0458220
  H       -3.7365580    -1.0178890    -0.5434620
units angstrom
no_reorient  #important for SAPT in psi4, default
symmetry c1  #important for SAPT in psi4, default
}

set PROPERTIES_ORIGIN ["COM"]
properties('MP2/aug-cc-pvtz', properties = ['dipole'])
--------------------------------------------------------------------------

    Molecular point group: c1
  Charge       = 0
  Multiplicity = 1
  Basis Set: AUG-CC-PVTZ
    Blend: AUG-CC-PVTZ
  Basis Set: (AUG-CC-PVTZ AUX)
    Blend: AUG-CC-PVTZ-JKFIT

    Orbital Energies [Eh]
    ---------------------

    Doubly Occupied:

       1A    -20.604745     2A    -20.603337     3A    -15.853670
       4A    -11.311714     5A    -11.281312     6A    -11.273083
       7A    -11.268765     8A    -11.265204     9A    -11.256806
      10A    -11.245981    11A     -1.587212    12A     -1.385770
      13A     -1.197630    14A     -1.107704    15A     -1.059695
      16A     -0.963622    17A     -0.960645    18A     -0.857805
      19A     -0.811255    20A     -0.758514    21A     -0.723221
      22A     -0.707550    23A     -0.702778    24A     -0.663834
      25A     -0.639135    26A     -0.601267    27A     -0.599334
      28A     -0.565457    29A     -0.541088    30A     -0.522827
      31A     -0.519594    32A     -0.492924    33A     -0.489217
      34A     -0.451709    35A     -0.382402    36A     -0.349423

  @DF-RHF Final Energy:  -473.36156227811102

   => Energetics <=

    Nuclear Repulsion Energy =            493.2761532821594415
    One-Electron Energy =               -1622.0629795687279966
    Two-Electron Energy =                 655.4252640084575887
    Total Energy =                       -473.3615622781110233
  Basis Set: (AUG-CC-PVTZ AUX)
    Blend: AUG-CC-PVTZ-RI
    Molecular point group: c1

    Geometry (in Angstrom), charge = 0, multiplicity = 1:

       Center              X                  Y                   Z               Mass
    ------------   -----------------  -----------------  -----------------  -----------------
         O            2.815108982618     0.492816577551     0.015502162876    15.994914619570
         O            2.108489982618    -1.590910422449    -0.019912837124    15.994914619570
         N            1.914461982618    -0.363392422449    -0.002780837124    14.003074004430
         C           -1.894705417382    -0.329513222449     0.028591362876    12.000000000000
         C           -0.500918017382    -0.834396422449    -0.010477837124    12.000000000000
         C            0.521826982618     0.109948577551    -0.003448837124    12.000000000000
         C           -2.087912017382     0.979491577551    -0.013632837124    12.000000000000
         C            0.283880982618     1.481492577551    -0.000839837124    12.000000000000
         C           -1.044150017382     1.906617577551    -0.007156837124    12.000000000000
         C           -2.959265017382    -1.394829422449     0.013648162876    12.000000000000
         H           -0.253089017382    -1.891242422449    -0.016201837124     1.007825032230
         H           -3.118515017382     1.329884577551    -0.022738837124     1.007825032230
         H            1.113645982618     2.179043577551     0.001499162876     1.007825032230
         H           -1.264820017382     2.970987577551    -0.009312837124     1.007825032230
         H           -2.651896017382    -2.350184422449    -0.419362837124     1.007825032230
         H           -3.284835017382    -1.582557422449     1.042231162876     1.007825032230
         H           -3.822546017382    -1.026240422449    -0.547052837124     1.007825032230

  Basis Set: AUG-CC-PVTZ
    Blend: AUG-CC-PVTZ
  Basis Set: (AUG-CC-PVTZ AUX)
    Blend: AUG-CC-PVTZ-JKFIT
	 Reference Energy          =    -473.3615622781110233 [Eh]
	 Singles Energy            =      -0.0000000000000000 [Eh]
	 Same-Spin Energy          =      -0.5027202256051574 [Eh]
	 Opposite-Spin Energy      =      -1.5165521564926254 [Eh]
	 Correlation Energy        =      -2.0192723820977827 [Eh]
	 Total Energy              =    -475.3808346602087909 [Eh]

	 ================> DF-SCS-MP2 Energies <==================
	-----------------------------------------------------------
	 SCS Same-Spin Scale       =       0.3333333333333333 [-]
	 SCS Opposite-Spin Scale   =       1.2000000000000000 [-]
	 SCS Same-Spin Energy      =      -0.1675734085350525 [Eh]
	 SCS Opposite-Spin Energy  =      -1.8198625877911505 [Eh]
	 SCS Correlation Energy    =      -1.9874359963262029 [Eh]
	 SCS Total Energy          =    -475.3489982744372355 [Eh]
	-----------------------------------------------------------

  Dipole Moment: [D]
     X:    -4.5404      Y:     1.0136      Z:     0.0188     Total:     4.6522

*** Psi4 exiting successfully. Buy a developer a beer!
