                               Psi4 1.3.2 release

  ==> Input File <==

--------------------------------------------------------------------------
#psi4
#
memory 32 gb

molecule  {
0 1
 Cl        2.0130890    -0.0049270    -0.0000050
  N       -1.8138400    -0.6574940    -0.0000180
  C       -0.5187430    -1.1124640     0.0000150
  C        0.2867350     0.0113290     0.0000050
  C       -0.5336994     1.1630841    -0.2999840
  C       -1.8417450     0.7137110    -0.0000070
  H       -0.2711300    -2.1638270     0.0000120
  H       -2.6309220    -1.2532900     0.0000410
  H       -0.2027490     2.1923290     0.0000180
  H       -2.7761160     1.2570530    -0.0000260
units angstrom
no_reorient  #important for SAPT in psi4, default
symmetry c1  #important for SAPT in psi4, default
}

set PROPERTIES_ORIGIN ["COM"]
properties('MP2/aug-cc-pvtz', properties = ['dipole'])
--------------------------------------------------------------------------

    Molecular point group: c1
  Charge       = 0
  Multiplicity = 1
  Basis Set: AUG-CC-PVTZ
    Blend: AUG-CC-PVTZ
  Basis Set: (AUG-CC-PVTZ AUX)
    Blend: AUG-CC-PVTZ-JKFIT

    Orbital Energies [Eh]
    ---------------------

    Doubly Occupied:

       1A   -104.833716     2A    -15.628228     3A    -11.284055
       4A    -11.282567     5A    -11.271462     6A    -11.235780
       7A    -10.557323     8A     -8.024324     9A     -8.022386
      10A     -8.022333    11A     -1.310130    12A     -1.141194
      13A     -1.027495    14A     -0.983624    15A     -0.804765
      16A     -0.758074    17A     -0.745700    18A     -0.605476
      19A     -0.602458    20A     -0.587244    21A     -0.551111
      22A     -0.545778    23A     -0.485824    24A     -0.441220
      25A     -0.351462    26A     -0.307738

  @DF-RHF Final Energy:  -667.79415603465213

   => Energetics <=

    Nuclear Repulsion Energy =            260.8046780983864892
    One-Electron Energy =               -1434.3747371406736875
    Two-Electron Energy =                 505.7759030076349518
    Total Energy =                       -667.7941560346521328
  Basis Set: (AUG-CC-PVTZ AUX)
    Blend: AUG-CC-PVTZ-RI
    Molecular point group: c1

    Geometry (in Angstrom), charge = 0, multiplicity = 1:

       Center              X                  Y                   Z               Mass
    ------------   -----------------  -----------------  -----------------  -----------------
         CL           1.936064601822    -0.004542952844     0.035637757771    34.968852682000
         N           -1.890864398178    -0.657109952844     0.035624757771    14.003074004430
         C           -0.595767398178    -1.112079952844     0.035657757771    12.000000000000
         C            0.209710601822     0.011713047156     0.035647757771    12.000000000000
         C           -0.610723798178     1.163468147156    -0.264341242229    12.000000000000
         C           -1.918769398178     0.714095047156     0.035635757771    12.000000000000
         H           -0.348154398178    -2.163442952844     0.035654757771     1.007825032230
         H           -2.707946398178    -1.252905952844     0.035683757771     1.007825032230
         H           -0.279773398178     2.192713047156     0.035660757771     1.007825032230
         H           -2.853140398178     1.257437047156     0.035616757771     1.007825032230

  Basis Set: AUG-CC-PVTZ
    Blend: AUG-CC-PVTZ
  Basis Set: (AUG-CC-PVTZ AUX)
    Blend: AUG-CC-PVTZ-JKFIT
	 Reference Energy          =    -667.7941560346521328 [Eh]
	 Singles Energy            =      -0.0000000000000000 [Eh]
	 Same-Spin Energy          =      -0.2953808433545337 [Eh]
	 Opposite-Spin Energy      =      -0.8872925973051724 [Eh]
	 Correlation Energy        =      -1.1826734406597061 [Eh]
	 Total Energy              =    -668.9768294753118880 [Eh]

	 ================> DF-SCS-MP2 Energies <==================
	-----------------------------------------------------------
	 SCS Same-Spin Scale       =       0.3333333333333333 [-]
	 SCS Opposite-Spin Scale   =       1.2000000000000000 [-]
	 SCS Same-Spin Energy      =      -0.0984602811181779 [Eh]
	 SCS Opposite-Spin Energy  =      -1.0647511167662069 [Eh]
	 SCS Correlation Energy    =      -1.1632113978843848 [Eh]
	 SCS Total Energy          =    -668.9573674325365573 [Eh]
	-----------------------------------------------------------

  Dipole Moment: [D]
     X:    -3.2883      Y:    -1.2414      Z:     0.2759     Total:     3.5256

*** Psi4 exiting successfully. Buy a developer a beer!
