                               Psi4 1.3.2 release

  ==> Input File <==

--------------------------------------------------------------------------
#psi4
#
memory 32 gb

molecule  {
0 1
 Cl        2.0130890    -0.0049270    -0.0000050
  N       -1.8138400    -0.6574940    -0.0000180
  C       -0.5187430    -1.1124640     0.0000150
  C        0.2867350     0.0113290     0.0000050
  C       -0.5336982     1.1630841    -0.1499840
  C       -1.8417450     0.7137110    -0.0000070
  H       -0.2711300    -2.1638270     0.0000120
  H       -2.6309220    -1.2532900     0.0000410
  H       -0.2027490     2.1923290     0.0000180
  H       -2.7761160     1.2570530    -0.0000260
units angstrom
no_reorient  #important for SAPT in psi4, default
symmetry c1  #important for SAPT in psi4, default
}

set PROPERTIES_ORIGIN ["COM"]
properties('MP2/aug-cc-pvtz', properties = ['dipole'])
--------------------------------------------------------------------------

    Molecular point group: c1
  Charge       = 0
  Multiplicity = 1
  Basis Set: AUG-CC-PVTZ
    Blend: AUG-CC-PVTZ
  Basis Set: (AUG-CC-PVTZ AUX)
    Blend: AUG-CC-PVTZ-JKFIT

    Orbital Energies [Eh]
    ---------------------

    Doubly Occupied:

       1A   -104.833888     2A    -15.625145     3A    -11.280435
       4A    -11.274382     5A    -11.270452     6A    -11.230172
       7A    -10.557452     8A     -8.024459     9A     -8.022527
      10A     -8.022466    11A     -1.308797    12A     -1.141639
      13A     -1.031912    14A     -0.982595    15A     -0.807106
      16A     -0.761365    17A     -0.743913    18A     -0.604015
      19A     -0.601253    20A     -0.589557    21A     -0.566776
      22A     -0.549852    23A     -0.486536    24A     -0.442802
      25A     -0.351106    26A     -0.307797

  @DF-RHF Final Energy:  -667.81291934503008

   => Energetics <=

    Nuclear Repulsion Energy =            261.5525106582851436
    One-Electron Energy =               -1435.8940665948939568
    Two-Electron Energy =                 506.5286365915787314
    Total Energy =                       -667.8129193450299681
  Basis Set: (AUG-CC-PVTZ AUX)
    Blend: AUG-CC-PVTZ-RI
    Molecular point group: c1

    Geometry (in Angstrom), charge = 0, multiplicity = 1:

       Center              X                  Y                   Z               Mass
    ------------   -----------------  -----------------  -----------------  -----------------
         CL           1.936064459252    -0.004542952844     0.017816544957    34.968852682000
         N           -1.890864540748    -0.657109952844     0.017803544957    14.003074004430
         C           -0.595767540748    -1.112079952844     0.017836544957    12.000000000000
         C            0.209710459252     0.011713047156     0.017826544957    12.000000000000
         C           -0.610722740748     1.163468147156    -0.132162455043    12.000000000000
         C           -1.918769540748     0.714095047156     0.017814544957    12.000000000000
         H           -0.348154540748    -2.163442952844     0.017833544957     1.007825032230
         H           -2.707946540748    -1.252905952844     0.017862544957     1.007825032230
         H           -0.279773540748     2.192713047156     0.017839544957     1.007825032230
         H           -2.853140540748     1.257437047156     0.017795544957     1.007825032230

  Basis Set: AUG-CC-PVTZ
    Blend: AUG-CC-PVTZ
  Basis Set: (AUG-CC-PVTZ AUX)
    Blend: AUG-CC-PVTZ-JKFIT
	 Reference Energy          =    -667.8129193450300818 [Eh]
	 Singles Energy            =      -0.0000000000000000 [Eh]
	 Same-Spin Energy          =      -0.2945297772784217 [Eh]
	 Opposite-Spin Energy      =      -0.8845386849593091 [Eh]
	 Correlation Energy        =      -1.1790684622377308 [Eh]
	 Total Energy              =    -668.9919878072678330 [Eh]

	 ================> DF-SCS-MP2 Energies <==================
	-----------------------------------------------------------
	 SCS Same-Spin Scale       =       0.3333333333333333 [-]
	 SCS Opposite-Spin Scale   =       1.2000000000000000 [-]
	 SCS Same-Spin Energy      =      -0.0981765924261405 [Eh]
	 SCS Opposite-Spin Energy  =      -1.0614464219511708 [Eh]
	 SCS Correlation Energy    =      -1.1596230143773114 [Eh]
	 SCS Total Energy          =    -668.9725423594073845 [Eh]
	-----------------------------------------------------------

  Dipole Moment: [D]
     X:    -3.2396      Y:    -1.0882      Z:     0.1338     Total:     3.4201

*** Psi4 exiting successfully. Buy a developer a beer!
