                               Psi4 1.3.2 release

  ==> Input File <==

--------------------------------------------------------------------------
#psi4
#
memory 32 gb

molecule  {
0 1
 Cl        2.0130890    -0.0049270    -0.0000050
  N       -1.8138400    -0.6574940    -0.0000180
  C       -0.5187430    -1.1124640     0.0000150
  C        0.2867350     0.0113290     0.0000050
  C       -0.5336974     1.1630840    -0.0499840
  C       -1.8417450     0.7137110    -0.0000070
  H       -0.2711300    -2.1638270     0.0000120
  H       -2.6309220    -1.2532900     0.0000410
  H       -0.2027490     2.1923290     0.0000180
  H       -2.7761160     1.2570530    -0.0000260
units angstrom
no_reorient  #important for SAPT in psi4, default
symmetry c1  #important for SAPT in psi4, default
}

set PROPERTIES_ORIGIN ["COM"]
properties('MP2/aug-cc-pvtz', properties = ['dipole'])
--------------------------------------------------------------------------

    Molecular point group: c1
  Charge       = 0
  Multiplicity = 1
  Basis Set: AUG-CC-PVTZ
    Blend: AUG-CC-PVTZ
  Basis Set: (AUG-CC-PVTZ AUX)
    Blend: AUG-CC-PVTZ-JKFIT

    Orbital Energies [Eh]
    ---------------------

    Doubly Occupied:

       1A   -104.833953     2A    -15.624251     3A    -11.279290
       4A    -11.271863     5A    -11.270184     6A    -11.228455
       7A    -10.557499     8A     -8.024506     9A     -8.022577
      10A     -8.022514    11A     -1.308434    12A     -1.141781
      13A     -1.033215    14A     -0.982310    15A     -0.807931
      16A     -0.762515    17A     -0.743396    18A     -0.604065
      19A     -0.600059    20A     -0.590486    21A     -0.571892
      22A     -0.550891    23A     -0.486756    24A     -0.443246
      25A     -0.351086    26A     -0.307855

  @DF-RHF Final Energy:  -667.81834833348785

   => Energetics <=

    Nuclear Repulsion Energy =            261.7805477442204278
    One-Electron Energy =               -1436.3557726681772237
    Two-Electron Energy =                 506.7568765904688917
    Total Energy =                       -667.8183483334878474
  Basis Set: (AUG-CC-PVTZ AUX)
    Blend: AUG-CC-PVTZ-RI
    Molecular point group: c1

    Geometry (in Angstrom), charge = 0, multiplicity = 1:

       Center              X                  Y                   Z               Mass
    ------------   -----------------  -----------------  -----------------  -----------------
         CL           1.936064364206    -0.004542940964     0.005935736414    34.968852682000
         N           -1.890864635794    -0.657109940964     0.005922736414    14.003074004430
         C           -0.595767635794    -1.112079940964     0.005955736414    12.000000000000
         C            0.209710364206     0.011713059036     0.005945736414    12.000000000000
         C           -0.610722035794     1.163468059036    -0.044043263586    12.000000000000
         C           -1.918769635794     0.714095059036     0.005933736414    12.000000000000
         H           -0.348154635794    -2.163442940964     0.005952736414     1.007825032230
         H           -2.707946635794    -1.252905940964     0.005981736414     1.007825032230
         H           -0.279773635794     2.192713059036     0.005958736414     1.007825032230
         H           -2.853140635794     1.257437059036     0.005914736414     1.007825032230

  Basis Set: AUG-CC-PVTZ
    Blend: AUG-CC-PVTZ
  Basis Set: (AUG-CC-PVTZ AUX)
    Blend: AUG-CC-PVTZ-JKFIT
	 Reference Energy          =    -667.8183483334878474 [Eh]
	 Singles Energy            =      -0.0000000000000000 [Eh]
	 Same-Spin Energy          =      -0.2942652306140473 [Eh]
	 Opposite-Spin Energy      =      -0.8837767789345521 [Eh]
	 Correlation Energy        =      -1.1780420095485993 [Eh]
	 Total Energy              =    -668.9963903430364098 [Eh]

	 ================> DF-SCS-MP2 Energies <==================
	-----------------------------------------------------------
	 SCS Same-Spin Scale       =       0.3333333333333333 [-]
	 SCS Opposite-Spin Scale   =       1.2000000000000000 [-]
	 SCS Same-Spin Energy      =      -0.0980884102046824 [Eh]
	 SCS Opposite-Spin Energy  =      -1.0605321347214625 [Eh]
	 SCS Correlation Energy    =      -1.1586205449261449 [Eh]
	 SCS Total Energy          =    -668.9769688784140271 [Eh]
	-----------------------------------------------------------

  Dipole Moment: [D]
     X:    -3.2239      Y:    -1.0409      Z:     0.0441     Total:     3.3881

*** Psi4 exiting successfully. Buy a developer a beer!
