                               Psi4 1.3.2 release

  ==> Input File <==

--------------------------------------------------------------------------
#psi4
#
memory 32 gb

molecule  {
0 1
 Cl        2.0130890    -0.0049270    -0.0000050
  N       -1.8138400    -0.6574940    -0.0000180
  C       -0.5187430    -1.1124640     0.0000150
  C        0.2867350     0.0113290     0.0000050
  C       -0.5336978     1.1630840    -0.0999840
  C       -1.8417450     0.7137110    -0.0000070
  H       -0.2711300    -2.1638270     0.0000120
  H       -2.6309220    -1.2532900     0.0000410
  H       -0.2027490     2.1923290     0.0000180
  H       -2.7761160     1.2570530    -0.0000260
units angstrom
no_reorient  #important for SAPT in psi4, default
symmetry c1  #important for SAPT in psi4, default
}

set PROPERTIES_ORIGIN ["COM"]
properties('MP2/aug-cc-pvtz', properties = ['dipole'])
--------------------------------------------------------------------------

    Molecular point group: c1
  Charge       = 0
  Multiplicity = 1
  Basis Set: AUG-CC-PVTZ
    Blend: AUG-CC-PVTZ
  Basis Set: (AUG-CC-PVTZ AUX)
    Blend: AUG-CC-PVTZ-JKFIT

    Orbital Energies [Eh]
    ---------------------

    Doubly Occupied:

       1A   -104.833927     2A    -15.624585     3A    -11.279723
       4A    -11.272811     5A    -11.270281     6A    -11.229101
       7A    -10.557481     8A     -8.024488     9A     -8.022557
      10A     -8.022495    11A     -1.308567    12A     -1.141727
      13A     -1.032726    14A     -0.982415    15A     -0.807613
      16A     -0.762073    17A     -0.743589    18A     -0.604037
      19A     -0.600554    20A     -0.590112    21A     -0.569942
      22A     -0.550507    23A     -0.486673    24A     -0.443080
      25A     -0.351088    26A     -0.307831

  @DF-RHF Final Energy:  -667.81632110729424

   => Energetics <=

    Nuclear Repulsion Energy =            261.6946797853041744
    One-Electron Energy =               -1436.1820414161304598
    Two-Electron Energy =                 506.6710405235321559
    Total Energy =                       -667.8163211072942431
  Basis Set: (AUG-CC-PVTZ AUX)
    Blend: AUG-CC-PVTZ-RI
    Molecular point group: c1

    Geometry (in Angstrom), charge = 0, multiplicity = 1:

       Center              X                  Y                   Z               Mass
    ------------   -----------------  -----------------  -----------------  -----------------
         CL           1.936064411729    -0.004542940964     0.011876140685    34.968852682000
         N           -1.890864588271    -0.657109940964     0.011863140685    14.003074004430
         C           -0.595767588271    -1.112079940964     0.011896140685    12.000000000000
         C            0.209710411729     0.011713059036     0.011886140685    12.000000000000
         C           -0.610722388271     1.163468059036    -0.088102859315    12.000000000000
         C           -1.918769588271     0.714095059036     0.011874140685    12.000000000000
         H           -0.348154588271    -2.163442940964     0.011893140685     1.007825032230
         H           -2.707946588271    -1.252905940964     0.011922140685     1.007825032230
         H           -0.279773588271     2.192713059036     0.011899140685     1.007825032230
         H           -2.853140588271     1.257437059036     0.011855140685     1.007825032230

  Basis Set: AUG-CC-PVTZ
    Blend: AUG-CC-PVTZ
  Basis Set: (AUG-CC-PVTZ AUX)
    Blend: AUG-CC-PVTZ-JKFIT
	 Reference Energy          =    -667.8163211072942431 [Eh]
	 Singles Energy            =      -0.0000000000000000 [Eh]
	 Same-Spin Energy          =      -0.2943649313035498 [Eh]
	 Opposite-Spin Energy      =      -0.8840510009087754 [Eh]
	 Correlation Energy        =      -1.1784159322123253 [Eh]
	 Total Energy              =    -668.9947370395066173 [Eh]

	 ================> DF-SCS-MP2 Energies <==================
	-----------------------------------------------------------
	 SCS Same-Spin Scale       =       0.3333333333333333 [-]
	 SCS Opposite-Spin Scale   =       1.2000000000000000 [-]
	 SCS Same-Spin Energy      =      -0.0981216437678499 [Eh]
	 SCS Opposite-Spin Energy  =      -1.0608612010905305 [Eh]
	 SCS Correlation Energy    =      -1.1589828448583805 [Eh]
	 SCS Total Energy          =    -668.9753039521526716 [Eh]
	-----------------------------------------------------------

  Dipole Moment: [D]
     X:    -3.2298      Y:    -1.0588      Z:     0.0886     Total:     3.4001

*** Psi4 exiting successfully. Buy a developer a beer!
