                               Psi4 1.3.2 release

  ==> Input File <==

--------------------------------------------------------------------------
#psi4
#
memory 32 gb

molecule  {
0 1
 Cl        2.0130890    -0.0049270    -0.0000050
  N       -1.8138400    -0.6574940    -0.0000180
  C       -0.5187430    -1.1124640     0.0000150
  C        0.2867350     0.0113290     0.0000050
  C       -0.5336986     1.1630841    -0.1999840
  C       -1.8417450     0.7137110    -0.0000070
  H       -0.2711300    -2.1638270     0.0000120
  H       -2.6309220    -1.2532900     0.0000410
  H       -0.2027490     2.1923290     0.0000180
  H       -2.7761160     1.2570530    -0.0000260
units angstrom
no_reorient  #important for SAPT in psi4, default
symmetry c1  #important for SAPT in psi4, default
}

set PROPERTIES_ORIGIN ["COM"]
properties('MP2/aug-cc-pvtz', properties = ['dipole'])
--------------------------------------------------------------------------

    Molecular point group: c1
  Charge       = 0
  Multiplicity = 1
  Basis Set: AUG-CC-PVTZ
    Blend: AUG-CC-PVTZ
  Basis Set: (AUG-CC-PVTZ AUX)
    Blend: AUG-CC-PVTZ-JKFIT

    Orbital Energies [Eh]
    ---------------------

    Doubly Occupied:

       1A   -104.833839     2A    -15.625937     3A    -11.281412
       4A    -11.276552     5A    -11.270701     6A    -11.231655
       7A    -10.557416     8A     -8.024421     9A     -8.022487
      10A     -8.022429    11A     -1.309129    12A     -1.141521
      13A     -1.030769    14A     -0.982854    15A     -0.806439
      16A     -0.760430    17A     -0.744371    18A     -0.604088
      19A     -0.601986    20A     -0.588872    21A     -0.562487
      22A     -0.548899    23A     -0.486348    24A     -0.442406
      25A     -0.351158    26A     -0.307762

  @DF-RHF Final Energy:  -667.80811340033858

   => Energetics <=

    Nuclear Repulsion Energy =            261.3554481152316953
    One-Electron Energy =               -1435.4943858373899275
    Two-Electron Energy =                 506.3308243218197617
    Total Energy =                       -667.8081134003384705
  Basis Set: (AUG-CC-PVTZ AUX)
    Blend: AUG-CC-PVTZ-RI
    Molecular point group: c1

    Geometry (in Angstrom), charge = 0, multiplicity = 1:

       Center              X                  Y                   Z               Mass
    ------------   -----------------  -----------------  -----------------  -----------------
         CL           1.936064506775    -0.004542952844     0.023756949228    34.968852682000
         N           -1.890864493225    -0.657109952844     0.023743949228    14.003074004430
         C           -0.595767493225    -1.112079952844     0.023776949228    12.000000000000
         C            0.209710506775     0.011713047156     0.023766949228    12.000000000000
         C           -0.610723093225     1.163468147156    -0.176222050772    12.000000000000
         C           -1.918769493225     0.714095047156     0.023754949228    12.000000000000
         H           -0.348154493225    -2.163442952844     0.023773949228     1.007825032230
         H           -2.707946493225    -1.252905952844     0.023802949228     1.007825032230
         H           -0.279773493225     2.192713047156     0.023779949228     1.007825032230
         H           -2.853140493225     1.257437047156     0.023735949228     1.007825032230

  Basis Set: AUG-CC-PVTZ
    Blend: AUG-CC-PVTZ
  Basis Set: (AUG-CC-PVTZ AUX)
    Blend: AUG-CC-PVTZ-JKFIT
	 Reference Energy          =    -667.8081134003385841 [Eh]
	 Singles Energy            =      -0.0000000000000000 [Eh]
	 Same-Spin Energy          =      -0.2947570349924318 [Eh]
	 Opposite-Spin Energy      =      -0.8852477509302286 [Eh]
	 Correlation Energy        =      -1.1800047859226603 [Eh]
	 Total Energy              =    -668.9881181862612038 [Eh]

	 ================> DF-SCS-MP2 Energies <==================
	-----------------------------------------------------------
	 SCS Same-Spin Scale       =       0.3333333333333333 [-]
	 SCS Opposite-Spin Scale   =       1.2000000000000000 [-]
	 SCS Same-Spin Energy      =      -0.0982523449974773 [Eh]
	 SCS Opposite-Spin Energy  =      -1.0622973011162742 [Eh]
	 SCS Correlation Energy    =      -1.1605496461137514 [Eh]
	 SCS Total Energy          =    -668.9686630464523205 [Eh]
	-----------------------------------------------------------

  Dipole Moment: [D]
     X:    -3.2528      Y:    -1.1288      Z:     0.1802     Total:     3.4478

*** Psi4 exiting successfully. Buy a developer a beer!
