                               Psi4 1.3.2 release

  ==> Input File <==

--------------------------------------------------------------------------
#psi4
#
memory 32 gb

molecule  {
0 1
 Cl        2.0130890    -0.0049270    -0.0000050
  N       -1.8138400    -0.6574940    -0.0000180
  C       -0.5187430    -1.1124640     0.0000150
  C        0.2867350     0.0113290     0.0000050
  C       -0.5336990     1.1630841    -0.2499840
  C       -1.8417450     0.7137110    -0.0000070
  H       -0.2711300    -2.1638270     0.0000120
  H       -2.6309220    -1.2532900     0.0000410
  H       -0.2027490     2.1923290     0.0000180
  H       -2.7761160     1.2570530    -0.0000260
units angstrom
no_reorient  #important for SAPT in psi4, default
symmetry c1  #important for SAPT in psi4, default
}

set PROPERTIES_ORIGIN ["COM"]
properties('MP2/aug-cc-pvtz', properties = ['dipole'])
--------------------------------------------------------------------------

    Molecular point group: c1
  Charge       = 0
  Multiplicity = 1
  Basis Set: AUG-CC-PVTZ
    Blend: AUG-CC-PVTZ
  Basis Set: (AUG-CC-PVTZ AUX)
    Blend: AUG-CC-PVTZ-JKFIT

    Orbital Energies [Eh]
    ---------------------

    Doubly Occupied:

       1A   -104.833781     2A    -15.626964     3A    -11.282628
       4A    -11.279294     5A    -11.271036     6A    -11.233532
       7A    -10.557373     8A     -8.024376     9A     -8.022440
      10A     -8.022384    11A     -1.309571    12A     -1.141372
      13A     -1.029297    14A     -0.983196    15A     -0.805646
      16A     -0.759315    17A     -0.744967    18A     -0.604521
      19A     -0.602446    20A     -0.588092    21A     -0.557191
      22A     -0.547597    23A     -0.486111    24A     -0.441883
      25A     -0.351266    26A     -0.307739

  @DF-RHF Final Energy:  -667.80186951605333

   => Energetics <=

    Nuclear Repulsion Energy =            261.1053911014958544
    One-Electron Energy =               -1434.9864920175768930
    Two-Electron Energy =                 506.0792314000277656
    Total Energy =                       -667.8018695160533298
  Basis Set: (AUG-CC-PVTZ AUX)
    Blend: AUG-CC-PVTZ-RI
    Molecular point group: c1

    Geometry (in Angstrom), charge = 0, multiplicity = 1:

       Center              X                  Y                   Z               Mass
    ------------   -----------------  -----------------  -----------------  -----------------
         CL           1.936064554299    -0.004542952844     0.029697353500    34.968852682000
         N           -1.890864445701    -0.657109952844     0.029684353500    14.003074004430
         C           -0.595767445701    -1.112079952844     0.029717353500    12.000000000000
         C            0.209710554299     0.011713047156     0.029707353500    12.000000000000
         C           -0.610723445701     1.163468147156    -0.220281646500    12.000000000000
         C           -1.918769445701     0.714095047156     0.029695353500    12.000000000000
         H           -0.348154445701    -2.163442952844     0.029714353500     1.007825032230
         H           -2.707946445701    -1.252905952844     0.029743353500     1.007825032230
         H           -0.279773445701     2.192713047156     0.029720353500     1.007825032230
         H           -2.853140445701     1.257437047156     0.029676353500     1.007825032230

  Basis Set: AUG-CC-PVTZ
    Blend: AUG-CC-PVTZ
  Basis Set: (AUG-CC-PVTZ AUX)
    Blend: AUG-CC-PVTZ-JKFIT
	 Reference Energy          =    -667.8018695160533298 [Eh]
	 Singles Energy            =      -0.0000000000000000 [Eh]
	 Same-Spin Energy          =      -0.2950426129983796 [Eh]
	 Opposite-Spin Energy      =      -0.8861712544969105 [Eh]
	 Correlation Energy        =      -1.1812138674952901 [Eh]
	 Total Energy              =    -668.9830833835486601 [Eh]

	 ================> DF-SCS-MP2 Energies <==================
	-----------------------------------------------------------
	 SCS Same-Spin Scale       =       0.3333333333333333 [-]
	 SCS Opposite-Spin Scale   =       1.2000000000000000 [-]
	 SCS Same-Spin Energy      =      -0.0983475376661265 [Eh]
	 SCS Opposite-Spin Energy  =      -1.0634055053962925 [Eh]
	 SCS Correlation Energy    =      -1.1617530430624190 [Eh]
	 SCS Total Energy          =    -668.9636225591157199 [Eh]
	-----------------------------------------------------------

  Dipole Moment: [D]
     X:    -3.2692      Y:    -1.1801      Z:     0.2276     Total:     3.4832

*** Psi4 exiting successfully. Buy a developer a beer!
