                               Psi4 1.4a3.dev225

  ==> Input File <==

--------------------------------------------------------------------------
#psi4
#
memory 32 gb

molecule  {
0 1
  O        2.9110620    -0.5703060    -0.4523520
  O        0.5539390    -1.5540470     0.1662040
  N       -0.5943370     0.3369340    -0.3930300
  C       -1.9154150    -0.2304160    -0.1256420
  C        1.8655780     0.3788930    -0.3941620
  C       -2.9513150     0.5221750    -0.9483650
  C       -2.2232580    -0.2086170     1.3682650
  C        0.5443190    -0.3662470    -0.1910430
  C        2.1035320     1.3624180     0.7499890
  H       -1.8664900    -1.2716350    -0.4595930
  H       -0.5281980     1.3181660    -0.6377390
  H        1.8317100     0.9202690    -1.3505730
  H       -3.9433690     0.0896600    -0.7945050
  H       -2.9965010     1.5743390    -0.6446630
  H       -2.7149650     0.4749500    -2.0147890
  H       -1.4563020    -0.7629570     1.9136170
  H       -3.1950150    -0.6709470     1.5682930
  H       -2.2473660     0.8219210     1.7368640
  H        3.0888910     1.8183940     0.6312910
  H        2.0827360     0.8223960     1.7004970
  H        1.3487660     2.1553220     0.7756360
  H        2.4873462    -1.4197805    -0.1317933
units angstrom
no_reorient  #important for SAPT in psi4, default
symmetry c1  #important for SAPT in psi4, default
}

set PROPERTIES_ORIGIN ["COM"]
properties('MP2/aug-cc-pvtz', properties = ['dipole'])
--------------------------------------------------------------------------

    Molecular point group: c1
  Charge       = 0
  Multiplicity = 1
  Basis Set: AUG-CC-PVTZ
    Blend: AUG-CC-PVTZ
  Basis Set: (AUG-CC-PVTZ AUX)
    Blend: AUG-CC-PVTZ-JKFIT

    Orbital Energies [Eh]
    ---------------------

    Doubly Occupied:

       1A    -20.549340     2A    -20.532142     3A    -15.596333
       4A    -11.358168     5A    -11.297278     6A    -11.278203
       7A    -11.233567     8A    -11.229636     9A    -11.221161
      10A     -1.395180    11A     -1.342127    12A     -1.246936
      13A     -1.071161    14A     -1.022667    15A     -0.949669
      16A     -0.893506    17A     -0.820817    18A     -0.794560
      19A     -0.735392    20A     -0.677336    21A     -0.641492
      22A     -0.635064    23A     -0.628912    24A     -0.595251
      25A     -0.581661    26A     -0.570161    27A     -0.555201
      28A     -0.548124    29A     -0.536628    30A     -0.528517
      31A     -0.510191    32A     -0.502139    33A     -0.491472
      34A     -0.445590    35A     -0.431956    36A     -0.401629

  @DF-RHF Final Energy:  -439.13620192180400

   => Energetics <=

    Nuclear Repulsion Energy =            484.9783988426302130
    One-Electron Energy =               -1560.5308617126117952
    Two-Electron Energy =                 636.4162609481776371
    Total Energy =                       -439.1362019218039450
  Basis Set: (AUG-CC-PVTZ AUX)
    Blend: AUG-CC-PVTZ-RI
    Molecular point group: c1

    Geometry (in Angstrom), charge = 0, multiplicity = 1:

       Center              X                  Y                   Z               Mass
    ------------   -----------------  -----------------  -----------------  -----------------
         O            2.849969229415    -0.525710504534    -0.435100682329    15.994914619570
         O            0.492846229415    -1.509451504534     0.183455317671    15.994914619570
         N           -0.655429770585     0.381529495466    -0.375778682329    14.003074004430
         C           -1.976507770585    -0.185820504534    -0.108390682329    12.000000000000
         C            1.804485229415     0.423488495466    -0.376910682329    12.000000000000
         C           -3.012407770585     0.566770495466    -0.931113682329    12.000000000000
         C           -2.284350770585    -0.164021504534     1.385516317671    12.000000000000
         C            0.483226229415    -0.321651504534    -0.173791682329    12.000000000000
         C            2.042439229415     1.407013495466     0.767240317671    12.000000000000
         H           -1.927582770585    -1.227039504534    -0.442341682329     1.007825032230
         H           -0.589290770585     1.362761495466    -0.620487682329     1.007825032230
         H            1.770617229415     0.964864495466    -1.333321682329     1.007825032230
         H           -4.004461770585     0.134255495466    -0.777253682329     1.007825032230
         H           -3.057593770585     1.618934495466    -0.627411682329     1.007825032230
         H           -2.776057770585     0.519545495466    -1.997537682329     1.007825032230
         H           -1.517394770585    -0.718361504534     1.930868317671     1.007825032230
         H           -3.256107770585    -0.626351504534     1.585544317671     1.007825032230
         H           -2.308458770585     0.866516495466     1.754115317671     1.007825032230
         H            3.027798229415     1.862989495466     0.648542317671     1.007825032230
         H            2.021643229415     0.866991495466     1.717748317671     1.007825032230
         H            1.287673229415     2.199917495466     0.792887317671     1.007825032230
         H            2.426253429415    -1.375185004534    -0.114541982329     1.007825032230

  Basis Set: AUG-CC-PVTZ
    Blend: AUG-CC-PVTZ
  Basis Set: (AUG-CC-PVTZ AUX)
    Blend: AUG-CC-PVTZ-JKFIT
	 Reference Energy          =    -439.1362019218040018 [Eh]
	 Singles Energy            =      -0.0000000000000000 [Eh]
	 Same-Spin Energy          =      -0.4462500238220819 [Eh]
	 Opposite-Spin Energy      =      -1.4644079083569368 [Eh]
	 Correlation Energy        =      -1.9106579321790187 [Eh]
	 Total Energy              =    -441.0468598539829941 [Eh]

	 ================> DF-SCS-MP2 Energies <==================
	-----------------------------------------------------------
	 SCS Same-Spin Scale       =       0.3333333333333333 [-]
	 SCS Opposite-Spin Scale   =       1.2000000000000000 [-]
	 SCS Same-Spin Energy      =      -0.1487500079406940 [Eh]
	 SCS Opposite-Spin Energy  =      -1.7572894900283240 [Eh]
	 SCS Correlation Energy    =      -1.9060394979690181 [Eh]
	 SCS Total Energy          =    -441.0422414197730063 [Eh]
	-----------------------------------------------------------

  Dipole Moment: [D]
     X:    -3.4109      Y:     3.1051      Z:    -0.1761     Total:     4.6160

*** Psi4 exiting successfully. Buy a developer a beer!
