                               Psi4 1.3.2 release

  ==> Input File <==

--------------------------------------------------------------------------
#psi4
#
memory 32 gb

molecule  {
0 1
  O       -2.8756320     0.4615000    -0.3051040
  O       -0.5220660     1.5374290     0.0548780
  N        0.6562510    -0.3746370    -0.3360270
  C        1.9647450     0.2268840    -0.0956960
  C       -1.8012180    -0.4504720    -0.3698720
  C        3.0067800    -0.5070980    -0.9241520
  C        2.2930000     0.2310680     1.3932270
  C       -0.5781594     0.3752066    -0.1844731
  C       -1.9724170    -1.5121580     0.7102480
  H        1.8788190     1.2611790    -0.4401960
  H        0.6035260    -1.3822150    -0.4365740
  H       -1.7868920    -0.9288770    -1.3618540
  H        3.9904500    -0.0508330    -0.7882090
  H        3.0812650    -1.5550640    -0.6116920
  H        2.7529100    -0.4768670    -1.9861430
  H        1.5225120     0.7762450     1.9430400
  H        3.2574000     0.7146530     1.5762130
  H        2.3438960    -0.7932520     1.7757830
  H       -2.9590570    -1.9673470     0.6070900
  H       -1.9090200    -1.0432980     1.6949070
  H       -1.2193110    -2.3035120     0.6420620
  H       -2.4442120     1.3312090    -0.1521090
units angstrom
no_reorient  #important for SAPT in psi4, default
symmetry c1  #important for SAPT in psi4, default
}

set PROPERTIES_ORIGIN ["COM"]
properties('MP2/aug-cc-pvtz', properties = ['dipole'])
--------------------------------------------------------------------------

    Molecular point group: c1
  Charge       = 0
  Multiplicity = 1
  Basis Set: AUG-CC-PVTZ
    Blend: AUG-CC-PVTZ
  Basis Set: (AUG-CC-PVTZ AUX)
    Blend: AUG-CC-PVTZ-JKFIT

    Orbital Energies [Eh]
    ---------------------

    Doubly Occupied:

       1A    -20.552810     2A    -20.551661     3A    -15.576881
       4A    -11.363795     5A    -11.300127     6A    -11.268441
       7A    -11.234600     8A    -11.225436     9A    -11.216039
      10A     -1.432754    11A     -1.358868    12A     -1.219055
      13A     -1.064848    14A     -1.020844    15A     -0.942957
      16A     -0.903494    17A     -0.812437    18A     -0.776098
      19A     -0.744022    20A     -0.685364    21A     -0.657166
      22A     -0.633642    23A     -0.622850    24A     -0.598349
      25A     -0.582338    26A     -0.570430    27A     -0.549564
      28A     -0.544361    29A     -0.541937    30A     -0.535274
      31A     -0.521938    32A     -0.501080    33A     -0.486583
      34A     -0.450862    35A     -0.443363    36A     -0.388938

  @DF-RHF Final Energy:  -439.12761845557804

   => Energetics <=

    Nuclear Repulsion Energy =            485.2630941542604432
    One-Electron Energy =               -1561.0230121390154636
    Two-Electron Energy =                 636.6322995291769757
    Total Energy =                       -439.1276184555780446
  Basis Set: (AUG-CC-PVTZ AUX)
    Blend: AUG-CC-PVTZ-RI
    Molecular point group: c1

    Geometry (in Angstrom), charge = 0, multiplicity = 1:

       Center              X                  Y                   Z               Mass
    ------------   -----------------  -----------------  -----------------  -----------------
         O           -2.867851353505     0.456773670908    -0.306059142594    15.994914619570
         O           -0.514285353505     1.532702670908     0.053922857406    15.994914619570
         N            0.664031646495    -0.379363329092    -0.336982142594    14.003074004430
         C            1.972525646495     0.222157670908    -0.096651142594    12.000000000000
         C           -1.793437353505    -0.455198329092    -0.370827142594    12.000000000000
         C            3.014560646495    -0.511824329092    -0.925107142594    12.000000000000
         C            2.300780646495     0.226341670908     1.392271857406    12.000000000000
         C           -0.570378753505     0.370480270908    -0.185428242594    12.000000000000
         C           -1.964636353505    -1.516884329092     0.709292857406    12.000000000000
         H            1.886599646495     1.256452670908    -0.441151142594     1.007825032230
         H            0.611306646495    -1.386941329092    -0.437529142594     1.007825032230
         H           -1.779111353505    -0.933603329092    -1.362809142594     1.007825032230
         H            3.998230646495    -0.055559329092    -0.789164142594     1.007825032230
         H            3.089045646495    -1.559790329092    -0.612647142594     1.007825032230
         H            2.760690646495    -0.481593329092    -1.987098142594     1.007825032230
         H            1.530292646495     0.771518670908     1.942084857406     1.007825032230
         H            3.265180646495     0.709926670908     1.575257857406     1.007825032230
         H            2.351676646495    -0.797978329092     1.774827857406     1.007825032230
         H           -2.951276353505    -1.972073329092     0.606134857406     1.007825032230
         H           -1.901239353505    -1.048024329092     1.693951857406     1.007825032230
         H           -1.211530353505    -2.308238329092     0.641106857406     1.007825032230
         H           -2.436431353505     1.326482670908    -0.153064142594     1.007825032230

  Basis Set: AUG-CC-PVTZ
    Blend: AUG-CC-PVTZ
  Basis Set: (AUG-CC-PVTZ AUX)
    Blend: AUG-CC-PVTZ-JKFIT
	 Reference Energy          =    -439.1276184555780446 [Eh]
	 Singles Energy            =      -0.0000000000000000 [Eh]
	 Same-Spin Energy          =      -0.4455309252332430 [Eh]
	 Opposite-Spin Energy      =      -1.4630010763769572 [Eh]
	 Correlation Energy        =      -1.9085320016102001 [Eh]
	 Total Energy              =    -441.0361504571882278 [Eh]

	 ================> DF-SCS-MP2 Energies <==================
	-----------------------------------------------------------
	 SCS Same-Spin Scale       =       0.3333333333333333 [-]
	 SCS Opposite-Spin Scale   =       1.2000000000000000 [-]
	 SCS Same-Spin Energy      =      -0.1485103084110810 [Eh]
	 SCS Opposite-Spin Energy  =      -1.7556012916523487 [Eh]
	 SCS Correlation Energy    =      -1.9041116000634297 [Eh]
	 SCS Total Energy          =    -441.0317300556414466 [Eh]
	-----------------------------------------------------------

  Dipole Moment: [D]
     X:     2.6567      Y:    -2.6594      Z:    -0.0730     Total:     3.7598

*** Psi4 exiting successfully. Buy a developer a beer!
