                               Psi4 1.3.2 release

  ==> Input File <==

--------------------------------------------------------------------------
#psi4
#
memory 32 gb

molecule  {
0 1
  O       -2.8756320     0.4615000    -0.3051040
  O       -0.5220660     1.5374290     0.0548780
  N        0.6358363    -0.3410176    -0.3036206
  C        1.9647450     0.2268840    -0.0956960
  C       -1.8012180    -0.4504720    -0.3698720
  C        3.0439058    -0.4747092    -0.9044511
  C        2.2930000     0.2310680     1.3932270
  C       -0.4931590     0.3235730    -0.1949090
  C       -1.9724170    -1.5121580     0.7102480
  H        1.8788190     1.2611790    -0.4401960
  H        0.6035260    -1.3822150    -0.4365740
  H       -1.7868920    -0.9288770    -1.3618540
  H        3.9904500    -0.0508330    -0.7882090
  H        3.0812650    -1.5550640    -0.6116920
  H        2.7529100    -0.4768670    -1.9861430
  H        1.5225120     0.7762450     1.9430400
  H        3.2574000     0.7146530     1.5762130
  H        2.3438960    -0.7932520     1.7757830
  H       -2.9590570    -1.9673470     0.6070900
  H       -1.9090200    -1.0432980     1.6949070
  H       -1.2193110    -2.3035120     0.6420620
  H       -2.4442120     1.3312090    -0.1521090
units angstrom
no_reorient  #important for SAPT in psi4, default
symmetry c1  #important for SAPT in psi4, default
}

set PROPERTIES_ORIGIN ["COM"]
properties('MP2/aug-cc-pvtz', properties = ['dipole'])
--------------------------------------------------------------------------

    Molecular point group: c1
  Charge       = 0
  Multiplicity = 1
  Basis Set: AUG-CC-PVTZ
    Blend: AUG-CC-PVTZ
  Basis Set: (AUG-CC-PVTZ AUX)
    Blend: AUG-CC-PVTZ-JKFIT

    Orbital Energies [Eh]
    ---------------------

    Doubly Occupied:

       1A    -20.546659     2A    -20.524820     3A    -15.601022
       4A    -11.352495     5A    -11.296664     6A    -11.279283
       7A    -11.236106     8A    -11.230117     9A    -11.222326
      10A     -1.397005    11A     -1.345364    12A     -1.251067
      13A     -1.076551    14A     -1.024446    15A     -0.950429
      16A     -0.896314    17A     -0.825863    18A     -0.793317
      19A     -0.737030    20A     -0.678292    21A     -0.649425
      22A     -0.630672    23A     -0.626403    24A     -0.599165
      25A     -0.585415    26A     -0.569964    27A     -0.558296
      28A     -0.548795    29A     -0.541115    30A     -0.530028
      31A     -0.509105    32A     -0.497792    33A     -0.489027
      34A     -0.443997    35A     -0.432037    36A     -0.401511

  @DF-RHF Final Energy:  -439.13146574697095

   => Energetics <=

    Nuclear Repulsion Energy =            485.8855912051387804
    One-Electron Energy =               -1562.2782844396497239
    Two-Electron Energy =                 637.2612274875400544
    Total Energy =                       -439.1314657469708891
  Basis Set: (AUG-CC-PVTZ AUX)
    Blend: AUG-CC-PVTZ-RI
    Molecular point group: c1

    Geometry (in Angstrom), charge = 0, multiplicity = 1:

       Center              X                  Y                   Z               Mass
    ------------   -----------------  -----------------  -----------------  -----------------
         O           -2.876849783549     0.454944173021    -0.310368771624    15.994914619570
         O           -0.523283783549     1.530873173021     0.049613228376    15.994914619570
         N            0.634618516451    -0.347573426979    -0.308885371624    14.003074004430
         C            1.963527216451     0.220328173021    -0.100960771624    12.000000000000
         C           -1.802435783549    -0.457027826979    -0.375136771624    12.000000000000
         C            3.042688016451    -0.481265026979    -0.909715871624    12.000000000000
         C            2.291782216451     0.224512173021     1.387962228376    12.000000000000
         C           -0.494376783549     0.317017173021    -0.200173771624    12.000000000000
         C           -1.973634783549    -1.518713826979     0.704983228376    12.000000000000
         H            1.877601216451     1.254623173021    -0.445460771624     1.007825032230
         H            0.602308216451    -1.388770826979    -0.441838771624     1.007825032230
         H           -1.788109783549    -0.935432826979    -1.367118771624     1.007825032230
         H            3.989232216451    -0.057388826979    -0.793473771624     1.007825032230
         H            3.080047216451    -1.561619826979    -0.616956771624     1.007825032230
         H            2.751692216451    -0.483422826979    -1.991407771624     1.007825032230
         H            1.521294216451     0.769689173021     1.937775228376     1.007825032230
         H            3.256182216451     0.708097173021     1.570948228376     1.007825032230
         H            2.342678216451    -0.799807826979     1.770518228376     1.007825032230
         H           -2.960274783549    -1.973902826979     0.601825228376     1.007825032230
         H           -1.910237783549    -1.049853826979     1.689642228376     1.007825032230
         H           -1.220528783549    -2.310067826979     0.636797228376     1.007825032230
         H           -2.445429783549     1.324653173021    -0.157373771624     1.007825032230

  Basis Set: AUG-CC-PVTZ
    Blend: AUG-CC-PVTZ
  Basis Set: (AUG-CC-PVTZ AUX)
    Blend: AUG-CC-PVTZ-JKFIT
	 Reference Energy          =    -439.1314657469709459 [Eh]
	 Singles Energy            =      -0.0000000000000000 [Eh]
	 Same-Spin Energy          =      -0.4462290246022236 [Eh]
	 Opposite-Spin Energy      =      -1.4637871029861342 [Eh]
	 Correlation Energy        =      -1.9100161275883578 [Eh]
	 Total Energy              =    -441.0414818745592811 [Eh]

	 ================> DF-SCS-MP2 Energies <==================
	-----------------------------------------------------------
	 SCS Same-Spin Scale       =       0.3333333333333333 [-]
	 SCS Opposite-Spin Scale   =       1.2000000000000000 [-]
	 SCS Same-Spin Energy      =      -0.1487430082007412 [Eh]
	 SCS Opposite-Spin Energy  =      -1.7565445235833610 [Eh]
	 SCS Correlation Energy    =      -1.9052875317841023 [Eh]
	 SCS Total Energy          =    -441.0367532787550431 [Eh]
	-----------------------------------------------------------

  Dipole Moment: [D]
     X:     3.6421      Y:    -3.1755      Z:    -0.2227     Total:     4.8372

*** Psi4 exiting successfully. Buy a developer a beer!
