                               Psi4 1.3.2 release

  ==> Input File <==

--------------------------------------------------------------------------
#psi4
#
memory 32 gb

molecule  {
0 1
  O       -2.8756320     0.4615000    -0.3051040
  O       -0.5220660     1.5374290     0.0548780
  N        0.6782599    -0.4075236    -0.3681406
  C        1.9647450     0.2268840    -0.0956960
  C       -1.8012180    -0.4504720    -0.3698720
  C        2.9683847    -0.5385926    -0.9428435
  C        2.2930000     0.2310680     1.3932270
  C       -0.4931590     0.3235730    -0.1949090
  C       -1.9724170    -1.5121580     0.7102480
  H        1.8788190     1.2611790    -0.4401960
  H        0.6035260    -1.3822150    -0.4365740
  H       -1.7868920    -0.9288770    -1.3618540
  H        3.9904500    -0.0508330    -0.7882090
  H        3.0812650    -1.5550640    -0.6116920
  H        2.7529100    -0.4768670    -1.9861430
  H        1.5225120     0.7762450     1.9430400
  H        3.2574000     0.7146530     1.5762130
  H        2.3438960    -0.7932520     1.7757830
  H       -2.9590570    -1.9673470     0.6070900
  H       -1.9090200    -1.0432980     1.6949070
  H       -1.2193110    -2.3035120     0.6420620
  H       -2.4442120     1.3312090    -0.1521090
units angstrom
no_reorient  #important for SAPT in psi4, default
symmetry c1  #important for SAPT in psi4, default
}

set PROPERTIES_ORIGIN ["COM"]
properties('MP2/aug-cc-pvtz', properties = ['dipole'])
--------------------------------------------------------------------------

    Molecular point group: c1
  Charge       = 0
  Multiplicity = 1
  Basis Set: AUG-CC-PVTZ
    Blend: AUG-CC-PVTZ
  Basis Set: (AUG-CC-PVTZ AUX)
    Blend: AUG-CC-PVTZ-JKFIT

    Orbital Energies [Eh]
    ---------------------

    Doubly Occupied:

       1A    -20.549019     2A    -20.540209     3A    -15.590653
       4A    -11.363903     5A    -11.298199     6A    -11.275956
       7A    -11.231569     8A    -11.229688     9A    -11.222475
      10A     -1.398539    11A     -1.346993    12A     -1.245155
      13A     -1.068648    14A     -1.023458    15A     -0.950004
      16A     -0.894292    17A     -0.823229    18A     -0.792765
      19A     -0.735626    20A     -0.679794    21A     -0.650634
      22A     -0.635308    23A     -0.631561    24A     -0.597895
      25A     -0.581568    26A     -0.567441    27A     -0.556084
      28A     -0.543776    29A     -0.532179    30A     -0.528989
      31A     -0.514018    32A     -0.506547    33A     -0.492904
      34A     -0.445959    35A     -0.435863    36A     -0.400980

  @DF-RHF Final Energy:  -439.13122526728068

   => Energetics <=

    Nuclear Repulsion Energy =            484.8168492505012637
    One-Electron Energy =               -1560.1323887809444386
    Two-Electron Energy =                 636.1843142631624914
    Total Energy =                       -439.1312252672806835
  Basis Set: (AUG-CC-PVTZ AUX)
    Blend: AUG-CC-PVTZ-RI
    Molecular point group: c1

    Geometry (in Angstrom), charge = 0, multiplicity = 1:

       Center              X                  Y                   Z               Mass
    ------------   -----------------  -----------------  -----------------  -----------------
         O           -2.874468355775     0.467895803893    -0.299962646303    15.994914619570
         O           -0.520902355775     1.543824803893     0.060019353697    15.994914619570
         N            0.679423544225    -0.401127796107    -0.362999246303    14.003074004430
         C            1.965908644225     0.233279803893    -0.090554646303    12.000000000000
         C           -1.800054355775    -0.444076196107    -0.364730646303    12.000000000000
         C            2.969548344225    -0.532196796107    -0.937702146303    12.000000000000
         C            2.294163644225     0.237463803893     1.398368353697    12.000000000000
         C           -0.491995355775     0.329968803893    -0.189767646303    12.000000000000
         C           -1.971253355775    -1.505762196107     0.715389353697    12.000000000000
         H            1.879982644225     1.267574803893    -0.435054646303     1.007825032230
         H            0.604689644225    -1.375819196107    -0.431432646303     1.007825032230
         H           -1.785728355775    -0.922481196107    -1.356712646303     1.007825032230
         H            3.991613644225    -0.044437196107    -0.783067646303     1.007825032230
         H            3.082428644225    -1.548668196107    -0.606550646303     1.007825032230
         H            2.754073644225    -0.470471196107    -1.981001646303     1.007825032230
         H            1.523675644225     0.782640803893     1.948181353697     1.007825032230
         H            3.258563644225     0.721048803893     1.581354353697     1.007825032230
         H            2.345059644225    -0.786856196107     1.780924353697     1.007825032230
         H           -2.957893355775    -1.960951196107     0.612231353697     1.007825032230
         H           -1.907856355775    -1.036902196107     1.700048353697     1.007825032230
         H           -1.218147355775    -2.297116196107     0.647203353697     1.007825032230
         H           -2.443048355775     1.337604803893    -0.146967646303     1.007825032230

  Basis Set: AUG-CC-PVTZ
    Blend: AUG-CC-PVTZ
  Basis Set: (AUG-CC-PVTZ AUX)
    Blend: AUG-CC-PVTZ-JKFIT
	 Reference Energy          =    -439.1312252672806835 [Eh]
	 Singles Energy            =      -0.0000000000000000 [Eh]
	 Same-Spin Energy          =      -0.4460773623994867 [Eh]
	 Opposite-Spin Energy      =      -1.4641611800935661 [Eh]
	 Correlation Energy        =      -1.9102385424930528 [Eh]
	 Total Energy              =    -441.0414638097737452 [Eh]

	 ================> DF-SCS-MP2 Energies <==================
	-----------------------------------------------------------
	 SCS Same-Spin Scale       =       0.3333333333333333 [-]
	 SCS Opposite-Spin Scale   =       1.2000000000000000 [-]
	 SCS Same-Spin Energy      =      -0.1486924541331622 [Eh]
	 SCS Opposite-Spin Energy  =      -1.7569934161122793 [Eh]
	 SCS Correlation Energy    =      -1.9056858702454416 [Eh]
	 SCS Total Energy          =    -441.0369111375261468 [Eh]
	-----------------------------------------------------------

  Dipole Moment: [D]
     X:     3.2479      Y:    -2.9356      Z:    -0.0517     Total:     4.3783

*** Psi4 exiting successfully. Buy a developer a beer!
