                               Psi4 1.3.2 release

  ==> Input File <==

--------------------------------------------------------------------------
#psi4
#
memory 32 gb

molecule  {
0 1
  O       -2.8756320     0.4615000    -0.3051040
  O       -0.5220660     1.5374290     0.0548780
  N        0.6458428    -0.3579164    -0.3198579
  C        1.9647450     0.2268840    -0.0956960
  C       -1.8012180    -0.4504720    -0.3698720
  C        3.0255045    -0.4910129    -0.9144263
  C        2.2930000     0.2310680     1.3932270
  C       -0.4931590     0.3235730    -0.1949090
  C       -1.9724170    -1.5121580     0.7102480
  H        1.8788190     1.2611790    -0.4401960
  H        0.6035260    -1.3822150    -0.4365740
  H       -1.7868920    -0.9288770    -1.3618540
  H        3.9904500    -0.0508330    -0.7882090
  H        3.0812650    -1.5550640    -0.6116920
  H        2.7529100    -0.4768670    -1.9861430
  H        1.5225120     0.7762450     1.9430400
  H        3.2574000     0.7146530     1.5762130
  H        2.3438960    -0.7932520     1.7757830
  H       -2.9590570    -1.9673470     0.6070900
  H       -1.9090200    -1.0432980     1.6949070
  H       -1.2193110    -2.3035120     0.6420620
  H       -2.4442120     1.3312090    -0.1521090
units angstrom
no_reorient  #important for SAPT in psi4, default
symmetry c1  #important for SAPT in psi4, default
}

set PROPERTIES_ORIGIN ["COM"]
properties('MP2/aug-cc-pvtz', properties = ['dipole'])
--------------------------------------------------------------------------

    Molecular point group: c1
  Charge       = 0
  Multiplicity = 1
  Basis Set: AUG-CC-PVTZ
    Blend: AUG-CC-PVTZ
  Basis Set: (AUG-CC-PVTZ AUX)
    Blend: AUG-CC-PVTZ-JKFIT

    Orbital Energies [Eh]
    ---------------------

    Doubly Occupied:

       1A    -20.547198     2A    -20.528620     3A    -15.598344
       4A    -11.355397     5A    -11.296965     6A    -11.278160
       7A    -11.234069     8A    -11.230432     9A    -11.222282
      10A     -1.397001    11A     -1.345563    12A     -1.249529
      13A     -1.074319    14A     -1.024125    15A     -0.950043
      16A     -0.895588    17A     -0.823640    18A     -0.794606
      19A     -0.736768    20A     -0.678612    21A     -0.649604
      22A     -0.631280    23A     -0.627518    24A     -0.597297
      25A     -0.583121    26A     -0.568427    27A     -0.556630
      28A     -0.549482    29A     -0.540624    30A     -0.530155
      31A     -0.510829    32A     -0.500444    33A     -0.490419
      34A     -0.444456    35A     -0.433283    36A     -0.401499

  @DF-RHF Final Energy:  -439.13636419341094

   => Energetics <=

    Nuclear Repulsion Energy =            485.6051791198728438
    One-Electron Energy =               -1561.7304271418956887
    Two-Electron Energy =                 636.9888838286118471
    Total Energy =                       -439.1363641934109410
  Basis Set: (AUG-CC-PVTZ AUX)
    Blend: AUG-CC-PVTZ-RI
    Molecular point group: c1

    Geometry (in Angstrom), charge = 0, multiplicity = 1:

       Center              X                  Y                   Z               Mass
    ------------   -----------------  -----------------  -----------------  -----------------
         O           -2.876234244676     0.458241634949    -0.307721260303    15.994914619570
         O           -0.522668244676     1.534170634949     0.052260739697    15.994914619570
         N            0.645240555324    -0.361174765051    -0.322475160303    14.003074004430
         C            1.964142755324     0.223625634949    -0.098313260303    12.000000000000
         C           -1.801820244676    -0.453730365051    -0.372489260303    12.000000000000
         C            3.024902255324    -0.494271265051    -0.917043560303    12.000000000000
         C            2.292397755324     0.227809634949     1.390609739697    12.000000000000
         C           -0.493761244676     0.320314634949    -0.197526260303    12.000000000000
         C           -1.973019244676    -1.515416365051     0.707630739697    12.000000000000
         H            1.878216755324     1.257920634949    -0.442813260303     1.007825032230
         H            0.602923755324    -1.385473365051    -0.439191260303     1.007825032230
         H           -1.787494244676    -0.932135365051    -1.364471260303     1.007825032230
         H            3.989847755324    -0.054091365051    -0.790826260303     1.007825032230
         H            3.080662755324    -1.558322365051    -0.614309260303     1.007825032230
         H            2.752307755324    -0.480125365051    -1.988760260303     1.007825032230
         H            1.521909755324     0.772986634949     1.940422739697     1.007825032230
         H            3.256797755324     0.711394634949     1.573595739697     1.007825032230
         H            2.343293755324    -0.796510365051     1.773165739697     1.007825032230
         H           -2.959659244676    -1.970605365051     0.604472739697     1.007825032230
         H           -1.909622244676    -1.046556365051     1.692289739697     1.007825032230
         H           -1.219913244676    -2.306770365051     0.639444739697     1.007825032230
         H           -2.444814244676     1.327950634949    -0.154726260303     1.007825032230

  Basis Set: AUG-CC-PVTZ
    Blend: AUG-CC-PVTZ
  Basis Set: (AUG-CC-PVTZ AUX)
    Blend: AUG-CC-PVTZ-JKFIT
	 Reference Energy          =    -439.1363641934109410 [Eh]
	 Singles Energy            =      -0.0000000000000000 [Eh]
	 Same-Spin Energy          =      -0.4460981194711111 [Eh]
	 Opposite-Spin Energy      =      -1.4636249863607469 [Eh]
	 Correlation Energy        =      -1.9097231058318580 [Eh]
	 Total Energy              =    -441.0460872992427994 [Eh]

	 ================> DF-SCS-MP2 Energies <==================
	-----------------------------------------------------------
	 SCS Same-Spin Scale       =       0.3333333333333333 [-]
	 SCS Opposite-Spin Scale   =       1.2000000000000000 [-]
	 SCS Same-Spin Energy      =      -0.1486993731570370 [Eh]
	 SCS Opposite-Spin Energy  =      -1.7563499836328962 [Eh]
	 SCS Correlation Energy    =      -1.9050493567899331 [Eh]
	 SCS Total Energy          =    -441.0414135502009003 [Eh]
	-----------------------------------------------------------

  Dipole Moment: [D]
     X:     3.5541      Y:    -3.1191      Z:    -0.1845     Total:     4.7323

*** Psi4 exiting successfully. Buy a developer a beer!
