                               Psi4 1.3.2 release

  ==> Input File <==

--------------------------------------------------------------------------
#psi4
#
memory 32 gb

molecule  {
0 1
  O       -2.8756320     0.4615000    -0.3051040
  O       -0.5220660     1.5374290     0.0548780
  N        0.6562510    -0.3746370    -0.3360270
  C        1.9647450     0.2268840    -0.0956960
  C       -1.8012180    -0.4504720    -0.3698720
  C        3.0067800    -0.5070980    -0.9241520
  C        2.2930000     0.2310680     1.3932270
  C       -0.4978228     0.5194151    -0.1546087
  C       -1.9724170    -1.5121580     0.7102480
  H        1.8788190     1.2611790    -0.4401960
  H        0.6035260    -1.3822150    -0.4365740
  H       -1.7868920    -0.9288770    -1.3618540
  H        3.9904500    -0.0508330    -0.7882090
  H        3.0812650    -1.5550640    -0.6116920
  H        2.7529100    -0.4768670    -1.9861430
  H        1.5225120     0.7762450     1.9430400
  H        3.2574000     0.7146530     1.5762130
  H        2.3438960    -0.7932520     1.7757830
  H       -2.9590570    -1.9673470     0.6070900
  H       -1.9090200    -1.0432980     1.6949070
  H       -1.2193110    -2.3035120     0.6420620
  H       -2.4442120     1.3312090    -0.1521090
units angstrom
no_reorient  #important for SAPT in psi4, default
symmetry c1  #important for SAPT in psi4, default
}

set PROPERTIES_ORIGIN ["COM"]
properties('MP2/aug-cc-pvtz', properties = ['dipole'])
--------------------------------------------------------------------------

    Molecular point group: c1
  Charge       = 0
  Multiplicity = 1
  Basis Set: AUG-CC-PVTZ
    Blend: AUG-CC-PVTZ
  Basis Set: (AUG-CC-PVTZ AUX)
    Blend: AUG-CC-PVTZ-JKFIT

    Orbital Energies [Eh]
    ---------------------

    Doubly Occupied:

       1A    -20.574500     2A    -20.547873     3A    -15.563214
       4A    -11.351387     5A    -11.288451     6A    -11.263388
       7A    -11.224126     8A    -11.222495     9A    -11.215889
      10A     -1.550170    11A     -1.356350    12A     -1.214000
      13A     -1.046155    14A     -1.007912    15A     -0.941920
      16A     -0.869509    17A     -0.806316    18A     -0.782970
      19A     -0.752141    20A     -0.719224    21A     -0.677216
      22A     -0.636889    23A     -0.631978    24A     -0.614519
      25A     -0.580478    26A     -0.569924    27A     -0.563335
      28A     -0.551320    29A     -0.544865    30A     -0.532919
      31A     -0.529191    32A     -0.501803    33A     -0.488509
      34A     -0.442232    35A     -0.401567    36A     -0.386027

  @DF-RHF Final Energy:  -439.06379500321765

   => Energetics <=

    Nuclear Repulsion Energy =            486.3650459201672334
    One-Electron Energy =               -1562.9561555886764381
    Two-Electron Energy =                 637.5273146652915557
    Total Energy =                       -439.0637950032177059
  Basis Set: (AUG-CC-PVTZ AUX)
    Blend: AUG-CC-PVTZ-RI
    Molecular point group: c1

    Geometry (in Angstrom), charge = 0, multiplicity = 1:

       Center              X                  Y                   Z               Mass
    ------------   -----------------  -----------------  -----------------  -----------------
         O           -2.875205119330     0.443573267370    -0.308792838121    15.994914619570
         O           -0.521639119330     1.519502267370     0.051189161879    15.994914619570
         N            0.656677880670    -0.392563732630    -0.339715838121    14.003074004430
         C            1.965171880670     0.208957267370    -0.099384838121    12.000000000000
         C           -1.800791119330    -0.468398732630    -0.373560838121    12.000000000000
         C            3.007206880670    -0.525024732630    -0.927840838121    12.000000000000
         C            2.293426880670     0.213141267370     1.389538161879    12.000000000000
         C           -0.497395919330     0.501488367370    -0.158297538121    12.000000000000
         C           -1.971990119330    -1.530084732630     0.706559161879    12.000000000000
         H            1.879245880670     1.243252267370    -0.443884838121     1.007825032230
         H            0.603952880670    -1.400141732630    -0.440262838121     1.007825032230
         H           -1.786465119330    -0.946803732630    -1.365542838121     1.007825032230
         H            3.990876880670    -0.068759732630    -0.791897838121     1.007825032230
         H            3.081691880670    -1.572990732630    -0.615380838121     1.007825032230
         H            2.753336880670    -0.494793732630    -1.989831838121     1.007825032230
         H            1.522938880670     0.758318267370     1.939351161879     1.007825032230
         H            3.257826880670     0.696726267370     1.572524161879     1.007825032230
         H            2.344322880670    -0.811178732630     1.772094161879     1.007825032230
         H           -2.958630119330    -1.985273732630     0.603401161879     1.007825032230
         H           -1.908593119330    -1.061224732630     1.691218161879     1.007825032230
         H           -1.218884119330    -2.321438732630     0.638373161879     1.007825032230
         H           -2.443785119330     1.313282267370    -0.155797838121     1.007825032230

  Basis Set: AUG-CC-PVTZ
    Blend: AUG-CC-PVTZ
  Basis Set: (AUG-CC-PVTZ AUX)
    Blend: AUG-CC-PVTZ-JKFIT
	 Reference Energy          =    -439.0637950032176491 [Eh]
	 Singles Energy            =      -0.0000000000000000 [Eh]
	 Same-Spin Energy          =      -0.4423527935004902 [Eh]
	 Opposite-Spin Energy      =      -1.4570380367962685 [Eh]
	 Correlation Energy        =      -1.8993908302967588 [Eh]
	 Total Energy              =    -440.9631858335143875 [Eh]

	 ================> DF-SCS-MP2 Energies <==================
	-----------------------------------------------------------
	 SCS Same-Spin Scale       =       0.3333333333333333 [-]
	 SCS Opposite-Spin Scale   =       1.2000000000000000 [-]
	 SCS Same-Spin Energy      =      -0.1474509311668301 [Eh]
	 SCS Opposite-Spin Energy  =      -1.7484456441555223 [Eh]
	 SCS Correlation Energy    =      -1.8958965753223525 [Eh]
	 SCS Total Energy          =    -440.9596915785400029 [Eh]
	-----------------------------------------------------------

  Dipole Moment: [D]
     X:     2.7260      Y:    -1.7140      Z:     0.0534     Total:     3.2205

*** Psi4 exiting successfully. Buy a developer a beer!
