                               Psi4 1.3.2 release

  ==> Input File <==

--------------------------------------------------------------------------
#psi4
#
memory 32 gb

molecule  {
0 1
  O       -2.8756320     0.4615000    -0.3051040
  O       -0.5220660     1.5374290     0.0548780
  N        0.6562510    -0.3746370    -0.3360270
  C        1.9647450     0.2268840    -0.0956960
  C       -1.8012180    -0.4504720    -0.3698720
  C        3.0067800    -0.5070980    -0.9241520
  C        2.2930000     0.2310680     1.3932270
  C       -0.4875650     0.3087938    -0.1733845
  C       -1.9491184    -1.5048457     0.7208007
  H        1.8788190     1.2611790    -0.4401960
  H        0.6035260    -1.3822150    -0.4365740
  H       -1.7868920    -0.9288770    -1.3618540
  H        3.9904500    -0.0508330    -0.7882090
  H        3.0812650    -1.5550640    -0.6116920
  H        2.7529100    -0.4768670    -1.9861430
  H        1.5225120     0.7762450     1.9430400
  H        3.2574000     0.7146530     1.5762130
  H        2.3438960    -0.7932520     1.7757830
  H       -2.9590570    -1.9673470     0.6070900
  H       -1.9090200    -1.0432980     1.6949070
  H       -1.2193110    -2.3035120     0.6420620
  H       -2.4442120     1.3312090    -0.1521090
units angstrom
no_reorient  #important for SAPT in psi4, default
symmetry c1  #important for SAPT in psi4, default
}

set PROPERTIES_ORIGIN ["COM"]
properties('MP2/aug-cc-pvtz', properties = ['dipole'])
--------------------------------------------------------------------------

    Molecular point group: c1
  Charge       = 0
  Multiplicity = 1
  Basis Set: AUG-CC-PVTZ
    Blend: AUG-CC-PVTZ
  Basis Set: (AUG-CC-PVTZ AUX)
    Blend: AUG-CC-PVTZ-JKFIT

    Orbital Energies [Eh]
    ---------------------

    Doubly Occupied:

       1A    -20.547930     2A    -20.529537     3A    -15.597764
       4A    -11.357442     5A    -11.297657     6A    -11.278168
       7A    -11.233103     8A    -11.230635     9A    -11.223020
      10A     -1.392355    11A     -1.344108    12A     -1.250096
      13A     -1.074072    14A     -1.024971    15A     -0.950664
      16A     -0.894204    17A     -0.823848    18A     -0.796843
      19A     -0.736292    20A     -0.679261    21A     -0.650515
      22A     -0.630998    23A     -0.628884    24A     -0.597091
      25A     -0.581829    26A     -0.565279    27A     -0.555890
      28A     -0.546422    29A     -0.541510    30A     -0.531202
      31A     -0.510264    32A     -0.502348    33A     -0.491205
      34A     -0.445586    35A     -0.431826    36A     -0.402178

  @DF-RHF Final Energy:  -439.13571539394707

   => Energetics <=

    Nuclear Repulsion Energy =            485.5499712276574087
    One-Electron Energy =               -1561.6213852060107001
    Two-Electron Energy =                 636.9356985844062820
    Total Energy =                       -439.1357153939470663
  Basis Set: (AUG-CC-PVTZ AUX)
    Blend: AUG-CC-PVTZ-RI
    Molecular point group: c1

    Geometry (in Angstrom), charge = 0, multiplicity = 1:

       Center              X                  Y                   Z               Mass
    ------------   -----------------  -----------------  -----------------  -----------------
         O           -2.878276769207     0.462183549308    -0.308040120782    15.994914619570
         O           -0.524710769207     1.538112549308     0.051941879218    15.994914619570
         N            0.653606230793    -0.373953450692    -0.338963120782    14.003074004430
         C            1.962100230793     0.227567549308    -0.098632120782    12.000000000000
         C           -1.803862769207    -0.449788450692    -0.372808120782    12.000000000000
         C            3.004135230793    -0.506414450692    -0.927088120782    12.000000000000
         C            2.290355230793     0.231751549308     1.390290879218    12.000000000000
         C           -0.490209769207     0.309477349308    -0.176320620782    12.000000000000
         C           -1.951763169207    -1.504162150692     0.717864579218    12.000000000000
         H            1.876174230793     1.261862549308    -0.443132120782     1.007825032230
         H            0.600881230793    -1.381531450692    -0.439510120782     1.007825032230
         H           -1.789536769207    -0.928193450692    -1.364790120782     1.007825032230
         H            3.987805230793    -0.050149450692    -0.791145120782     1.007825032230
         H            3.078620230793    -1.554380450692    -0.614628120782     1.007825032230
         H            2.750265230793    -0.476183450692    -1.989079120782     1.007825032230
         H            1.519867230793     0.776928549308     1.940103879218     1.007825032230
         H            3.254755230793     0.715336549308     1.573276879218     1.007825032230
         H            2.341251230793    -0.792568450692     1.772846879218     1.007825032230
         H           -2.961701769207    -1.966663450692     0.604153879218     1.007825032230
         H           -1.911664769207    -1.042614450692     1.691970879218     1.007825032230
         H           -1.221955769207    -2.302828450692     0.639125879218     1.007825032230
         H           -2.446856769207     1.331892549308    -0.155045120782     1.007825032230

  Basis Set: AUG-CC-PVTZ
    Blend: AUG-CC-PVTZ
  Basis Set: (AUG-CC-PVTZ AUX)
    Blend: AUG-CC-PVTZ-JKFIT
	 Reference Energy          =    -439.1357153939470663 [Eh]
	 Singles Energy            =      -0.0000000000000000 [Eh]
	 Same-Spin Energy          =      -0.4463250964097257 [Eh]
	 Opposite-Spin Energy      =      -1.4641463239421837 [Eh]
	 Correlation Energy        =      -1.9104714203519095 [Eh]
	 Total Energy              =    -441.0461868142989488 [Eh]

	 ================> DF-SCS-MP2 Energies <==================
	-----------------------------------------------------------
	 SCS Same-Spin Scale       =       0.3333333333333333 [-]
	 SCS Opposite-Spin Scale   =       1.2000000000000000 [-]
	 SCS Same-Spin Energy      =      -0.1487750321365752 [Eh]
	 SCS Opposite-Spin Energy  =      -1.7569755887306204 [Eh]
	 SCS Correlation Energy    =      -1.9057506208671957 [Eh]
	 SCS Total Energy          =    -441.0414660148142616 [Eh]
	-----------------------------------------------------------

  Dipole Moment: [D]
     X:     3.5330      Y:    -3.1280      Z:    -0.1414     Total:     4.7209

*** Psi4 exiting successfully. Buy a developer a beer!
