                               Psi4 1.3.2 release

  ==> Input File <==

--------------------------------------------------------------------------
#psi4
#
memory 32 gb

molecule  {
0 1
  O       -2.8756320     0.4615000    -0.3051040
  O       -0.5220660     1.5374290     0.0548780
  N        0.6562510    -0.3746370    -0.3360270
  C        1.8751251     0.1856853    -0.1121565
  C       -1.8012180    -0.4504720    -0.3698720
  C        3.0067800    -0.5070980    -0.9241520
  C        2.2930000     0.2310680     1.3932270
  C       -0.4931590     0.3235730    -0.1949090
  C       -1.9724170    -1.5121580     0.7102480
  H        1.8788190     1.2611790    -0.4401960
  H        0.6035260    -1.3822150    -0.4365740
  H       -1.7868920    -0.9288770    -1.3618540
  H        3.9904500    -0.0508330    -0.7882090
  H        3.0812650    -1.5550640    -0.6116920
  H        2.7529100    -0.4768670    -1.9861430
  H        1.5225120     0.7762450     1.9430400
  H        3.2574000     0.7146530     1.5762130
  H        2.3438960    -0.7932520     1.7757830
  H       -2.9590570    -1.9673470     0.6070900
  H       -1.9090200    -1.0432980     1.6949070
  H       -1.2193110    -2.3035120     0.6420620
  H       -2.4442120     1.3312090    -0.1521090
units angstrom
no_reorient  #important for SAPT in psi4, default
symmetry c1  #important for SAPT in psi4, default
}

set PROPERTIES_ORIGIN ["COM"]
properties('MP2/aug-cc-pvtz', properties = ['dipole'])
--------------------------------------------------------------------------

    Molecular point group: c1
  Charge       = 0
  Multiplicity = 1
  Basis Set: AUG-CC-PVTZ
    Blend: AUG-CC-PVTZ
  Basis Set: (AUG-CC-PVTZ AUX)
    Blend: AUG-CC-PVTZ-JKFIT

    Orbital Energies [Eh]
    ---------------------

    Doubly Occupied:

       1A    -20.550510     2A    -20.537688     3A    -15.600889
       4A    -11.363211     5A    -11.300660     6A    -11.274207
       7A    -11.233269     8A    -11.231151     9A    -11.219446
      10A     -1.403495    11A     -1.350185    12A     -1.272616
      13A     -1.066729    14A     -1.022258    15A     -0.941759
      16A     -0.904362    17A     -0.829282    18A     -0.805435
      19A     -0.739019    20A     -0.684118    21A     -0.654848
      22A     -0.639175    23A     -0.627008    24A     -0.595257
      25A     -0.583269    26A     -0.569641    27A     -0.557174
      28A     -0.549213    29A     -0.541256    30A     -0.532164
      31A     -0.519858    32A     -0.492206    33A     -0.476001
      34A     -0.447522    35A     -0.440199    36A     -0.395525

  @DF-RHF Final Energy:  -439.12695144795492

   => Energetics <=

    Nuclear Repulsion Energy =            486.5892274978198202
    One-Electron Energy =               -1563.5311484427638788
    Two-Electron Energy =                 637.8149694969891925
    Total Energy =                       -439.1269514479548661
  Basis Set: (AUG-CC-PVTZ AUX)
    Blend: AUG-CC-PVTZ-RI
    Molecular point group: c1

    Geometry (in Angstrom), charge = 0, multiplicity = 1:

       Center              X                  Y                   Z               Mass
    ------------   -----------------  -----------------  -----------------  -----------------
         O           -2.867428498652     0.465271254763    -0.303597128678    15.994914619570
         O           -0.513862498652     1.541200254763     0.056384871322    15.994914619570
         N            0.664454501348    -0.370865745237    -0.334520128678    14.003074004430
         C            1.883328601348     0.189456554763    -0.110649628678    12.000000000000
         C           -1.793014498652    -0.446700745237    -0.368365128678    12.000000000000
         C            3.014983501348    -0.503326745237    -0.922645128678    12.000000000000
         C            2.301203501348     0.234839254763     1.394733871322    12.000000000000
         C           -0.484955498652     0.327344254763    -0.193402128678    12.000000000000
         C           -1.964213498652    -1.508386745237     0.711754871322    12.000000000000
         H            1.887022501348     1.264950254763    -0.438689128678     1.007825032230
         H            0.611729501348    -1.378443745237    -0.435067128678     1.007825032230
         H           -1.778688498652    -0.925105745237    -1.360347128678     1.007825032230
         H            3.998653501348    -0.047061745237    -0.786702128678     1.007825032230
         H            3.089468501348    -1.551292745237    -0.610185128678     1.007825032230
         H            2.761113501348    -0.473095745237    -1.984636128678     1.007825032230
         H            1.530715501348     0.780016254763     1.944546871322     1.007825032230
         H            3.265603501348     0.718424254763     1.577719871322     1.007825032230
         H            2.352099501348    -0.789480745237     1.777289871322     1.007825032230
         H           -2.950853498652    -1.963575745237     0.608596871322     1.007825032230
         H           -1.900816498652    -1.039526745237     1.696413871322     1.007825032230
         H           -1.211107498652    -2.299740745237     0.643568871322     1.007825032230
         H           -2.436008498652     1.334980254763    -0.150602128678     1.007825032230

  Basis Set: AUG-CC-PVTZ
    Blend: AUG-CC-PVTZ
  Basis Set: (AUG-CC-PVTZ AUX)
    Blend: AUG-CC-PVTZ-JKFIT
	 Reference Energy          =    -439.1269514479549230 [Eh]
	 Singles Energy            =      -0.0000000000000000 [Eh]
	 Same-Spin Energy          =      -0.4467186014863729 [Eh]
	 Opposite-Spin Energy      =      -1.4643159674524147 [Eh]
	 Correlation Energy        =      -1.9110345689387875 [Eh]
	 Total Energy              =    -441.0379860168936830 [Eh]

	 ================> DF-SCS-MP2 Energies <==================
	-----------------------------------------------------------
	 SCS Same-Spin Scale       =       0.3333333333333333 [-]
	 SCS Opposite-Spin Scale   =       1.2000000000000000 [-]
	 SCS Same-Spin Energy      =      -0.1489062004954576 [Eh]
	 SCS Opposite-Spin Energy  =      -1.7571791609428975 [Eh]
	 SCS Correlation Energy    =      -1.9060853614383551 [Eh]
	 SCS Total Energy          =    -441.0330368093932520 [Eh]
	-----------------------------------------------------------

  Dipole Moment: [D]
     X:     3.1064      Y:    -3.0821      Z:    -0.2076     Total:     4.3810

*** Psi4 exiting successfully. Buy a developer a beer!
