                               Psi4 1.3.2 release

  ==> Input File <==

--------------------------------------------------------------------------
#psi4
#
memory 32 gb

molecule  {
0 1
  O       -2.8756320     0.4615000    -0.3051040
  O       -0.5328796     1.5371405     0.0547942
  N        0.6499911    -0.3844321    -0.3380573
  C        1.9647450     0.2268840    -0.0956960
  C       -1.8012180    -0.4504720    -0.3698720
  C        3.0067800    -0.5070980    -0.9241520
  C        2.2930000     0.2310680     1.3932270
  C       -0.4931590     0.3235730    -0.1949090
  C       -1.9724170    -1.5121580     0.7102480
  H        1.8788190     1.2611790    -0.4401960
  H        0.6035260    -1.3822150    -0.4365740
  H       -1.7868920    -0.9288770    -1.3618540
  H        3.9904500    -0.0508330    -0.7882090
  H        3.0812650    -1.5550640    -0.6116920
  H        2.7529100    -0.4768670    -1.9861430
  H        1.5225120     0.7762450     1.9430400
  H        3.2574000     0.7146530     1.5762130
  H        2.3438960    -0.7932520     1.7757830
  H       -2.9590570    -1.9673470     0.6070900
  H       -1.9090200    -1.0432980     1.6949070
  H       -1.2193110    -2.3035120     0.6420620
  H       -2.4442120     1.3312090    -0.1521090
units angstrom
no_reorient  #important for SAPT in psi4, default
symmetry c1  #important for SAPT in psi4, default
}

set PROPERTIES_ORIGIN ["COM"]
properties('MP2/aug-cc-pvtz', properties = ['dipole'])
--------------------------------------------------------------------------

    Molecular point group: c1
  Charge       = 0
  Multiplicity = 1
  Basis Set: AUG-CC-PVTZ
    Blend: AUG-CC-PVTZ
  Basis Set: (AUG-CC-PVTZ AUX)
    Blend: AUG-CC-PVTZ-JKFIT

    Orbital Energies [Eh]
    ---------------------

    Doubly Occupied:

       1A    -20.546641     2A    -20.533121     3A    -15.595636
       4A    -11.358454     5A    -11.296056     6A    -11.278508
       7A    -11.232685     8A    -11.230205     9A    -11.222948
      10A     -1.397195    11A     -1.344787    12A     -1.248234
      13A     -1.072516    14A     -1.023475    15A     -0.950262
      16A     -0.894238    17A     -0.821806    18A     -0.797486
      19A     -0.735816    20A     -0.678797    21A     -0.649542
      22A     -0.632856    23A     -0.628567    24A     -0.597990
      25A     -0.581199    26A     -0.566795    27A     -0.555516
      28A     -0.547687    29A     -0.539349    30A     -0.530047
      31A     -0.511719    32A     -0.503068    33A     -0.492151
      34A     -0.444202    35A     -0.433900    36A     -0.402754

  @DF-RHF Final Energy:  -439.13791039698378

   => Energetics <=

    Nuclear Repulsion Energy =            485.2192247785516770
    One-Electron Energy =               -1560.9618555357844798
    Two-Electron Energy =                 636.6047203602489617
    Total Energy =                       -439.1379103969837843
  Basis Set: (AUG-CC-PVTZ AUX)
    Blend: AUG-CC-PVTZ-RI
    Molecular point group: c1

    Geometry (in Angstrom), charge = 0, multiplicity = 1:

       Center              X                  Y                   Z               Mass
    ------------   -----------------  -----------------  -----------------  -----------------
         O           -2.873643996240     0.462581530855    -0.304876778247    15.994914619570
         O           -0.530891596240     1.538222030855     0.055021421753    15.994914619570
         N            0.651979103760    -0.383350569145    -0.337830078247    14.003074004430
         C            1.966733003760     0.227965530855    -0.095468778247    12.000000000000
         C           -1.799229996240    -0.449390469145    -0.369644778247    12.000000000000
         C            3.008768003760    -0.506016469145    -0.923924778247    12.000000000000
         C            2.294988003760     0.232149530855     1.393454221753    12.000000000000
         C           -0.491170996240     0.324654530855    -0.194681778247    12.000000000000
         C           -1.970428996240    -1.511076469145     0.710475221753    12.000000000000
         H            1.880807003760     1.262260530855    -0.439968778247     1.007825032230
         H            0.605514003760    -1.381133469145    -0.436346778247     1.007825032230
         H           -1.784903996240    -0.927795469145    -1.361626778247     1.007825032230
         H            3.992438003760    -0.049751469145    -0.787981778247     1.007825032230
         H            3.083253003760    -1.553982469145    -0.611464778247     1.007825032230
         H            2.754898003760    -0.475785469145    -1.985915778247     1.007825032230
         H            1.524500003760     0.777326530855     1.943267221753     1.007825032230
         H            3.259388003760     0.715734530855     1.576440221753     1.007825032230
         H            2.345884003760    -0.792170469145     1.776010221753     1.007825032230
         H           -2.957068996240    -1.966265469145     0.607317221753     1.007825032230
         H           -1.907031996240    -1.042216469145     1.695134221753     1.007825032230
         H           -1.217322996240    -2.302430469145     0.642289221753     1.007825032230
         H           -2.442223996240     1.332290530855    -0.151881778247     1.007825032230

  Basis Set: AUG-CC-PVTZ
    Blend: AUG-CC-PVTZ
  Basis Set: (AUG-CC-PVTZ AUX)
    Blend: AUG-CC-PVTZ-JKFIT
	 Reference Energy          =    -439.1379103969837843 [Eh]
	 Singles Energy            =      -0.0000000000000000 [Eh]
	 Same-Spin Energy          =      -0.4459198306499197 [Eh]
	 Opposite-Spin Energy      =      -1.4635044152522383 [Eh]
	 Correlation Energy        =      -1.9094242459021580 [Eh]
	 Total Energy              =    -441.0473346428859145 [Eh]

	 ================> DF-SCS-MP2 Energies <==================
	-----------------------------------------------------------
	 SCS Same-Spin Scale       =       0.3333333333333333 [-]
	 SCS Opposite-Spin Scale   =       1.2000000000000000 [-]
	 SCS Same-Spin Energy      =      -0.1486399435499732 [Eh]
	 SCS Opposite-Spin Energy  =      -1.7562052983026859 [Eh]
	 SCS Correlation Energy    =      -1.9048452418526591 [Eh]
	 SCS Total Energy          =    -441.0427556388364678 [Eh]
	-----------------------------------------------------------

  Dipole Moment: [D]
     X:     3.5242      Y:    -3.0422      Z:    -0.1356     Total:     4.6576

*** Psi4 exiting successfully. Buy a developer a beer!
