                               Psi4 1.3.2 release

  ==> Input File <==

--------------------------------------------------------------------------
#psi4
#
memory 32 gb

molecule  {
0 1
  O       -2.8553839     0.4774481    -0.2358883
  O       -0.5220660     1.5374290     0.0548780
  N        0.6562510    -0.3746370    -0.3360270
  C        1.9647450     0.2268840    -0.0956960
  C       -1.8012180    -0.4504720    -0.3698720
  C        3.0067800    -0.5070980    -0.9241520
  C        2.2930000     0.2310680     1.3932270
  C       -0.4931590     0.3235730    -0.1949090
  C       -1.9724170    -1.5121580     0.7102480
  H        1.8788190     1.2611790    -0.4401960
  H        0.6035260    -1.3822150    -0.4365740
  H       -1.7406349    -0.9589119    -1.3450250
  H        3.9904500    -0.0508330    -0.7882090
  H        3.0812650    -1.5550640    -0.6116920
  H        2.7529100    -0.4768670    -1.9861430
  H        1.5225120     0.7762450     1.9430400
  H        3.2574000     0.7146530     1.5762130
  H        2.3438960    -0.7932520     1.7757830
  H       -2.9590570    -1.9673470     0.6070900
  H       -1.9090200    -1.0432980     1.6949070
  H       -1.2193110    -2.3035120     0.6420620
  H       -2.4442120     1.3312090    -0.1521090
units angstrom
no_reorient  #important for SAPT in psi4, default
symmetry c1  #important for SAPT in psi4, default
}

set PROPERTIES_ORIGIN ["COM"]
properties('MP2/aug-cc-pvtz', properties = ['dipole'])
--------------------------------------------------------------------------

    Molecular point group: c1
  Charge       = 0
  Multiplicity = 1
  Basis Set: AUG-CC-PVTZ
    Blend: AUG-CC-PVTZ
  Basis Set: (AUG-CC-PVTZ AUX)
    Blend: AUG-CC-PVTZ-JKFIT

    Orbital Energies [Eh]
    ---------------------

    Doubly Occupied:

       1A    -20.546687     2A    -20.530808     3A    -15.594815
       4A    -11.356780     5A    -11.298891     6A    -11.276695
       7A    -11.231967     8A    -11.230063     9A    -11.221786
      10A     -1.398760    11A     -1.350116    12A     -1.247228
      13A     -1.072554    14A     -1.025374    15A     -0.949430
      16A     -0.895292    17A     -0.822700    18A     -0.794555
      19A     -0.737794    20A     -0.684000    21A     -0.653744
      22A     -0.631981    23A     -0.628106    24A     -0.596357
      25A     -0.581444    26A     -0.566351    27A     -0.554768
      28A     -0.547756    29A     -0.540344    30A     -0.529799
      31A     -0.512010    32A     -0.502219    33A     -0.490742
      34A     -0.447894    35A     -0.432630    36A     -0.400508

  @DF-RHF Final Energy:  -439.13738374211124

   => Energetics <=

    Nuclear Repulsion Energy =            486.0167023745787560
    One-Electron Energy =               -1562.5422783605736186
    Two-Electron Energy =                 637.3881922438837364
    Total Energy =                       -439.1373837421111830
  Basis Set: (AUG-CC-PVTZ AUX)
    Blend: AUG-CC-PVTZ-RI
    Molecular point group: c1

    Geometry (in Angstrom), charge = 0, multiplicity = 1:

       Center              X                  Y                   Z               Mass
    ------------   -----------------  -----------------  -----------------  -----------------
         O           -2.858210022892     0.475733218671    -0.244462588469    15.994914619570
         O           -0.524892122892     1.535714118671     0.046303711531    15.994914619570
         N            0.653424877108    -0.376351881329    -0.344601288469    14.003074004430
         C            1.961918877108     0.225169118671    -0.104270288469    12.000000000000
         C           -1.804044122892    -0.452186881329    -0.378446288469    12.000000000000
         C            3.003953877108    -0.508812881329    -0.932726288469    12.000000000000
         C            2.290173877108     0.229353118671     1.384652711531    12.000000000000
         C           -0.495985122892     0.321858118671    -0.203483288469    12.000000000000
         C           -1.975243122892    -1.513872881329     0.701673711531    12.000000000000
         H            1.875992877108     1.259464118671    -0.448770288469     1.007825032230
         H            0.600699877108    -1.383929881329    -0.445148288469     1.007825032230
         H           -1.743461022892    -0.960626781329    -1.353599288469     1.007825032230
         H            3.987623877108    -0.052547881329    -0.796783288469     1.007825032230
         H            3.078438877108    -1.556778881329    -0.620266288469     1.007825032230
         H            2.750083877108    -0.478581881329    -1.994717288469     1.007825032230
         H            1.519685877108     0.774530118671     1.934465711531     1.007825032230
         H            3.254573877108     0.712938118671     1.567638711531     1.007825032230
         H            2.341069877108    -0.794966881329     1.767208711531     1.007825032230
         H           -2.961883122892    -1.969061881329     0.598515711531     1.007825032230
         H           -1.911846122892    -1.045012881329     1.686332711531     1.007825032230
         H           -1.222137122892    -2.305226881329     0.633487711531     1.007825032230
         H           -2.447038122892     1.329494118671    -0.160683288469     1.007825032230

  Basis Set: AUG-CC-PVTZ
    Blend: AUG-CC-PVTZ
  Basis Set: (AUG-CC-PVTZ AUX)
    Blend: AUG-CC-PVTZ-JKFIT
	 Reference Energy          =    -439.1373837421112398 [Eh]
	 Singles Energy            =      -0.0000000000000000 [Eh]
	 Same-Spin Energy          =      -0.4456773792109601 [Eh]
	 Opposite-Spin Energy      =      -1.4627042409796212 [Eh]
	 Correlation Energy        =      -1.9083816201905812 [Eh]
	 Total Energy              =    -441.0457653623018359 [Eh]

	 ================> DF-SCS-MP2 Energies <==================
	-----------------------------------------------------------
	 SCS Same-Spin Scale       =       0.3333333333333333 [-]
	 SCS Opposite-Spin Scale   =       1.2000000000000000 [-]
	 SCS Same-Spin Energy      =      -0.1485591264036533 [Eh]
	 SCS Opposite-Spin Energy  =      -1.7552450891755453 [Eh]
	 SCS Correlation Energy    =      -1.9038042155791988 [Eh]
	 SCS Total Energy          =    -441.0411879576904539 [Eh]
	-----------------------------------------------------------

  Dipole Moment: [D]
     X:     3.3801      Y:    -3.0706      Z:    -0.2816     Total:     4.5753

*** Psi4 exiting successfully. Buy a developer a beer!
