                               Psi4 1.4a3.dev225

  ==> Input File <==

--------------------------------------------------------------------------
#psi4
#
memory 32 gb

molecule  {
0 1
  O        2.9110620    -0.5703060    -0.4523520
  O        0.5539390    -1.5540470     0.1662040
  N       -0.5943370     0.3369340    -0.3930300
  C       -1.9154150    -0.2304160    -0.1256420
  C        1.8655780     0.3788930    -0.3941620
  C       -2.9513150     0.5221750    -0.9483650
  C       -2.2232580    -0.2086170     1.3682650
  C        0.5874853    -0.3419029    -0.1976790
  C        2.1035320     1.3624180     0.7499890
  H       -1.8664900    -1.2716350    -0.4595930
  H       -0.5281980     1.3181660    -0.6377390
  H        1.8317100     0.9202690    -1.3505730
  H       -3.9433690     0.0896600    -0.7945050
  H       -2.9965010     1.5743390    -0.6446630
  H       -2.7149650     0.4749500    -2.0147890
  H       -1.4563020    -0.7629570     1.9136170
  H       -3.1950150    -0.6709470     1.5682930
  H       -2.2473660     0.8219210     1.7368640
  H        3.0888910     1.8183940     0.6312910
  H        2.0827360     0.8223960     1.7004970
  H        1.3487660     2.1553220     0.7756360
  H        2.4958040    -1.4028240    -0.1381920
units angstrom
no_reorient  #important for SAPT in psi4, default
symmetry c1  #important for SAPT in psi4, default
}

set PROPERTIES_ORIGIN ["COM"]
properties('MP2/aug-cc-pvtz', properties = ['dipole'])
--------------------------------------------------------------------------

    Molecular point group: c1
  Charge       = 0
  Multiplicity = 1
  Basis Set: AUG-CC-PVTZ
    Blend: AUG-CC-PVTZ
  Basis Set: (AUG-CC-PVTZ AUX)
    Blend: AUG-CC-PVTZ-JKFIT

    Orbital Energies [Eh]
    ---------------------

    Doubly Occupied:

       1A    -20.551194     2A    -20.530844     3A    -15.595331
       4A    -11.362596     5A    -11.299777     6A    -11.277394
       7A    -11.233444     8A    -11.232547     9A    -11.219615
      10A     -1.388938    11A     -1.342500    12A     -1.237438
      13A     -1.073441    14A     -1.027898    15A     -0.948126
      16A     -0.903827    17A     -0.821642    18A     -0.787421
      19A     -0.742066    20A     -0.677531    21A     -0.644077
      22A     -0.631720    23A     -0.627730    24A     -0.589157
      25A     -0.583765    26A     -0.573111    27A     -0.553960
      28A     -0.548074    29A     -0.537433    30A     -0.525191
      31A     -0.512937    32A     -0.499233    33A     -0.488795
      34A     -0.448955    35A     -0.437859    36A     -0.397179

  @DF-RHF Final Energy:  -439.13144250361034

   => Energetics <=

    Nuclear Repulsion Energy =            484.8761383931974365
    One-Electron Energy =               -1560.3096694401990590
    Two-Electron Energy =                 636.3020885433912781
    Total Energy =                       -439.1314425036104012
  Basis Set: (AUG-CC-PVTZ AUX)
    Blend: AUG-CC-PVTZ-RI
    Molecular point group: c1

    Geometry (in Angstrom), charge = 0, multiplicity = 1:

       Center              X                  Y                   Z               Mass
    ------------   -----------------  -----------------  -----------------  -----------------
         O            2.845952897183    -0.528069246371    -0.434444051536    15.994914619570
         O            0.488829897183    -1.511810246371     0.184111948464    15.994914619570
         N           -0.659446102817     0.379170753629    -0.375122051536    14.003074004430
         C           -1.980524102817    -0.188179246371    -0.107734051536    12.000000000000
         C            1.800468897183     0.421129753629    -0.376254051536    12.000000000000
         C           -3.016424102817     0.564411753629    -0.930457051536    12.000000000000
         C           -2.288367102817    -0.166380246371     1.386172948464    12.000000000000
         C            0.522376197183    -0.299666146371    -0.179771051536    12.000000000000
         C            2.038422897183     1.404654753629     0.767896948464    12.000000000000
         H           -1.931599102817    -1.229398246371    -0.441685051536     1.007825032230
         H           -0.593307102817     1.360402753629    -0.619831051536     1.007825032230
         H            1.766600897183     0.962505753629    -1.332665051536     1.007825032230
         H           -4.008478102817     0.131896753629    -0.776597051536     1.007825032230
         H           -3.061610102817     1.616575753629    -0.626755051536     1.007825032230
         H           -2.780074102817     0.517186753629    -1.996881051536     1.007825032230
         H           -1.521411102817    -0.720720246371     1.931524948464     1.007825032230
         H           -3.260124102817    -0.628710246371     1.586200948464     1.007825032230
         H           -2.312475102817     0.864157753629     1.754771948464     1.007825032230
         H            3.023781897183     1.860630753629     0.649198948464     1.007825032230
         H            2.017626897183     0.864632753629     1.718404948464     1.007825032230
         H            1.283656897183     2.197558753629     0.793543948464     1.007825032230
         H            2.430694897183    -1.360587246371    -0.120284051536     1.007825032230

  Basis Set: AUG-CC-PVTZ
    Blend: AUG-CC-PVTZ
  Basis Set: (AUG-CC-PVTZ AUX)
    Blend: AUG-CC-PVTZ-JKFIT
	 Reference Energy          =    -439.1314425036103444 [Eh]
	 Singles Energy            =      -0.0000000000000000 [Eh]
	 Same-Spin Energy          =      -0.4468753831893361 [Eh]
	 Opposite-Spin Energy      =      -1.4655977793426818 [Eh]
	 Correlation Energy        =      -1.9124731625320179 [Eh]
	 Total Energy              =    -441.0439156661423681 [Eh]

	 ================> DF-SCS-MP2 Energies <==================
	-----------------------------------------------------------
	 SCS Same-Spin Scale       =       0.3333333333333333 [-]
	 SCS Opposite-Spin Scale   =       1.2000000000000000 [-]
	 SCS Same-Spin Energy      =      -0.1489584610631120 [Eh]
	 SCS Opposite-Spin Energy  =      -1.7587173352112180 [Eh]
	 SCS Correlation Energy    =      -1.9076757962743300 [Eh]
	 SCS Total Energy          =    -441.0391182998846489 [Eh]
	-----------------------------------------------------------

  Dipole Moment: [D]
     X:    -3.1746      Y:     3.2190      Z:    -0.1884     Total:     4.5250

*** Psi4 exiting successfully. Buy a developer a beer!
