                               Psi4 1.3.2 release

  ==> Input File <==

--------------------------------------------------------------------------
#psi4
#
memory 32 gb

molecule  {
0 1
  O       -2.8756320     0.4615000    -0.3051040
  O       -0.5220660     1.5374290     0.0548780
  N        0.6562510    -0.3746370    -0.3360270
  C        1.9647450     0.2268840    -0.0956960
  C       -1.8012180    -0.4504720    -0.3698720
  C        3.0067800    -0.5070980    -0.9241520
  C        2.2930000     0.2310680     1.3932270
  C       -0.4931590     0.3235730    -0.1949090
  C       -1.9724170    -1.5121580     0.7102480
  H        1.8788190     1.2611790    -0.4401960
  H        0.5983261    -1.4815862    -0.4464903
  H       -1.7868920    -0.9288770    -1.3618540
  H        3.9904500    -0.0508330    -0.7882090
  H        3.0812650    -1.5550640    -0.6116920
  H        2.7529100    -0.4768670    -1.9861430
  H        1.5225120     0.7762450     1.9430400
  H        3.2574000     0.7146530     1.5762130
  H        2.3438960    -0.7932520     1.7757830
  H       -2.9590570    -1.9673470     0.6070900
  H       -1.9090200    -1.0432980     1.6949070
  H       -1.2193110    -2.3035120     0.6420620
  H       -2.4442120     1.3312090    -0.1521090
units angstrom
no_reorient  #important for SAPT in psi4, default
symmetry c1  #important for SAPT in psi4, default
}

set PROPERTIES_ORIGIN ["COM"]
properties('MP2/aug-cc-pvtz', properties = ['dipole'])
--------------------------------------------------------------------------

    Molecular point group: c1
  Charge       = 0
  Multiplicity = 1
  Basis Set: AUG-CC-PVTZ
    Blend: AUG-CC-PVTZ
  Basis Set: (AUG-CC-PVTZ AUX)
    Blend: AUG-CC-PVTZ-JKFIT

    Orbital Energies [Eh]
    ---------------------

    Doubly Occupied:

       1A    -20.547414     2A    -20.532111     3A    -15.604149
       4A    -11.358016     5A    -11.296865     6A    -11.277414
       7A    -11.232088     8A    -11.230571     9A    -11.222031
      10A     -1.396517    11A     -1.345371    12A     -1.238738
      13A     -1.070913    14A     -1.022423    15A     -0.949425
      16A     -0.893985    17A     -0.820268    18A     -0.776519
      19A     -0.735452    20A     -0.677904    21A     -0.646908
      22A     -0.628469    23A     -0.627467    24A     -0.594267
      25A     -0.581188    26A     -0.566878    27A     -0.554843
      28A     -0.547608    29A     -0.538900    30A     -0.529983
      31A     -0.510692    32A     -0.502533    33A     -0.491066
      34A     -0.444576    35A     -0.433775    36A     -0.399951

  @DF-RHF Final Energy:  -439.12703203334405

   => Energetics <=

    Nuclear Repulsion Energy =            484.7716863517406409
    One-Electron Energy =               -1560.1428789344261077
    Two-Electron Energy =                 636.2441605493414727
    Total Energy =                       -439.1270320333441077
  Basis Set: (AUG-CC-PVTZ AUX)
    Blend: AUG-CC-PVTZ-RI
    Molecular point group: c1

    Geometry (in Angstrom), charge = 0, multiplicity = 1:

       Center              X                  Y                   Z               Mass
    ------------   -----------------  -----------------  -----------------  -----------------
         O           -2.875592053647     0.462263994884    -0.305027638124    15.994914619570
         O           -0.522026053647     1.538192994884     0.054954361876    15.994914619570
         N            0.656290946353    -0.373873005116    -0.335950638124    14.003074004430
         C            1.964784946353     0.227647994884    -0.095619638124    12.000000000000
         C           -1.801178053647    -0.449708005116    -0.369795638124    12.000000000000
         C            3.006819946353    -0.506334005116    -0.924075638124    12.000000000000
         C            2.293039946353     0.231831994884     1.393303361876    12.000000000000
         C           -0.493119053647     0.324336994884    -0.194832638124    12.000000000000
         C           -1.972377053647    -1.511394005116     0.710324361876    12.000000000000
         H            1.878858946353     1.261942994884    -0.440119638124     1.007825032230
         H            0.598366046353    -1.480822205116    -0.446413938124     1.007825032230
         H           -1.786852053647    -0.928113005116    -1.361777638124     1.007825032230
         H            3.990489946353    -0.050069005116    -0.788132638124     1.007825032230
         H            3.081304946353    -1.554300005116    -0.611615638124     1.007825032230
         H            2.752949946353    -0.476103005116    -1.986066638124     1.007825032230
         H            1.522551946353     0.777008994884     1.943116361876     1.007825032230
         H            3.257439946353     0.715416994884     1.576289361876     1.007825032230
         H            2.343935946353    -0.792488005116     1.775859361876     1.007825032230
         H           -2.959017053647    -1.966583005116     0.607166361876     1.007825032230
         H           -1.908980053647    -1.042534005116     1.694983361876     1.007825032230
         H           -1.219271053647    -2.302748005116     0.642138361876     1.007825032230
         H           -2.444172053647     1.331972994884    -0.152032638124     1.007825032230

  Basis Set: AUG-CC-PVTZ
    Blend: AUG-CC-PVTZ
  Basis Set: (AUG-CC-PVTZ AUX)
    Blend: AUG-CC-PVTZ-JKFIT
	 Reference Energy          =    -439.1270320333440509 [Eh]
	 Singles Energy            =      -0.0000000000000000 [Eh]
	 Same-Spin Energy          =      -0.4469037977209678 [Eh]
	 Opposite-Spin Energy      =      -1.4657360287962362 [Eh]
	 Correlation Energy        =      -1.9126398265172040 [Eh]
	 Total Energy              =    -441.0396718598612438 [Eh]

	 ================> DF-SCS-MP2 Energies <==================
	-----------------------------------------------------------
	 SCS Same-Spin Scale       =       0.3333333333333333 [-]
	 SCS Opposite-Spin Scale   =       1.2000000000000000 [-]
	 SCS Same-Spin Energy      =      -0.1489679325736559 [Eh]
	 SCS Opposite-Spin Energy  =      -1.7588832345554835 [Eh]
	 SCS Correlation Energy    =      -1.9078511671291394 [Eh]
	 SCS Total Energy          =    -441.0348832004731889 [Eh]
	-----------------------------------------------------------

  Dipole Moment: [D]
     X:     3.4754      Y:    -3.1240      Z:    -0.1504     Total:     4.6755

*** Psi4 exiting successfully. Buy a developer a beer!
