                               Psi4 1.3.2 release

  ==> Input File <==

--------------------------------------------------------------------------
#psi4
#
memory 32 gb

molecule  {
0 1
  O       -2.8756320     0.4615000    -0.3051040
  O       -0.5220660     1.5374290     0.0548780
  N        0.6562510    -0.3746370    -0.3360270
  C        1.9593281     0.2384125    -0.0953956
  C       -1.8012180    -0.4504720    -0.3698720
  C        3.0067800    -0.5070980    -0.9241520
  C        2.2930000     0.2310680     1.3932270
  C       -0.4931590     0.3235730    -0.1949090
  C       -1.9724170    -1.5121580     0.7102480
  H        1.8788190     1.2611790    -0.4401960
  H        0.5947780    -1.3816008    -0.4377524
  H       -1.7868920    -0.9288770    -1.3618540
  H        3.9904500    -0.0508330    -0.7882090
  H        3.0812650    -1.5550640    -0.6116920
  H        2.7529100    -0.4768670    -1.9861430
  H        1.5225120     0.7762450     1.9430400
  H        3.2574000     0.7146530     1.5762130
  H        2.3438960    -0.7932520     1.7757830
  H       -2.9590570    -1.9673470     0.6070900
  H       -1.9090200    -1.0432980     1.6949070
  H       -1.2193110    -2.3035120     0.6420620
  H       -2.4442120     1.3312090    -0.1521090
units angstrom
no_reorient  #important for SAPT in psi4, default
symmetry c1  #important for SAPT in psi4, default
}

set PROPERTIES_ORIGIN ["COM"]
properties('MP2/aug-cc-pvtz', properties = ['dipole'])
--------------------------------------------------------------------------

    Molecular point group: c1
  Charge       = 0
  Multiplicity = 1
  Basis Set: AUG-CC-PVTZ
    Blend: AUG-CC-PVTZ
  Basis Set: (AUG-CC-PVTZ AUX)
    Blend: AUG-CC-PVTZ-JKFIT

    Orbital Energies [Eh]
    ---------------------

    Doubly Occupied:

       1A    -20.547773     2A    -20.532359     3A    -15.595700
       4A    -11.357903     5A    -11.297300     6A    -11.277088
       7A    -11.232349     8A    -11.230868     9A    -11.222262
      10A     -1.397297    11A     -1.345924    12A     -1.247890
      13A     -1.071445    14A     -1.023597    15A     -0.948888
      16A     -0.894833    17A     -0.823759    18A     -0.794610
      19A     -0.736408    20A     -0.679683    21A     -0.650376
      22A     -0.632461    23A     -0.627557    24A     -0.596929
      25A     -0.581294    26A     -0.567185    27A     -0.555057
      28A     -0.548030    29A     -0.539332    30A     -0.530457
      31A     -0.512839    32A     -0.501186    33A     -0.493492
      34A     -0.444962    35A     -0.434271    36A     -0.401337

  @DF-RHF Final Energy:  -439.13786910592182

   => Energetics <=

    Nuclear Repulsion Energy =            485.3246756369280206
    One-Electron Energy =               -1561.1756823054261076
    Two-Electron Energy =                 636.7131375625762075
    Total Energy =                       -439.1378691059218227
  Basis Set: (AUG-CC-PVTZ AUX)
    Blend: AUG-CC-PVTZ-RI
    Molecular point group: c1

    Geometry (in Angstrom), charge = 0, multiplicity = 1:

       Center              X                  Y                   Z               Mass
    ------------   -----------------  -----------------  -----------------  -----------------
         O           -2.875068930276     0.460440046859    -0.305122310762    15.994914619570
         O           -0.521502930276     1.536369046859     0.054859689238    15.994914619570
         N            0.656814069724    -0.375696953141    -0.336045310762    14.003074004430
         C            1.959891169724     0.237352546859    -0.095413910762    12.000000000000
         C           -1.800654930276    -0.451531953141    -0.369890310762    12.000000000000
         C            3.007343069724    -0.508157953141    -0.924170310762    12.000000000000
         C            2.293563069724     0.230008046859     1.393208689238    12.000000000000
         C           -0.492595930276     0.322513046859    -0.194927310762    12.000000000000
         C           -1.971853930276    -1.513217953141     0.710229689238    12.000000000000
         H            1.879382069724     1.260119046859    -0.440214310762     1.007825032230
         H            0.595341069724    -1.382660753141    -0.437770710762     1.007825032230
         H           -1.786328930276    -0.929936953141    -1.361872310762     1.007825032230
         H            3.991013069724    -0.051892953141    -0.788227310762     1.007825032230
         H            3.081828069724    -1.556123953141    -0.611710310762     1.007825032230
         H            2.753473069724    -0.477926953141    -1.986161310762     1.007825032230
         H            1.523075069724     0.775185046859     1.943021689238     1.007825032230
         H            3.257963069724     0.713593046859     1.576194689238     1.007825032230
         H            2.344459069724    -0.794311953141     1.775764689238     1.007825032230
         H           -2.958493930276    -1.968406953141     0.607071689238     1.007825032230
         H           -1.908456930276    -1.044357953141     1.694888689238     1.007825032230
         H           -1.218747930276    -2.304571953141     0.642043689238     1.007825032230
         H           -2.443648930276     1.330149046859    -0.152127310762     1.007825032230

  Basis Set: AUG-CC-PVTZ
    Blend: AUG-CC-PVTZ
  Basis Set: (AUG-CC-PVTZ AUX)
    Blend: AUG-CC-PVTZ-JKFIT
	 Reference Energy          =    -439.1378691059218227 [Eh]
	 Singles Energy            =      -0.0000000000000000 [Eh]
	 Same-Spin Energy          =      -0.4459457885792172 [Eh]
	 Opposite-Spin Energy      =      -1.4635345267056281 [Eh]
	 Correlation Energy        =      -1.9094803152848452 [Eh]
	 Total Energy              =    -441.0473494212066612 [Eh]

	 ================> DF-SCS-MP2 Energies <==================
	-----------------------------------------------------------
	 SCS Same-Spin Scale       =       0.3333333333333333 [-]
	 SCS Opposite-Spin Scale   =       1.2000000000000000 [-]
	 SCS Same-Spin Energy      =      -0.1486485961930724 [Eh]
	 SCS Opposite-Spin Energy  =      -1.7562414320467536 [Eh]
	 SCS Correlation Energy    =      -1.9048900282398260 [Eh]
	 SCS Total Energy          =    -441.0427591341616562 [Eh]
	-----------------------------------------------------------

  Dipole Moment: [D]
     X:     3.4478      Y:    -3.0563      Z:    -0.1407     Total:     4.6096

*** Psi4 exiting successfully. Buy a developer a beer!
