                               Psi4 1.4a3.dev225

  ==> Input File <==

--------------------------------------------------------------------------
#psi4
#
memory 32 gb

molecule  {
0 1
  O        2.9110620    -0.5703060    -0.4523520
  O        0.5539390    -1.5540470     0.1662040
  N       -0.5943370     0.3369340    -0.3930300
  C       -1.9154150    -0.2304160    -0.1256420
  C        1.8803730     0.3654606    -0.3949855
  C       -2.9513150     0.5221750    -0.9483650
  C       -2.2232580    -0.2086170     1.3682650
  C        0.5443190    -0.3662470    -0.1910430
  C        2.1035320     1.3624180     0.7499890
  H       -1.8664900    -1.2716350    -0.4595930
  H       -0.5281980     1.3181660    -0.6377390
  H        1.8317100     0.9202690    -1.3505730
  H       -3.9433690     0.0896600    -0.7945050
  H       -2.9965010     1.5743390    -0.6446630
  H       -2.7149650     0.4749500    -2.0147890
  H       -1.4563020    -0.7629570     1.9136170
  H       -3.1950150    -0.6709470     1.5682930
  H       -2.2473660     0.8219210     1.7368640
  H        3.0888910     1.8183940     0.6312910
  H        2.0827360     0.8223960     1.7004970
  H        1.3487660     2.1553220     0.7756360
  H        2.4958040    -1.4028240    -0.1381920
units angstrom
no_reorient  #important for SAPT in psi4, default
symmetry c1  #important for SAPT in psi4, default
}

set PROPERTIES_ORIGIN ["COM"]
properties('MP2/aug-cc-pvtz', properties = ['dipole'])
--------------------------------------------------------------------------

    Molecular point group: c1
  Charge       = 0
  Multiplicity = 1
  Basis Set: AUG-CC-PVTZ
    Blend: AUG-CC-PVTZ
  Basis Set: (AUG-CC-PVTZ AUX)
    Blend: AUG-CC-PVTZ-JKFIT

    Orbital Energies [Eh]
    ---------------------

    Doubly Occupied:

       1A    -20.550665     2A    -20.531246     3A    -15.596025
       4A    -11.357474     5A    -11.298048     6A    -11.278046
       7A    -11.233392     8A    -11.229216     9A    -11.220920
      10A     -1.397726    11A     -1.352024    12A     -1.246277
      13A     -1.070185    14A     -1.021454    15A     -0.949452
      16A     -0.892059    17A     -0.821534    18A     -0.794490
      19A     -0.739806    20A     -0.677917    21A     -0.643620
      22A     -0.634830    23A     -0.629244    24A     -0.595383
      25A     -0.584477    26A     -0.570930    27A     -0.555130
      28A     -0.547610    29A     -0.538707    30A     -0.529016
      31A     -0.511900    32A     -0.502116    33A     -0.491278
      34A     -0.444687    35A     -0.429918    36A     -0.401163

  @DF-RHF Final Energy:  -439.13787595872975

   => Energetics <=

    Nuclear Repulsion Energy =            485.1033563307924510
    One-Electron Energy =               -1560.7465305272196474
    Two-Electron Energy =                 636.5052982376975024
    Total Energy =                       -439.1378759587297509
  Basis Set: (AUG-CC-PVTZ AUX)
    Blend: AUG-CC-PVTZ-RI
    Molecular point group: c1

    Geometry (in Angstrom), charge = 0, multiplicity = 1:

       Center              X                  Y                   Z               Mass
    ------------   -----------------  -----------------  -----------------  -----------------
         O            2.848549918918    -0.524611301491    -0.434976109948    15.994914619570
         O            0.491426918918    -1.508352301491     0.183579890052    15.994914619570
         N           -0.656849081082     0.382628698509    -0.375654109948    14.003074004430
         C           -1.977927081082    -0.184721301491    -0.108266109948    12.000000000000
         C            1.817860918918     0.411155298509    -0.377609609948    12.000000000000
         C           -3.013827081082     0.567869698509    -0.930989109948    12.000000000000
         C           -2.285770081082    -0.162922301491     1.385640890052    12.000000000000
         C            0.481806918918    -0.320552301491    -0.173667109948    12.000000000000
         C            2.041019918918     1.408112698509     0.767364890052    12.000000000000
         H           -1.929002081082    -1.225940301491    -0.442217109948     1.007825032230
         H           -0.590710081082     1.363860698509    -0.620363109948     1.007825032230
         H            1.769197918918     0.965963698509    -1.333197109948     1.007825032230
         H           -4.005881081082     0.135354698509    -0.777129109948     1.007825032230
         H           -3.059013081082     1.620033698509    -0.627287109948     1.007825032230
         H           -2.777477081082     0.520644698509    -1.997413109948     1.007825032230
         H           -1.518814081082    -0.717262301491     1.930992890052     1.007825032230
         H           -3.257527081082    -0.625252301491     1.585668890052     1.007825032230
         H           -2.309878081082     0.867615698509     1.754239890052     1.007825032230
         H            3.026378918918     1.864088698509     0.648666890052     1.007825032230
         H            2.020223918918     0.868090698509     1.717872890052     1.007825032230
         H            1.286253918918     2.201016698509     0.793011890052     1.007825032230
         H            2.433291918918    -1.357129301491    -0.120816109948     1.007825032230

  Basis Set: AUG-CC-PVTZ
    Blend: AUG-CC-PVTZ
  Basis Set: (AUG-CC-PVTZ AUX)
    Blend: AUG-CC-PVTZ-JKFIT
	 Reference Energy          =    -439.1378759587297509 [Eh]
	 Singles Energy            =      -0.0000000000000000 [Eh]
	 Same-Spin Energy          =      -0.4458746652303731 [Eh]
	 Opposite-Spin Energy      =      -1.4633994811606503 [Eh]
	 Correlation Energy        =      -1.9092741463910234 [Eh]
	 Total Energy              =    -441.0471501051207497 [Eh]

	 ================> DF-SCS-MP2 Energies <==================
	-----------------------------------------------------------
	 SCS Same-Spin Scale       =       0.3333333333333333 [-]
	 SCS Opposite-Spin Scale   =       1.2000000000000000 [-]
	 SCS Same-Spin Energy      =      -0.1486248884101244 [Eh]
	 SCS Opposite-Spin Energy  =      -1.7560793773927803 [Eh]
	 SCS Correlation Energy    =      -1.9047042658029048 [Eh]
	 SCS Total Energy          =    -441.0425802245326281 [Eh]
	-----------------------------------------------------------

  Dipole Moment: [D]
     X:    -3.3422      Y:     3.0760      Z:    -0.1944     Total:     4.5464

*** Psi4 exiting successfully. Buy a developer a beer!
