                               Psi4 1.4a3.dev225

  ==> Input File <==

--------------------------------------------------------------------------
#psi4
#
memory 32 gb

molecule  {
0 1
  O        2.9110620    -0.5703060    -0.4523520
  O        0.5539390    -1.5540470     0.1662040
  N       -0.5943370     0.3369340    -0.3930300
  C       -1.8702470    -0.2110182    -0.1347841
  C        1.8655780     0.3788930    -0.3941620
  C       -2.9513150     0.5221750    -0.9483650
  C       -2.2232580    -0.2086170     1.3682650
  C        0.5443190    -0.3662470    -0.1910430
  C        2.1035320     1.3624180     0.7499890
  H       -1.8664900    -1.2716350    -0.4595930
  H       -0.5281980     1.3181660    -0.6377390
  H        1.8317100     0.9202690    -1.3505730
  H       -3.9433690     0.0896600    -0.7945050
  H       -2.9965010     1.5743390    -0.6446630
  H       -2.7149650     0.4749500    -2.0147890
  H       -1.4563020    -0.7629570     1.9136170
  H       -3.1950150    -0.6709470     1.5682930
  H       -2.2473660     0.8219210     1.7368640
  H        3.0888910     1.8183940     0.6312910
  H        2.0827360     0.8223960     1.7004970
  H        1.3487660     2.1553220     0.7756360
  H        2.4958040    -1.4028240    -0.1381920
units angstrom
no_reorient  #important for SAPT in psi4, default
symmetry c1  #important for SAPT in psi4, default
}

set PROPERTIES_ORIGIN ["COM"]
properties('MP2/aug-cc-pvtz', properties = ['dipole'])
--------------------------------------------------------------------------

    Molecular point group: c1
  Charge       = 0
  Multiplicity = 1
  Basis Set: AUG-CC-PVTZ
    Blend: AUG-CC-PVTZ
  Basis Set: (AUG-CC-PVTZ AUX)
    Blend: AUG-CC-PVTZ-JKFIT

    Orbital Energies [Eh]
    ---------------------

    Doubly Occupied:

       1A    -20.550055     2A    -20.534313     3A    -15.599096
       4A    -11.360569     5A    -11.299356     6A    -11.276257
       7A    -11.232891     8A    -11.231107     9A    -11.219658
      10A     -1.398758    11A     -1.347789    12A     -1.258425
      13A     -1.068019    14A     -1.023130    15A     -0.945505
      16A     -0.898269    17A     -0.824341    18A     -0.799532
      19A     -0.738874    20A     -0.680469    21A     -0.644692
      22A     -0.638266    23A     -0.627352    24A     -0.595297
      25A     -0.582991    26A     -0.571647    27A     -0.554233
      28A     -0.551034    29A     -0.537844    30A     -0.530376
      31A     -0.515451    32A     -0.496063    33A     -0.484321
      34A     -0.447840    35A     -0.434572    36A     -0.399501

  @DF-RHF Final Energy:  -439.13523924437919

   => Energetics <=

    Nuclear Repulsion Energy =            485.6815472785329462
    One-Electron Energy =               -1561.8377862324482521
    Two-Electron Energy =                 637.0209997095362269
    Total Energy =                       -439.1352392443791359
  Basis Set: (AUG-CC-PVTZ AUX)
    Blend: AUG-CC-PVTZ-RI
    Molecular point group: c1

    Geometry (in Angstrom), charge = 0, multiplicity = 1:

       Center              X                  Y                   Z               Mass
    ------------   -----------------  -----------------  -----------------  -----------------
         O            2.845769667707    -0.527616477248    -0.434214650832    15.994914619570
         O            0.488646667707    -1.511357477248     0.184341349168    15.994914619570
         N           -0.659629332293     0.379623522752    -0.374892650832    14.003074004430
         C           -1.935539332293    -0.168328677248    -0.116646750832    12.000000000000
         C            1.800285667707     0.421582522752    -0.376024650832    12.000000000000
         C           -3.016607332293     0.564864522752    -0.930227650832    12.000000000000
         C           -2.288550332293    -0.165927477248     1.386402349168    12.000000000000
         C            0.479026667707    -0.323557477248    -0.172905650832    12.000000000000
         C            2.038239667707     1.405107522752     0.768126349168    12.000000000000
         H           -1.931782332293    -1.228945477248    -0.441455650832     1.007825032230
         H           -0.593490332293     1.360855522752    -0.619601650832     1.007825032230
         H            1.766417667707     0.962958522752    -1.332435650832     1.007825032230
         H           -4.008661332293     0.132349522752    -0.776367650832     1.007825032230
         H           -3.061793332293     1.617028522752    -0.626525650832     1.007825032230
         H           -2.780257332293     0.517639522752    -1.996651650832     1.007825032230
         H           -1.521594332293    -0.720267477248     1.931754349168     1.007825032230
         H           -3.260307332293    -0.628257477248     1.586430349168     1.007825032230
         H           -2.312658332293     0.864610522752     1.755001349168     1.007825032230
         H            3.023598667707     1.861083522752     0.649428349168     1.007825032230
         H            2.017443667707     0.865085522752     1.718634349168     1.007825032230
         H            1.283473667707     2.198011522752     0.793773349168     1.007825032230
         H            2.430511667707    -1.360134477248    -0.120054650832     1.007825032230

  Basis Set: AUG-CC-PVTZ
    Blend: AUG-CC-PVTZ
  Basis Set: (AUG-CC-PVTZ AUX)
    Blend: AUG-CC-PVTZ-JKFIT
	 Reference Energy          =    -439.1352392443791928 [Eh]
	 Singles Energy            =      -0.0000000000000000 [Eh]
	 Same-Spin Energy          =      -0.4461605933391545 [Eh]
	 Opposite-Spin Energy      =      -1.4639322201742258 [Eh]
	 Correlation Energy        =      -1.9100928135133803 [Eh]
	 Total Energy              =    -441.0453320578925513 [Eh]

	 ================> DF-SCS-MP2 Energies <==================
	-----------------------------------------------------------
	 SCS Same-Spin Scale       =       0.3333333333333333 [-]
	 SCS Opposite-Spin Scale   =       1.2000000000000000 [-]
	 SCS Same-Spin Energy      =      -0.1487201977797181 [Eh]
	 SCS Opposite-Spin Energy  =      -1.7567186642090709 [Eh]
	 SCS Correlation Energy    =      -1.9054388619887890 [Eh]
	 SCS Total Energy          =    -441.0406781063679773 [Eh]
	-----------------------------------------------------------

  Dipole Moment: [D]
     X:    -3.2090      Y:     3.1361      Z:    -0.2138     Total:     4.4921

*** Psi4 exiting successfully. Buy a developer a beer!
