                               Psi4 1.3.2 release

  ==> Input File <==

--------------------------------------------------------------------------
#psi4
#
memory 32 gb

molecule  {
0 1
  O       -2.8756320     0.4615000    -0.3051040
  O       -0.5220660     1.5374290     0.0548780
  N        0.6562510    -0.3746370    -0.3360270
  C        1.7855053     0.1444866    -0.1286170
  C       -1.8012180    -0.4504720    -0.3698720
  C        3.0067800    -0.5070980    -0.9241520
  C        2.2930000     0.2310680     1.3932270
  C       -0.4931590     0.3235730    -0.1949090
  C       -1.9724170    -1.5121580     0.7102480
  H        1.8788190     1.2611790    -0.4401960
  H        0.6035260    -1.3822150    -0.4365740
  H       -1.7868920    -0.9288770    -1.3618540
  H        3.9904500    -0.0508330    -0.7882090
  H        3.0812650    -1.5550640    -0.6116920
  H        2.7529100    -0.4768670    -1.9861430
  H        1.5225120     0.7762450     1.9430400
  H        3.2574000     0.7146530     1.5762130
  H        2.3438960    -0.7932520     1.7757830
  H       -2.9590570    -1.9673470     0.6070900
  H       -1.9090200    -1.0432980     1.6949070
  H       -1.2193110    -2.3035120     0.6420620
  H       -2.4442120     1.3312090    -0.1521090
units angstrom
no_reorient  #important for SAPT in psi4, default
symmetry c1  #important for SAPT in psi4, default
}

set PROPERTIES_ORIGIN ["COM"]
properties('MP2/aug-cc-pvtz', properties = ['dipole'])
--------------------------------------------------------------------------

    Molecular point group: c1
  Charge       = 0
  Multiplicity = 1
  Basis Set: AUG-CC-PVTZ
    Blend: AUG-CC-PVTZ
  Basis Set: (AUG-CC-PVTZ AUX)
    Blend: AUG-CC-PVTZ-JKFIT

    Orbital Energies [Eh]
    ---------------------

    Doubly Occupied:

       1A    -20.553246     2A    -20.543416     3A    -15.604319
       4A    -11.368037     5A    -11.303975     6A    -11.273876
       7A    -11.235755     8A    -11.230869     9A    -11.216345
      10A     -1.411925    11A     -1.355677    12A     -1.302241
      13A     -1.065405    14A     -1.017476    15A     -0.934352
      16A     -0.915924    17A     -0.838606    18A     -0.817769
      19A     -0.741726    20A     -0.688565    21A     -0.659907
      22A     -0.647885    23A     -0.631306    24A     -0.590960
      25A     -0.584863    26A     -0.571728    27A     -0.562945
      28A     -0.544339    29A     -0.543147    30A     -0.533186
      31A     -0.524916    32A     -0.489180    33A     -0.456768
      34A     -0.450075    35A     -0.445315    36A     -0.380483

  @DF-RHF Final Energy:  -439.08822582109565

   => Energetics <=

    Nuclear Repulsion Energy =            487.9874570243530911
    One-Electron Energy =               -1566.0783548999072536
    Two-Electron Energy =                 639.0026720544585714
    Total Energy =                       -439.0882258210956479
  Basis Set: (AUG-CC-PVTZ AUX)
    Blend: AUG-CC-PVTZ-RI
    Molecular point group: c1

    Geometry (in Angstrom), charge = 0, multiplicity = 1:

       Center              X                  Y                   Z               Mass
    ------------   -----------------  -----------------  -----------------  -----------------
         O           -2.859224977188     0.469042457329    -0.302090385023    15.994914619570
         O           -0.505658977188     1.544971457329     0.057891614977    15.994914619570
         N            0.672658022812    -0.367094542671    -0.333013385023    14.003074004430
         C            1.801912322812     0.152029057329    -0.125603385023    12.000000000000
         C           -1.784810977188    -0.442929542671    -0.366858385023    12.000000000000
         C            3.023187022812    -0.499555542671    -0.921138385023    12.000000000000
         C            2.309407022812     0.238610457329     1.396240614977    12.000000000000
         C           -0.476751977188     0.331115457329    -0.191895385023    12.000000000000
         C           -1.956009977188    -1.504615542671     0.713261614977    12.000000000000
         H            1.895226022812     1.268721457329    -0.437182385023     1.007825032230
         H            0.619933022812    -1.374672542671    -0.433560385023     1.007825032230
         H           -1.770484977188    -0.921334542671    -1.358840385023     1.007825032230
         H            4.006857022812    -0.043290542671    -0.785195385023     1.007825032230
         H            3.097672022812    -1.547521542671    -0.608678385023     1.007825032230
         H            2.769317022812    -0.469324542671    -1.983129385023     1.007825032230
         H            1.538919022812     0.783787457329     1.946053614977     1.007825032230
         H            3.273807022812     0.722195457329     1.579226614977     1.007825032230
         H            2.360303022812    -0.785709542671     1.778796614977     1.007825032230
         H           -2.942649977188    -1.959804542671     0.610103614977     1.007825032230
         H           -1.892612977188    -1.035755542671     1.697920614977     1.007825032230
         H           -1.202903977188    -2.295969542671     0.645075614977     1.007825032230
         H           -2.427804977188     1.338751457329    -0.149095385023     1.007825032230

  Basis Set: AUG-CC-PVTZ
    Blend: AUG-CC-PVTZ
  Basis Set: (AUG-CC-PVTZ AUX)
    Blend: AUG-CC-PVTZ-JKFIT
	 Reference Energy          =    -439.0882258210956479 [Eh]
	 Singles Energy            =      -0.0000000000000000 [Eh]
	 Same-Spin Energy          =      -0.4484661695570374 [Eh]
	 Opposite-Spin Energy      =      -1.4666947225008407 [Eh]
	 Correlation Energy        =      -1.9151608920578780 [Eh]
	 Total Energy              =    -441.0033867131535317 [Eh]

	 ================> DF-SCS-MP2 Energies <==================
	-----------------------------------------------------------
	 SCS Same-Spin Scale       =       0.3333333333333333 [-]
	 SCS Opposite-Spin Scale   =       1.2000000000000000 [-]
	 SCS Same-Spin Energy      =      -0.1494887231856791 [Eh]
	 SCS Opposite-Spin Energy  =      -1.7600336670010088 [Eh]
	 SCS Correlation Energy    =      -1.9095223901866880 [Eh]
	 SCS Total Energy          =    -440.9977482112823282 [Eh]
	-----------------------------------------------------------

  Dipole Moment: [D]
     X:     2.7454      Y:    -3.1068      Z:    -0.2859     Total:     4.1558

*** Psi4 exiting successfully. Buy a developer a beer!
