                               Psi4 1.3.2 release

  ==> Input File <==

--------------------------------------------------------------------------
#psi4
#
memory 32 gb

molecule  {
0 1
  O       -2.8756320     0.4615000    -0.3051040
  O       -0.5220660     1.5374290     0.0548780
  N        0.6562510    -0.3746370    -0.3360270
  C        1.9647450     0.2268840    -0.0956960
  C       -1.8172649    -0.4687850    -0.3735298
  C        3.0067800    -0.5070980    -0.9241520
  C        2.2930000     0.2310680     1.3932270
  C       -0.4931590     0.3235730    -0.1949090
  C       -1.9724170    -1.5121580     0.7102480
  H        1.8788190     1.2611790    -0.4401960
  H        0.6035260    -1.3822150    -0.4365740
  H       -1.7868920    -0.9288770    -1.3618540
  H        3.9904500    -0.0508330    -0.7882090
  H        3.0812650    -1.5550640    -0.6116920
  H        2.7529100    -0.4768670    -1.9861430
  H        1.5225120     0.7762450     1.9430400
  H        3.2574000     0.7146530     1.5762130
  H        2.3438960    -0.7932520     1.7757830
  H       -2.9590570    -1.9673470     0.6070900
  H       -1.9090200    -1.0432980     1.6949070
  H       -1.2193110    -2.3035120     0.6420620
  H       -2.4596527     1.3386791    -0.1519945
units angstrom
no_reorient  #important for SAPT in psi4, default
symmetry c1  #important for SAPT in psi4, default
}

set PROPERTIES_ORIGIN ["COM"]
properties('MP2/aug-cc-pvtz', properties = ['dipole'])
--------------------------------------------------------------------------

    Molecular point group: c1
  Charge       = 0
  Multiplicity = 1
  Basis Set: AUG-CC-PVTZ
    Blend: AUG-CC-PVTZ
  Basis Set: (AUG-CC-PVTZ AUX)
    Blend: AUG-CC-PVTZ-JKFIT

    Orbital Energies [Eh]
    ---------------------

    Doubly Occupied:

       1A    -20.546957     2A    -20.531742     3A    -15.595158
       4A    -11.357773     5A    -11.297630     6A    -11.276770
       7A    -11.232027     8A    -11.230217     9A    -11.222010
      10A     -1.395138    11A     -1.344925    12A     -1.247128
      13A     -1.071412    14A     -1.025649    15A     -0.949567
      16A     -0.891709    17A     -0.822714    18A     -0.794907
      19A     -0.733925    20A     -0.679347    21A     -0.651051
      22A     -0.631898    23A     -0.628294    24A     -0.596704
      25A     -0.582727    26A     -0.568664    27A     -0.554768
      28A     -0.547390    29A     -0.539220    30A     -0.530934
      31A     -0.509396    32A     -0.502428    33A     -0.490868
      34A     -0.447448    35A     -0.430278    36A     -0.400943

  @DF-RHF Final Energy:  -439.13746325293579

   => Energetics <=

    Nuclear Repulsion Energy =            484.9835203862273829
    One-Electron Energy =               -1560.5225385268138325
    Two-Electron Energy =                 636.4015548876506045
    Total Energy =                       -439.1374632529358450
  Basis Set: (AUG-CC-PVTZ AUX)
    Blend: AUG-CC-PVTZ-RI
    Molecular point group: c1

    Geometry (in Angstrom), charge = 0, multiplicity = 1:

       Center              X                  Y                   Z               Mass
    ------------   -----------------  -----------------  -----------------  -----------------
         O           -2.874044440776     0.463118939625    -0.304769928796    15.994914619570
         O           -0.520478440776     1.539047939625     0.055212071204    15.994914619570
         N            0.657838559224    -0.373018060375    -0.335692928796    14.003074004430
         C            1.966332559224     0.228502939625    -0.095361928796    12.000000000000
         C           -1.815677340776    -0.467166060375    -0.373195728796    12.000000000000
         C            3.008367559224    -0.505479060375    -0.923817928796    12.000000000000
         C            2.294587559224     0.232686939625     1.393561071204    12.000000000000
         C           -0.491571440776     0.325191939625    -0.194574928796    12.000000000000
         C           -1.970829440776    -1.510539060375     0.710582071204    12.000000000000
         H            1.880406559224     1.262797939625    -0.439861928796     1.007825032230
         H            0.605113559224    -1.380596060375    -0.436239928796     1.007825032230
         H           -1.785304440776    -0.927258060375    -1.361519928796     1.007825032230
         H            3.992037559224    -0.049214060375    -0.787874928796     1.007825032230
         H            3.082852559224    -1.553445060375    -0.611357928796     1.007825032230
         H            2.754497559224    -0.475248060375    -1.985808928796     1.007825032230
         H            1.524099559224     0.777863939625     1.943374071204     1.007825032230
         H            3.258987559224     0.716271939625     1.576547071204     1.007825032230
         H            2.345483559224    -0.791633060375     1.776117071204     1.007825032230
         H           -2.957469440776    -1.965728060375     0.607424071204     1.007825032230
         H           -1.907432440776    -1.041679060375     1.695241071204     1.007825032230
         H           -1.217723440776    -2.301893060375     0.642396071204     1.007825032230
         H           -2.458065140776     1.340298039625    -0.151660428796     1.007825032230

  Basis Set: AUG-CC-PVTZ
    Blend: AUG-CC-PVTZ
  Basis Set: (AUG-CC-PVTZ AUX)
    Blend: AUG-CC-PVTZ-JKFIT
	 Reference Energy          =    -439.1374632529357882 [Eh]
	 Singles Energy            =      -0.0000000000000000 [Eh]
	 Same-Spin Energy          =      -0.4459341192483487 [Eh]
	 Opposite-Spin Energy      =      -1.4634825175093500 [Eh]
	 Correlation Energy        =      -1.9094166367576988 [Eh]
	 Total Energy              =    -441.0468798896935141 [Eh]

	 ================> DF-SCS-MP2 Energies <==================
	-----------------------------------------------------------
	 SCS Same-Spin Scale       =       0.3333333333333333 [-]
	 SCS Opposite-Spin Scale   =       1.2000000000000000 [-]
	 SCS Same-Spin Energy      =      -0.1486447064161162 [Eh]
	 SCS Opposite-Spin Energy  =      -1.7561790210112200 [Eh]
	 SCS Correlation Energy    =      -1.9048237274273363 [Eh]
	 SCS Total Energy          =    -441.0422869803631443 [Eh]
	-----------------------------------------------------------

  Dipole Moment: [D]
     X:     3.4334      Y:    -3.0612      Z:    -0.1423     Total:     4.6021

*** Psi4 exiting successfully. Buy a developer a beer!
