                               Psi4 1.3.2 release

  ==> Input File <==

--------------------------------------------------------------------------
#psi4
#
memory 32 gb

molecule  {
0 1
  O       -2.8724604     0.4643329    -0.2935506
  O       -0.5220660     1.5374290     0.0548780
  N        0.6562510    -0.3746370    -0.3360270
  C        1.9647450     0.2268840    -0.0956960
  C       -1.8012180    -0.4504720    -0.3698720
  C        3.0067800    -0.5070980    -0.9241520
  C        2.2930000     0.2310680     1.3932270
  C       -0.4931590     0.3235730    -0.1949090
  C       -1.9724170    -1.5121580     0.7102480
  H        1.8788190     1.2611790    -0.4401960
  H        0.6035260    -1.3822150    -0.4365740
  H       -1.7791763    -0.9339762    -1.3592368
  H        3.9904500    -0.0508330    -0.7882090
  H        3.0812650    -1.5550640    -0.6116920
  H        2.7529100    -0.4768670    -1.9861430
  H        1.5225120     0.7762450     1.9430400
  H        3.2574000     0.7146530     1.5762130
  H        2.3438960    -0.7932520     1.7757830
  H       -2.9590570    -1.9673470     0.6070900
  H       -1.9090200    -1.0432980     1.6949070
  H       -1.2193110    -2.3035120     0.6420620
  H       -2.4442120     1.3312090    -0.1521090
units angstrom
no_reorient  #important for SAPT in psi4, default
symmetry c1  #important for SAPT in psi4, default
}

set PROPERTIES_ORIGIN ["COM"]
properties('MP2/aug-cc-pvtz', properties = ['dipole'])
--------------------------------------------------------------------------

    Molecular point group: c1
  Charge       = 0
  Multiplicity = 1
  Basis Set: AUG-CC-PVTZ
    Blend: AUG-CC-PVTZ
  Basis Set: (AUG-CC-PVTZ AUX)
    Blend: AUG-CC-PVTZ-JKFIT

    Orbital Energies [Eh]
    ---------------------

    Doubly Occupied:

       1A    -20.547555     2A    -20.532192     3A    -15.595565
       4A    -11.358044     5A    -11.297589     6A    -11.277147
       7A    -11.232254     8A    -11.230663     9A    -11.222210
      10A     -1.397483    11A     -1.346655    12A     -1.247869
      13A     -1.072299    14A     -1.024107    15A     -0.949793
      16A     -0.895065    17A     -0.822472    18A     -0.794910
      19A     -0.736658    20A     -0.679690    21A     -0.650590
      22A     -0.632330    23A     -0.628659    24A     -0.596955
      25A     -0.581585    26A     -0.567162    27A     -0.555053
      28A     -0.548060    29A     -0.539626    30A     -0.530208
      31A     -0.512429    32A     -0.502713    33A     -0.491397
      34A     -0.445444    35A     -0.434111    36A     -0.401274

  @DF-RHF Final Energy:  -439.13814224132227

   => Energetics <=

    Nuclear Repulsion Energy =            485.4449602750636927
    One-Electron Energy =               -1561.4105772931293359
    Two-Electron Energy =                 636.8274747767433155
    Total Energy =                       -439.1381422413222708
  Basis Set: (AUG-CC-PVTZ AUX)
    Blend: AUG-CC-PVTZ-RI
    Molecular point group: c1

    Geometry (in Angstrom), charge = 0, multiplicity = 1:

       Center              X                  Y                   Z               Mass
    ------------   -----------------  -----------------  -----------------  -----------------
         O           -2.872906714120     0.464026510258    -0.294980228290    15.994914619570
         O           -0.522512314120     1.537122610258     0.053448371710    15.994914619570
         N            0.655804685880    -0.374943389742    -0.337456628290    14.003074004430
         C            1.964298685880     0.226577610258    -0.097125628290    12.000000000000
         C           -1.801664314120    -0.450778389742    -0.371301628290    12.000000000000
         C            3.006333685880    -0.507404389742    -0.925581628290    12.000000000000
         C            2.292553685880     0.230761610258     1.391797371710    12.000000000000
         C           -0.493605314120     0.323266610258    -0.196338628290    12.000000000000
         C           -1.972863314120    -1.512464389742     0.708818371710    12.000000000000
         H            1.878372685880     1.260872610258    -0.441625628290     1.007825032230
         H            0.603079685880    -1.382521389742    -0.438003628290     1.007825032230
         H           -1.779622614120    -0.934282589742    -1.360666428290     1.007825032230
         H            3.990003685880    -0.051139389742    -0.789638628290     1.007825032230
         H            3.080818685880    -1.555370389742    -0.613121628290     1.007825032230
         H            2.752463685880    -0.477173389742    -1.987572628290     1.007825032230
         H            1.522065685880     0.775938610258     1.941610371710     1.007825032230
         H            3.256953685880     0.714346610258     1.574783371710     1.007825032230
         H            2.343449685880    -0.793558389742     1.774353371710     1.007825032230
         H           -2.959503314120    -1.967653389742     0.605660371710     1.007825032230
         H           -1.909466314120    -1.043604389742     1.693477371710     1.007825032230
         H           -1.219757314120    -2.303818389742     0.640632371710     1.007825032230
         H           -2.444658314120     1.330902610258    -0.153538628290     1.007825032230

  Basis Set: AUG-CC-PVTZ
    Blend: AUG-CC-PVTZ
  Basis Set: (AUG-CC-PVTZ AUX)
    Blend: AUG-CC-PVTZ-JKFIT
	 Reference Energy          =    -439.1381422413222708 [Eh]
	 Singles Energy            =      -0.0000000000000000 [Eh]
	 Same-Spin Energy          =      -0.4459544506118833 [Eh]
	 Opposite-Spin Energy      =      -1.4634463618901674 [Eh]
	 Correlation Energy        =      -1.9094008125020507 [Eh]
	 Total Energy              =    -441.0475430538243131 [Eh]

	 ================> DF-SCS-MP2 Energies <==================
	-----------------------------------------------------------
	 SCS Same-Spin Scale       =       0.3333333333333333 [-]
	 SCS Opposite-Spin Scale   =       1.2000000000000000 [-]
	 SCS Same-Spin Energy      =      -0.1486514835372944 [Eh]
	 SCS Opposite-Spin Energy  =      -1.7561356342682009 [Eh]
	 SCS Correlation Energy    =      -1.9047871178054954 [Eh]
	 SCS Total Energy          =    -441.0429293591277542 [Eh]
	-----------------------------------------------------------

  Dipole Moment: [D]
     X:     3.4468      Y:    -3.0623      Z:    -0.1662     Total:     4.6136

*** Psi4 exiting successfully. Buy a developer a beer!
