                               Psi4 1.3.2 release

  ==> Input File <==

--------------------------------------------------------------------------
#psi4
#
memory 32 gb

molecule  {
0 1
  O       -2.8756320     0.4615000    -0.3051040
  O       -0.5220660     1.5374290     0.0548780
  N        0.6562510    -0.3746370    -0.3360270
  C        1.9647450     0.2268840    -0.0956960
  C       -1.8012180    -0.4504720    -0.3698720
  C        3.0067800    -0.5070980    -0.9241520
  C        2.2930000     0.2310680     1.3932270
  C       -0.5171579     0.2830216    -0.1976378
  C       -1.9724170    -1.5121580     0.7102480
  H        1.8788190     1.2611790    -0.4401960
  H        0.5682830    -1.3799840    -0.4342212
  H       -1.7868920    -0.9288770    -1.3618540
  H        3.9904500    -0.0508330    -0.7882090
  H        3.0812650    -1.5550640    -0.6116920
  H        2.7529100    -0.4768670    -1.9861430
  H        1.5225120     0.7762450     1.9430400
  H        3.2574000     0.7146530     1.5762130
  H        2.3438960    -0.7932520     1.7757830
  H       -2.9590570    -1.9673470     0.6070900
  H       -1.9090200    -1.0432980     1.6949070
  H       -1.2193110    -2.3035120     0.6420620
  H       -2.4442120     1.3312090    -0.1521090
units angstrom
no_reorient  #important for SAPT in psi4, default
symmetry c1  #important for SAPT in psi4, default
}

set PROPERTIES_ORIGIN ["COM"]
properties('MP2/aug-cc-pvtz', properties = ['dipole'])
--------------------------------------------------------------------------

    Molecular point group: c1
  Charge       = 0
  Multiplicity = 1
  Basis Set: AUG-CC-PVTZ
    Blend: AUG-CC-PVTZ
  Basis Set: (AUG-CC-PVTZ AUX)
    Blend: AUG-CC-PVTZ-JKFIT

    Orbital Energies [Eh]
    ---------------------

    Doubly Occupied:

       1A    -20.549350     2A    -20.526351     3A    -15.599017
       4A    -11.360605     5A    -11.299427     6A    -11.279227
       7A    -11.233823     8A    -11.232739     9A    -11.222414
      10A     -1.384648    11A     -1.339090    12A     -1.243657
      13A     -1.076970    14A     -1.029024    15A     -0.949931
      16A     -0.903385    17A     -0.826141    18A     -0.790160
      19A     -0.739615    20A     -0.679804    21A     -0.652201
      22A     -0.629413    23A     -0.625974    24A     -0.591369
      25A     -0.581435    26A     -0.569281    27A     -0.555156
      28A     -0.549438    29A     -0.539542    30A     -0.527246
      31A     -0.510571    32A     -0.500008    33A     -0.489912
      34A     -0.446371    35A     -0.436288    36A     -0.398937

  @DF-RHF Final Energy:  -439.13068713772157

   => Energetics <=

    Nuclear Repulsion Energy =            485.2071444373379450
    One-Electron Energy =               -1560.9386222980074308
    Two-Electron Energy =                 636.6007907229478633
    Total Energy =                       -439.1306871377215657
  Basis Set: (AUG-CC-PVTZ AUX)
    Blend: AUG-CC-PVTZ-RI
    Molecular point group: c1

    Geometry (in Angstrom), charge = 0, multiplicity = 1:

       Center              X                  Y                   Z               Mass
    ------------   -----------------  -----------------  -----------------  -----------------
         O           -2.873164303620     0.465194851498    -0.304872174135    15.994914619570
         O           -0.519598303620     1.541123851498     0.055109825865    15.994914619570
         N            0.658718696380    -0.370942148502    -0.335795174135    14.003074004430
         C            1.967212696380     0.230578851498    -0.095464174135    12.000000000000
         C           -1.798750303620    -0.446777148502    -0.369640174135    12.000000000000
         C            3.009247696380    -0.503403148502    -0.923920174135    12.000000000000
         C            2.295467696380     0.234762851498     1.393458825865    12.000000000000
         C           -0.514690203620     0.286716451498    -0.197405974135    12.000000000000
         C           -1.969949303620    -1.508463148502     0.710479825865    12.000000000000
         H            1.881286696380     1.264873851498    -0.439964174135     1.007825032230
         H            0.570750696380    -1.376289148502    -0.433989374135     1.007825032230
         H           -1.784424303620    -0.925182148502    -1.361622174135     1.007825032230
         H            3.992917696380    -0.047138148502    -0.787977174135     1.007825032230
         H            3.083732696380    -1.551369148502    -0.611460174135     1.007825032230
         H            2.755377696380    -0.473172148502    -1.985911174135     1.007825032230
         H            1.524979696380     0.779939851498     1.943271825865     1.007825032230
         H            3.259867696380     0.718347851498     1.576444825865     1.007825032230
         H            2.346363696380    -0.789557148502     1.776014825865     1.007825032230
         H           -2.956589303620    -1.963652148502     0.607321825865     1.007825032230
         H           -1.906552303620    -1.039603148502     1.695138825865     1.007825032230
         H           -1.216843303620    -2.299817148502     0.642293825865     1.007825032230
         H           -2.441744303620     1.334903851498    -0.151877174135     1.007825032230

  Basis Set: AUG-CC-PVTZ
    Blend: AUG-CC-PVTZ
  Basis Set: (AUG-CC-PVTZ AUX)
    Blend: AUG-CC-PVTZ-JKFIT
	 Reference Energy          =    -439.1306871377215657 [Eh]
	 Singles Energy            =      -0.0000000000000000 [Eh]
	 Same-Spin Energy          =      -0.4471245228782721 [Eh]
	 Opposite-Spin Energy      =      -1.4657110626280248 [Eh]
	 Correlation Energy        =      -1.9128355855062968 [Eh]
	 Total Energy              =    -441.0435227232278521 [Eh]

	 ================> DF-SCS-MP2 Energies <==================
	-----------------------------------------------------------
	 SCS Same-Spin Scale       =       0.3333333333333333 [-]
	 SCS Opposite-Spin Scale   =       1.2000000000000000 [-]
	 SCS Same-Spin Energy      =      -0.1490415076260907 [Eh]
	 SCS Opposite-Spin Energy  =      -1.7588532751536297 [Eh]
	 SCS Correlation Energy    =      -1.9078947827797204 [Eh]
	 SCS Total Energy          =    -441.0385819205012581 [Eh]
	-----------------------------------------------------------

  Dipole Moment: [D]
     X:     3.4037      Y:    -3.2589      Z:    -0.1557     Total:     4.7149

*** Psi4 exiting successfully. Buy a developer a beer!
