                               Psi4 1.3.2 release

  ==> Input File <==

--------------------------------------------------------------------------
#psi4
#
memory 32 gb

molecule  {
0 1
  O       -2.8756320     0.4615000    -0.3051040
  O       -0.5220660     1.5374290     0.0548780
  N        0.6562510    -0.3746370    -0.3360270
  C        1.9647450     0.2268840    -0.0956960
  C       -1.8012180    -0.4504720    -0.3698720
  C        3.0067800    -0.5070980    -0.9241520
  C        2.2930000     0.2310680     1.3932270
  C       -0.4931590     0.3235730    -0.1949090
  C       -1.9724170    -1.5121580     0.7102480
  H        1.8788190     1.2611790    -0.4401960
  H        0.6087259    -1.2828438    -0.4266577
  H       -1.7868920    -0.9288770    -1.3618540
  H        3.9904500    -0.0508330    -0.7882090
  H        3.0812650    -1.5550640    -0.6116920
  H        2.7529100    -0.4768670    -1.9861430
  H        1.5225120     0.7762450     1.9430400
  H        3.2574000     0.7146530     1.5762130
  H        2.3438960    -0.7932520     1.7757830
  H       -2.9590570    -1.9673470     0.6070900
  H       -1.9090200    -1.0432980     1.6949070
  H       -1.2193110    -2.3035120     0.6420620
  H       -2.4442120     1.3312090    -0.1521090
units angstrom
no_reorient  #important for SAPT in psi4, default
symmetry c1  #important for SAPT in psi4, default
}

set PROPERTIES_ORIGIN ["COM"]
properties('MP2/aug-cc-pvtz', properties = ['dipole'])
--------------------------------------------------------------------------

    Molecular point group: c1
  Charge       = 0
  Multiplicity = 1
  Basis Set: AUG-CC-PVTZ
    Blend: AUG-CC-PVTZ
  Basis Set: (AUG-CC-PVTZ AUX)
    Blend: AUG-CC-PVTZ-JKFIT

    Orbital Energies [Eh]
    ---------------------

    Doubly Occupied:

       1A    -20.548147     2A    -20.532988     3A    -15.585671
       4A    -11.358700     5A    -11.297784     6A    -11.277158
       7A    -11.232487     8A    -11.230943     9A    -11.222551
      10A     -1.398397    11A     -1.346636    12A     -1.260826
      13A     -1.073902    14A     -1.025710    15A     -0.950336
      16A     -0.896593    17A     -0.830722    18A     -0.810796
      19A     -0.737210    20A     -0.680121    21A     -0.653365
      22A     -0.635788    23A     -0.629112    24A     -0.599051
      25A     -0.581984    26A     -0.567577    27A     -0.555309
      28A     -0.548550    29A     -0.539954    30A     -0.530513
      31A     -0.513862    32A     -0.503086    33A     -0.491884
      34A     -0.445294    35A     -0.435062    36A     -0.403181

  @DF-RHF Final Energy:  -439.13173758733450

   => Energetics <=

    Nuclear Repulsion Energy =            485.9704151362416837
    One-Electron Energy =               -1562.3418050678035343
    Two-Electron Energy =                 637.2396523442274656
    Total Energy =                       -439.1317375873344417
  Basis Set: (AUG-CC-PVTZ AUX)
    Blend: AUG-CC-PVTZ-RI
    Molecular point group: c1

    Geometry (in Angstrom), charge = 0, multiplicity = 1:

       Center              X                  Y                   Z               Mass
    ------------   -----------------  -----------------  -----------------  -----------------
         O           -2.875672004892     0.460736109510    -0.305180106543    15.994914619570
         O           -0.522106004892     1.536665109510     0.054801893457    15.994914619570
         N            0.656210995108    -0.375400890490    -0.336103106543    14.003074004430
         C            1.964704995108     0.226120109510    -0.095772106543    12.000000000000
         C           -1.801258004892    -0.451235890490    -0.369948106543    12.000000000000
         C            3.006739995108    -0.507861890490    -0.924228106543    12.000000000000
         C            2.292959995108     0.230304109510     1.393150893457    12.000000000000
         C           -0.493199004892     0.322809109510    -0.194985106543    12.000000000000
         C           -1.972457004892    -1.512921890490     0.710171893457    12.000000000000
         H            1.878778995108     1.260415109510    -0.440272106543     1.007825032230
         H            0.608685895108    -1.283607690490    -0.426733806543     1.007825032230
         H           -1.786932004892    -0.929640890490    -1.361930106543     1.007825032230
         H            3.990409995108    -0.051596890490    -0.788285106543     1.007825032230
         H            3.081224995108    -1.555827890490    -0.611768106543     1.007825032230
         H            2.752869995108    -0.477630890490    -1.986219106543     1.007825032230
         H            1.522471995108     0.775481109510     1.942963893457     1.007825032230
         H            3.257359995108     0.713889109510     1.576136893457     1.007825032230
         H            2.343855995108    -0.794015890490     1.775706893457     1.007825032230
         H           -2.959097004892    -1.968110890490     0.607013893457     1.007825032230
         H           -1.909060004892    -1.044061890490     1.694830893457     1.007825032230
         H           -1.219351004892    -2.304275890490     0.641985893457     1.007825032230
         H           -2.444252004892     1.330445109510    -0.152185106543     1.007825032230

  Basis Set: AUG-CC-PVTZ
    Blend: AUG-CC-PVTZ
  Basis Set: (AUG-CC-PVTZ AUX)
    Blend: AUG-CC-PVTZ-JKFIT
	 Reference Energy          =    -439.1317375873344986 [Eh]
	 Singles Energy            =      -0.0000000000000000 [Eh]
	 Same-Spin Energy          =      -0.4452223011604953 [Eh]
	 Opposite-Spin Energy      =      -1.4619271159493610 [Eh]
	 Correlation Energy        =      -1.9071494171098562 [Eh]
	 Total Energy              =    -441.0388870044443479 [Eh]

	 ================> DF-SCS-MP2 Energies <==================
	-----------------------------------------------------------
	 SCS Same-Spin Scale       =       0.3333333333333333 [-]
	 SCS Opposite-Spin Scale   =       1.2000000000000000 [-]
	 SCS Same-Spin Energy      =      -0.1484074337201651 [Eh]
	 SCS Opposite-Spin Energy  =      -1.7543125391392331 [Eh]
	 SCS Correlation Energy    =      -1.9027199728593982 [Eh]
	 SCS Total Energy          =    -441.0344575601939141 [Eh]
	-----------------------------------------------------------

  Dipole Moment: [D]
     X:     3.4412      Y:    -2.9928      Z:    -0.1349     Total:     4.5626

*** Psi4 exiting successfully. Buy a developer a beer!
