                               Psi4 1.3.2 release

  ==> Input File <==

--------------------------------------------------------------------------
#psi4
#
memory 32 gb

molecule  {
0 1
  O       -2.8756320     0.4615000    -0.3051040
  O       -0.5220660     1.5374290     0.0548780
  N        0.6562510    -0.3746370    -0.3360270
  C        1.9647450     0.2268840    -0.0956960
  C       -1.8012180    -0.4504720    -0.3698720
  C        3.0067800    -0.5070980    -0.9241520
  C        2.2930000     0.2310680     1.3932270
  C       -0.4992912     0.3135130    -0.1955752
  C       -1.9724170    -1.5121580     0.7102480
  H        1.8788190     1.2611790    -0.4401960
  H        0.5947075    -1.3817723    -0.4359972
  H       -1.7868920    -0.9288770    -1.3618540
  H        3.9904500    -0.0508330    -0.7882090
  H        3.0812650    -1.5550640    -0.6116920
  H        2.7529100    -0.4768670    -1.9861430
  H        1.5225120     0.7762450     1.9430400
  H        3.2574000     0.7146530     1.5762130
  H        2.3438960    -0.7932520     1.7757830
  H       -2.9590570    -1.9673470     0.6070900
  H       -1.9090200    -1.0432980     1.6949070
  H       -1.2193110    -2.3035120     0.6420620
  H       -2.4442120     1.3312090    -0.1521090
units angstrom
no_reorient  #important for SAPT in psi4, default
symmetry c1  #important for SAPT in psi4, default
}

set PROPERTIES_ORIGIN ["COM"]
properties('MP2/aug-cc-pvtz', properties = ['dipole'])
--------------------------------------------------------------------------

    Molecular point group: c1
  Charge       = 0
  Multiplicity = 1
  Basis Set: AUG-CC-PVTZ
    Blend: AUG-CC-PVTZ
  Basis Set: (AUG-CC-PVTZ AUX)
    Blend: AUG-CC-PVTZ-JKFIT

    Orbital Energies [Eh]
    ---------------------

    Doubly Occupied:

       1A    -20.548175     2A    -20.530949     3A    -15.596501
       4A    -11.358851     5A    -11.297925     6A    -11.277716
       7A    -11.232405     8A    -11.231541     9A    -11.222311
      10A     -1.393398    11A     -1.344646    12A     -1.247062
      13A     -1.073358    14A     -1.025133    15A     -0.949866
      16A     -0.897090    17A     -0.823314    18A     -0.793770
      19A     -0.737236    20A     -0.678999    21A     -0.650371
      22A     -0.630784    23A     -0.628747    24A     -0.595625
      25A     -0.581770    26A     -0.567813    27A     -0.555083
      28A     -0.548428    29A     -0.539338    30A     -0.529519
      31A     -0.511796    32A     -0.502076    33A     -0.491183
      34A     -0.445346    35A     -0.435302    36A     -0.400855

  @DF-RHF Final Energy:  -439.13674669940212

   => Energetics <=

    Nuclear Repulsion Energy =            485.2982321965725419
    One-Electron Energy =               -1561.1213938857299581
    Two-Electron Energy =                 636.6864149897552352
    Total Energy =                       -439.1367466994021242
  Basis Set: (AUG-CC-PVTZ AUX)
    Blend: AUG-CC-PVTZ-RI
    Molecular point group: c1

    Geometry (in Angstrom), charge = 0, multiplicity = 1:

       Center              X                  Y                   Z               Mass
    ------------   -----------------  -----------------  -----------------  -----------------
         O           -2.875002911922     0.462417510350    -0.305047324734    15.994914619570
         O           -0.521436911922     1.538346510350     0.054934675266    15.994914619570
         N            0.656880088078    -0.373719489650    -0.335970324734    14.003074004430
         C            1.965374088078     0.227801510350    -0.095639324734    12.000000000000
         C           -1.800588911922    -0.449554489650    -0.369815324734    12.000000000000
         C            3.007409088078    -0.506180489650    -0.924095324734    12.000000000000
         C            2.293629088078     0.231985510350     1.393283675266    12.000000000000
         C           -0.498662111922     0.314430510350    -0.195518524734    12.000000000000
         C           -1.971787911922    -1.511240489650     0.710304675266    12.000000000000
         H            1.879448088078     1.262096510350    -0.440139324734     1.007825032230
         H            0.595336588078    -1.380854789650    -0.435940524734     1.007825032230
         H           -1.786262911922    -0.927959489650    -1.361797324734     1.007825032230
         H            3.991079088078    -0.049915489650    -0.788152324734     1.007825032230
         H            3.081894088078    -1.554146489650    -0.611635324734     1.007825032230
         H            2.753539088078    -0.475949489650    -1.986086324734     1.007825032230
         H            1.523141088078     0.777162510350     1.943096675266     1.007825032230
         H            3.258029088078     0.715570510350     1.576269675266     1.007825032230
         H            2.344525088078    -0.792334489650     1.775839675266     1.007825032230
         H           -2.958427911922    -1.966429489650     0.607146675266     1.007825032230
         H           -1.908390911922    -1.042380489650     1.694963675266     1.007825032230
         H           -1.218681911922    -2.302594489650     0.642118675266     1.007825032230
         H           -2.443582911922     1.332126510350    -0.152052324734     1.007825032230

  Basis Set: AUG-CC-PVTZ
    Blend: AUG-CC-PVTZ
  Basis Set: (AUG-CC-PVTZ AUX)
    Blend: AUG-CC-PVTZ-JKFIT
	 Reference Energy          =    -439.1367466994021242 [Eh]
	 Singles Energy            =      -0.0000000000000000 [Eh]
	 Same-Spin Energy          =      -0.4462800166616625 [Eh]
	 Opposite-Spin Energy      =      -1.4641111018842796 [Eh]
	 Correlation Energy        =      -1.9103911185459421 [Eh]
	 Total Energy              =    -441.0471378179480553 [Eh]

	 ================> DF-SCS-MP2 Energies <==================
	-----------------------------------------------------------
	 SCS Same-Spin Scale       =       0.3333333333333333 [-]
	 SCS Opposite-Spin Scale   =       1.2000000000000000 [-]
	 SCS Same-Spin Energy      =      -0.1487600055538875 [Eh]
	 SCS Opposite-Spin Energy  =      -1.7569333222611354 [Eh]
	 SCS Correlation Energy    =      -1.9056933278150230 [Eh]
	 SCS Total Energy          =    -441.0424400272171397 [Eh]
	-----------------------------------------------------------

  Dipole Moment: [D]
     X:     3.4436      Y:    -3.1107      Z:    -0.1464     Total:     4.6429

*** Psi4 exiting successfully. Buy a developer a beer!
