                               Psi4 1.3.2 release

  ==> Input File <==

--------------------------------------------------------------------------
#psi4
#
memory 32 gb

molecule  {
0 1
  O       -2.8756320     0.4615000    -0.3051040
  O       -0.5220660     1.5374290     0.0548780
  N        0.6562510    -0.3746370    -0.3360270
  C        1.9647450     0.2268840    -0.0956960
  C       -1.8012180    -0.4504720    -0.3698720
  C        3.0067800    -0.5070980    -0.9241520
  C        2.2930000     0.2310680     1.3932270
  C       -0.4076627     0.3741655    -0.1834732
  C       -1.9724170    -1.5121580     0.7102480
  H        1.8788190     1.2611790    -0.4401960
  H        0.6035260    -1.3822150    -0.4365740
  H       -1.7868920    -0.9288770    -1.3618540
  H        3.9904500    -0.0508330    -0.7882090
  H        3.0812650    -1.5550640    -0.6116920
  H        2.7529100    -0.4768670    -1.9861430
  H        1.5225120     0.7762450     1.9430400
  H        3.2574000     0.7146530     1.5762130
  H        2.3438960    -0.7932520     1.7757830
  H       -2.9590570    -1.9673470     0.6070900
  H       -1.9090200    -1.0432980     1.6949070
  H       -1.2193110    -2.3035120     0.6420620
  H       -2.4442120     1.3312090    -0.1521090
units angstrom
no_reorient  #important for SAPT in psi4, default
symmetry c1  #important for SAPT in psi4, default
}

set PROPERTIES_ORIGIN ["COM"]
properties('MP2/aug-cc-pvtz', properties = ['dipole'])
--------------------------------------------------------------------------

    Molecular point group: c1
  Charge       = 0
  Multiplicity = 1
  Basis Set: AUG-CC-PVTZ
    Blend: AUG-CC-PVTZ
  Basis Set: (AUG-CC-PVTZ AUX)
    Blend: AUG-CC-PVTZ-JKFIT

    Orbital Energies [Eh]
    ---------------------

    Doubly Occupied:

       1A    -20.542870     2A    -20.535167     3A    -15.598170
       4A    -11.351462     5A    -11.289982     6A    -11.279006
       7A    -11.234383     8A    -11.225334     9A    -11.223942
      10A     -1.418921    11A     -1.344709    12A     -1.267708
      13A     -1.072201    14A     -1.013890    15A     -0.952956
      16A     -0.878587    17A     -0.821736    18A     -0.809265
      19A     -0.726454    20A     -0.681743    21A     -0.647575
      22A     -0.642019    23A     -0.630424    24A     -0.608284
      25A     -0.577997    26A     -0.562337    27A     -0.558218
      28A     -0.549140    29A     -0.544664    30A     -0.529404
      31A     -0.515793    32A     -0.508026    33A     -0.495606
      34A     -0.439303    35A     -0.413615    36A     -0.408167

  @DF-RHF Final Energy:  -439.13077506805422

   => Energetics <=

    Nuclear Repulsion Energy =            485.7889616950308778
    One-Electron Energy =               -1562.0413587158400333
    Two-Electron Energy =                 637.1216219527549356
    Total Energy =                       -439.1307750680542767
  Basis Set: (AUG-CC-PVTZ AUX)
    Blend: AUG-CC-PVTZ-RI
    Molecular point group: c1

    Geometry (in Angstrom), charge = 0, multiplicity = 1:

       Center              X                  Y                   Z               Mass
    ------------   -----------------  -----------------  -----------------  -----------------
         O           -2.883458098197     0.456868970007    -0.306150670371    15.994914619570
         O           -0.529892098197     1.532797970007     0.053831329629    15.994914619570
         N            0.648424901803    -0.379268029993    -0.337073670371    14.003074004430
         C            1.956918901803     0.222252970007    -0.096742670371    12.000000000000
         C           -1.809044098197    -0.455103029993    -0.370918670371    12.000000000000
         C            2.998953901803    -0.511729029993    -0.925198670371    12.000000000000
         C            2.285173901803     0.226436970007     1.392180329629    12.000000000000
         C           -0.415488798197     0.369534470007    -0.184519870371    12.000000000000
         C           -1.980243098197    -1.516789029993     0.709201329629    12.000000000000
         H            1.870992901803     1.256547970007    -0.441242670371     1.007825032230
         H            0.595699901803    -1.386846029993    -0.437620670371     1.007825032230
         H           -1.794718098197    -0.933508029993    -1.362900670371     1.007825032230
         H            3.982623901803    -0.055464029993    -0.789255670371     1.007825032230
         H            3.073438901803    -1.559695029993    -0.612738670371     1.007825032230
         H            2.745083901803    -0.481498029993    -1.987189670371     1.007825032230
         H            1.514685901803     0.771613970007     1.941993329629     1.007825032230
         H            3.249573901803     0.710021970007     1.575166329629     1.007825032230
         H            2.336069901803    -0.797883029993     1.774736329629     1.007825032230
         H           -2.966883098197    -1.971978029993     0.606043329629     1.007825032230
         H           -1.916846098197    -1.047929029993     1.693860329629     1.007825032230
         H           -1.227137098197    -2.308143029993     0.641015329629     1.007825032230
         H           -2.452038098197     1.326577970007    -0.153155670371     1.007825032230

  Basis Set: AUG-CC-PVTZ
    Blend: AUG-CC-PVTZ
  Basis Set: (AUG-CC-PVTZ AUX)
    Blend: AUG-CC-PVTZ-JKFIT
	 Reference Energy          =    -439.1307750680542199 [Eh]
	 Singles Energy            =      -0.0000000000000000 [Eh]
	 Same-Spin Energy          =      -0.4451373623006696 [Eh]
	 Opposite-Spin Energy      =      -1.4617515760281194 [Eh]
	 Correlation Energy        =      -1.9068889383287890 [Eh]
	 Total Energy              =    -441.0376640063830109 [Eh]

	 ================> DF-SCS-MP2 Energies <==================
	-----------------------------------------------------------
	 SCS Same-Spin Scale       =       0.3333333333333333 [-]
	 SCS Opposite-Spin Scale   =       1.2000000000000000 [-]
	 SCS Same-Spin Energy      =      -0.1483791207668899 [Eh]
	 SCS Opposite-Spin Energy  =      -1.7541018912337434 [Eh]
	 SCS Correlation Energy    =      -1.9024810120006332 [Eh]
	 SCS Total Energy          =    -441.0332560800548549 [Eh]
	-----------------------------------------------------------

  Dipole Moment: [D]
     X:     3.9003      Y:    -2.8358      Z:    -0.1240     Total:     4.8239

*** Psi4 exiting successfully. Buy a developer a beer!
