                               Psi4 1.3.2 release

  ==> Input File <==

--------------------------------------------------------------------------
#psi4
#
memory 32 gb

molecule  {
0 1
  O       -2.8756320     0.4615000    -0.3051040
  O       -0.5220660     1.5374290     0.0548780
  N        0.6562510    -0.3746370    -0.3360270
  C        1.9647450     0.2268840    -0.0956960
  C       -1.8012180    -0.4504720    -0.3698720
  C        3.0067800    -0.5070980    -0.9241520
  C        2.2930000     0.2310680     1.3932270
  C       -0.4931590     0.3235730    -0.1949090
  C       -1.9730934    -1.5309047     0.6913865
  H        1.8788190     1.2611790    -0.4401960
  H        0.6035260    -1.3822150    -0.4365740
  H       -1.7890980    -0.9460163    -1.3534338
  H        3.9904500    -0.0508330    -0.7882090
  H        3.0812650    -1.5550640    -0.6116920
  H        2.7529100    -0.4768670    -1.9861430
  H        1.5225120     0.7762450     1.9430400
  H        3.2574000     0.7146530     1.5762130
  H        2.3438960    -0.7932520     1.7757830
  H       -2.9590570    -1.9673470     0.6070900
  H       -1.9090200    -1.0432980     1.6949070
  H       -1.2193110    -2.3035120     0.6420620
  H       -2.4442120     1.3312090    -0.1521090
units angstrom
no_reorient  #important for SAPT in psi4, default
symmetry c1  #important for SAPT in psi4, default
}

set PROPERTIES_ORIGIN ["COM"]
properties('MP2/aug-cc-pvtz', properties = ['dipole'])
--------------------------------------------------------------------------

    Molecular point group: c1
  Charge       = 0
  Multiplicity = 1
  Basis Set: AUG-CC-PVTZ
    Blend: AUG-CC-PVTZ
  Basis Set: (AUG-CC-PVTZ AUX)
    Blend: AUG-CC-PVTZ-JKFIT

    Orbital Energies [Eh]
    ---------------------

    Doubly Occupied:

       1A    -20.548459     2A    -20.532747     3A    -15.595917
       4A    -11.358805     5A    -11.297471     6A    -11.277324
       7A    -11.232376     8A    -11.230661     9A    -11.222328
      10A     -1.397472    11A     -1.346132    12A     -1.248175
      13A     -1.072393    14A     -1.024283    15A     -0.949916
      16A     -0.894874    17A     -0.822406    18A     -0.795031
      19A     -0.736749    20A     -0.679117    21A     -0.649843
      22A     -0.632838    23A     -0.628751    24A     -0.597390
      25A     -0.581948    26A     -0.569611    27A     -0.555137
      28A     -0.549861    29A     -0.537585    30A     -0.527918
      31A     -0.512623    32A     -0.502908    33A     -0.491717
      34A     -0.443936    35A     -0.435075    36A     -0.401468

  @DF-RHF Final Energy:  -439.13694695282243

   => Energetics <=

    Nuclear Repulsion Energy =            485.2289214342624177
    One-Electron Energy =               -1560.9692480501412319
    Two-Electron Energy =                 636.6033796630563302
    Total Energy =                       -439.1369469528224272
  Basis Set: (AUG-CC-PVTZ AUX)
    Blend: AUG-CC-PVTZ-RI
    Molecular point group: c1

    Geometry (in Angstrom), charge = 0, multiplicity = 1:

       Center              X                  Y                   Z               Mass
    ------------   -----------------  -----------------  -----------------  -----------------
         O           -2.875553154474     0.463347830539    -0.303442081047    15.994914619570
         O           -0.521987154474     1.539276830539     0.056539918953    15.994914619570
         N            0.656329845526    -0.372789169461    -0.334365081047    14.003074004430
         C            1.964823845526     0.228731830539    -0.094034081047    12.000000000000
         C           -1.801139154474    -0.448624169461    -0.368210081047    12.000000000000
         C            3.006858845526    -0.505250169461    -0.922490081047    12.000000000000
         C            2.293078845526     0.232915830539     1.394888918953    12.000000000000
         C           -0.493080154474     0.325420830539    -0.193247081047    12.000000000000
         C           -1.973014554474    -1.529056869461     0.693048418953    12.000000000000
         H            1.878897845526     1.263026830539    -0.438534081047     1.007825032230
         H            0.603604845526    -1.380367169461    -0.434912081047     1.007825032230
         H           -1.789019154474    -0.944168469461    -1.351771881047     1.007825032230
         H            3.990528845526    -0.048985169461    -0.786547081047     1.007825032230
         H            3.081343845526    -1.553216169461    -0.610030081047     1.007825032230
         H            2.752988845526    -0.475019169461    -1.984481081047     1.007825032230
         H            1.522590845526     0.778092830539     1.944701918953     1.007825032230
         H            3.257478845526     0.716500830539     1.577874918953     1.007825032230
         H            2.343974845526    -0.791404169461     1.777444918953     1.007825032230
         H           -2.958978154474    -1.965499169461     0.608751918953     1.007825032230
         H           -1.908941154474    -1.041450169461     1.696568918953     1.007825032230
         H           -1.219232154474    -2.301664169461     0.643723918953     1.007825032230
         H           -2.444133154474     1.333056830539    -0.150447081047     1.007825032230

  Basis Set: AUG-CC-PVTZ
    Blend: AUG-CC-PVTZ
  Basis Set: (AUG-CC-PVTZ AUX)
    Blend: AUG-CC-PVTZ-JKFIT
	 Reference Energy          =    -439.1369469528224272 [Eh]
	 Singles Energy            =      -0.0000000000000000 [Eh]
	 Same-Spin Energy          =      -0.4460456952105142 [Eh]
	 Opposite-Spin Energy      =      -1.4636806626575414 [Eh]
	 Correlation Energy        =      -1.9097263578680557 [Eh]
	 Total Energy              =    -441.0466733106904940 [Eh]

	 ================> DF-SCS-MP2 Energies <==================
	-----------------------------------------------------------
	 SCS Same-Spin Scale       =       0.3333333333333333 [-]
	 SCS Opposite-Spin Scale   =       1.2000000000000000 [-]
	 SCS Same-Spin Energy      =      -0.1486818984035047 [Eh]
	 SCS Opposite-Spin Energy  =      -1.7564167951890497 [Eh]
	 SCS Correlation Energy    =      -1.9050986935925545 [Eh]
	 SCS Total Energy          =    -441.0420456464149765 [Eh]
	-----------------------------------------------------------

  Dipole Moment: [D]
     X:     3.4630      Y:    -3.0648      Z:    -0.1511     Total:     4.6269

*** Psi4 exiting successfully. Buy a developer a beer!
