                               Psi4 1.4a3.dev225

  ==> Input File <==

--------------------------------------------------------------------------
#psi4
#
memory 32 gb

molecule  {
0 1
  O        2.9110620    -0.5703060    -0.4523520
  O        0.5539390    -1.5540470     0.1662040
  N       -0.5943370     0.3369340    -0.3930300
  C       -1.9154150    -0.2304160    -0.1256420
  C        1.8655780     0.3788930    -0.3941620
  C       -2.9513150     0.5221750    -0.9483650
  C       -2.2232580    -0.2086170     1.3682650
  C        0.5011527    -0.3905911    -0.1844070
  C        2.1035320     1.3624180     0.7499890
  H       -1.8664900    -1.2716350    -0.4595930
  H       -0.5281980     1.3181660    -0.6377390
  H        1.8317100     0.9202690    -1.3505730
  H       -3.9433690     0.0896600    -0.7945050
  H       -2.9965010     1.5743390    -0.6446630
  H       -2.7149650     0.4749500    -2.0147890
  H       -1.4563020    -0.7629570     1.9136170
  H       -3.1950150    -0.6709470     1.5682930
  H       -2.2473660     0.8219210     1.7368640
  H        3.0888910     1.8183940     0.6312910
  H        2.0827360     0.8223960     1.7004970
  H        1.3487660     2.1553220     0.7756360
  H        2.4958040    -1.4028240    -0.1381920
units angstrom
no_reorient  #important for SAPT in psi4, default
symmetry c1  #important for SAPT in psi4, default
}

set PROPERTIES_ORIGIN ["COM"]
properties('MP2/aug-cc-pvtz', properties = ['dipole'])
--------------------------------------------------------------------------

    Molecular point group: c1
  Charge       = 0
  Multiplicity = 1
  Basis Set: AUG-CC-PVTZ
    Blend: AUG-CC-PVTZ
  Basis Set: (AUG-CC-PVTZ AUX)
    Blend: AUG-CC-PVTZ-JKFIT

    Orbital Energies [Eh]
    ---------------------

    Doubly Occupied:

       1A    -20.546179     2A    -20.532826     3A    -15.597236
       4A    -11.354174     5A    -11.294578     6A    -11.278903
       7A    -11.234497     8A    -11.226421     9A    -11.222578
      10A     -1.405701    11A     -1.345989    12A     -1.256432
      13A     -1.070866    14A     -1.018383    15A     -0.951122
      16A     -0.885013    17A     -0.820623    18A     -0.802451
      19A     -0.732176    20A     -0.678854    21A     -0.640450
      22A     -0.639974    23A     -0.630127    24A     -0.600940
      25A     -0.580462    26A     -0.569062    27A     -0.556511
      28A     -0.548594    29A     -0.538421    30A     -0.529376
      31A     -0.512700    32A     -0.504915    33A     -0.493710
      34A     -0.443389    35A     -0.422292    36A     -0.405716

  @DF-RHF Final Energy:  -439.13737945068181

   => Energetics <=

    Nuclear Repulsion Energy =            485.2913198111088491
    One-Electron Energy =               -1561.1141172252953311
    Two-Electron Energy =                 636.6854179635046194
    Total Energy =                       -439.1373794506818058
  Basis Set: (AUG-CC-PVTZ AUX)
    Blend: AUG-CC-PVTZ-RI
    Molecular point group: c1

    Geometry (in Angstrom), charge = 0, multiplicity = 1:

       Center              X                  Y                   Z               Mass
    ------------   -----------------  -----------------  -----------------  -----------------
         O            2.853855518446    -0.523612477959    -0.435658929686    15.994914619570
         O            0.496732518446    -1.507353477959     0.182897070314    15.994914619570
         N           -0.651543481554     0.383627522041    -0.376336929686    14.003074004430
         C           -1.972621481554    -0.183722477959    -0.108948929686    12.000000000000
         C            1.808371518446     0.425586522041    -0.377468929686    12.000000000000
         C           -3.008521481554     0.568868522041    -0.931671929686    12.000000000000
         C           -2.280464481554    -0.161923477959     1.384958070314    12.000000000000
         C            0.443946218446    -0.343897577959    -0.167713929686    12.000000000000
         C            2.046325518446     1.409111522041     0.766682070314    12.000000000000
         H           -1.923696481554    -1.224941477959    -0.442899929686     1.007825032230
         H           -0.585404481554     1.364859522041    -0.621045929686     1.007825032230
         H            1.774503518446     0.966962522041    -1.333879929686     1.007825032230
         H           -4.000575481554     0.136353522041    -0.777811929686     1.007825032230
         H           -3.053707481554     1.621032522041    -0.627969929686     1.007825032230
         H           -2.772171481554     0.521643522041    -1.998095929686     1.007825032230
         H           -1.513508481554    -0.716263477959     1.930310070314     1.007825032230
         H           -3.252221481554    -0.624253477959     1.584986070314     1.007825032230
         H           -2.304572481554     0.868614522041     1.753557070314     1.007825032230
         H            3.031684518446     1.865087522041     0.647984070314     1.007825032230
         H            2.025529518446     0.869089522041     1.717190070314     1.007825032230
         H            1.291559518446     2.202015522041     0.792329070314     1.007825032230
         H            2.438597518446    -1.356130477959    -0.121498929686     1.007825032230

  Basis Set: AUG-CC-PVTZ
    Blend: AUG-CC-PVTZ
  Basis Set: (AUG-CC-PVTZ AUX)
    Blend: AUG-CC-PVTZ-JKFIT
	 Reference Energy          =    -439.1373794506818058 [Eh]
	 Singles Energy            =      -0.0000000000000000 [Eh]
	 Same-Spin Energy          =      -0.4453281868370035 [Eh]
	 Opposite-Spin Energy      =      -1.4625460630340577 [Eh]
	 Correlation Energy        =      -1.9078742498710612 [Eh]
	 Total Energy              =    -441.0452537005528484 [Eh]

	 ================> DF-SCS-MP2 Energies <==================
	-----------------------------------------------------------
	 SCS Same-Spin Scale       =       0.3333333333333333 [-]
	 SCS Opposite-Spin Scale   =       1.2000000000000000 [-]
	 SCS Same-Spin Energy      =      -0.1484427289456678 [Eh]
	 SCS Opposite-Spin Energy  =      -1.7550552756408691 [Eh]
	 SCS Correlation Energy    =      -1.9034980045865368 [Eh]
	 SCS Total Energy          =    -441.0408774552683440 [Eh]
	-----------------------------------------------------------

  Dipole Moment: [D]
     X:    -3.6029      Y:     3.0256      Z:    -0.1754     Total:     4.7081

*** Psi4 exiting successfully. Buy a developer a beer!
