                               Psi4 1.3.2 release

  ==> Input File <==

--------------------------------------------------------------------------
#psi4
#
memory 32 gb

molecule  {
0 1
  O       -2.8756320     0.4615000    -0.3051040
  O       -0.5220660     1.5374290     0.0548780
  N        0.6499916    -0.3844100    -0.3381625
  C        1.9647450     0.2268840    -0.0956960
  C       -1.7942437    -0.4616152    -0.3722057
  C        3.0067800    -0.5070980    -0.9241520
  C        2.2930000     0.2310680     1.3932270
  C       -0.4931590     0.3235730    -0.1949090
  C       -1.9724170    -1.5121580     0.7102480
  H        1.8788190     1.2611790    -0.4401960
  H        0.6035260    -1.3822150    -0.4365740
  H       -1.7868920    -0.9288770    -1.3618540
  H        3.9904500    -0.0508330    -0.7882090
  H        3.0812650    -1.5550640    -0.6116920
  H        2.7529100    -0.4768670    -1.9861430
  H        1.5225120     0.7762450     1.9430400
  H        3.2574000     0.7146530     1.5762130
  H        2.3438960    -0.7932520     1.7757830
  H       -2.9590570    -1.9673470     0.6070900
  H       -1.9090200    -1.0432980     1.6949070
  H       -1.2193110    -2.3035120     0.6420620
  H       -2.4442120     1.3312090    -0.1521090
units angstrom
no_reorient  #important for SAPT in psi4, default
symmetry c1  #important for SAPT in psi4, default
}

set PROPERTIES_ORIGIN ["COM"]
properties('MP2/aug-cc-pvtz', properties = ['dipole'])
--------------------------------------------------------------------------

    Molecular point group: c1
  Charge       = 0
  Multiplicity = 1
  Basis Set: AUG-CC-PVTZ
    Blend: AUG-CC-PVTZ
  Basis Set: (AUG-CC-PVTZ AUX)
    Blend: AUG-CC-PVTZ-JKFIT

    Orbital Energies [Eh]
    ---------------------

    Doubly Occupied:

       1A    -20.545979     2A    -20.533165     3A    -15.595151
       4A    -11.358708     5A    -11.296452     6A    -11.278122
       7A    -11.232475     8A    -11.230814     9A    -11.222741
      10A     -1.395967    11A     -1.341267    12A     -1.247776
      13A     -1.072939    14A     -1.025003    15A     -0.950039
      16A     -0.895021    17A     -0.821656    18A     -0.797417
      19A     -0.734228    20A     -0.678551    21A     -0.649491
      22A     -0.632632    23A     -0.628208    24A     -0.597834
      25A     -0.580374    26A     -0.567020    27A     -0.555238
      28A     -0.547876    29A     -0.538280    30A     -0.530137
      31A     -0.511456    32A     -0.502835    33A     -0.491765
      34A     -0.446005    35A     -0.434475    36A     -0.402511

  @DF-RHF Final Energy:  -439.13748815863948

   => Energetics <=

    Nuclear Repulsion Energy =            485.1531012468244057
    One-Electron Energy =               -1560.8419652424297510
    Two-Electron Energy =                 636.5513758369658035
    Total Energy =                       -439.1374881586394849
  Basis Set: (AUG-CC-PVTZ AUX)
    Blend: AUG-CC-PVTZ-RI
    Molecular point group: c1

    Geometry (in Angstrom), charge = 0, multiplicity = 1:

       Center              X                  Y                   Z               Mass
    ------------   -----------------  -----------------  -----------------  -----------------
         O           -2.875601827868     0.463563984526    -0.304662145887    15.994914619570
         O           -0.522035827868     1.539492984526     0.055319854113    15.994914619570
         N            0.650021772132    -0.382346015474    -0.337720645887    14.003074004430
         C            1.964775172132     0.228947984526    -0.095254145887    12.000000000000
         C           -1.794213527868    -0.459551215474    -0.371763845887    12.000000000000
         C            3.006810172132    -0.505034015474    -0.923710145887    12.000000000000
         C            2.293030172132     0.233131984526     1.393668854113    12.000000000000
         C           -0.493128827868     0.325636984526    -0.194467145887    12.000000000000
         C           -1.972386827868    -1.510094015474     0.710689854113    12.000000000000
         H            1.878849172132     1.263242984526    -0.439754145887     1.007825032230
         H            0.603556172132    -1.380151015474    -0.436132145887     1.007825032230
         H           -1.786861827868    -0.926813015474    -1.361412145887     1.007825032230
         H            3.990480172132    -0.048769015474    -0.787767145887     1.007825032230
         H            3.081295172132    -1.553000015474    -0.611250145887     1.007825032230
         H            2.752940172132    -0.474803015474    -1.985701145887     1.007825032230
         H            1.522542172132     0.778308984526     1.943481854113     1.007825032230
         H            3.257430172132     0.716716984526     1.576654854113     1.007825032230
         H            2.343926172132    -0.791188015474     1.776224854113     1.007825032230
         H           -2.959026827868    -1.965283015474     0.607531854113     1.007825032230
         H           -1.908989827868    -1.041234015474     1.695348854113     1.007825032230
         H           -1.219280827868    -2.301448015474     0.642503854113     1.007825032230
         H           -2.444181827868     1.333272984526    -0.151667145887     1.007825032230

  Basis Set: AUG-CC-PVTZ
    Blend: AUG-CC-PVTZ
  Basis Set: (AUG-CC-PVTZ AUX)
    Blend: AUG-CC-PVTZ-JKFIT
	 Reference Energy          =    -439.1374881586394849 [Eh]
	 Singles Energy            =      -0.0000000000000000 [Eh]
	 Same-Spin Energy          =      -0.4459511636916946 [Eh]
	 Opposite-Spin Energy      =      -1.4637604915619598 [Eh]
	 Correlation Energy        =      -1.9097116552536544 [Eh]
	 Total Energy              =    -441.0471998138931440 [Eh]

	 ================> DF-SCS-MP2 Energies <==================
	-----------------------------------------------------------
	 SCS Same-Spin Scale       =       0.3333333333333333 [-]
	 SCS Opposite-Spin Scale   =       1.2000000000000000 [-]
	 SCS Same-Spin Energy      =      -0.1486503878972315 [Eh]
	 SCS Opposite-Spin Energy  =      -1.7565125898743517 [Eh]
	 SCS Correlation Energy    =      -1.9051629777715831 [Eh]
	 SCS Total Energy          =    -441.0426511364110524 [Eh]
	-----------------------------------------------------------

  Dipole Moment: [D]
     X:     3.5121      Y:    -3.0783      Z:    -0.1358     Total:     4.6722

*** Psi4 exiting successfully. Buy a developer a beer!
