                               Psi4 1.3.2 release

  ==> Input File <==

--------------------------------------------------------------------------
#psi4
#
memory 32 gb

molecule  {
0 1
  O       -2.8756320     0.4615000    -0.3051040
  O       -0.5220660     1.5374290     0.0548780
  N        0.6562510    -0.3746370    -0.3360270
  C        2.0543649     0.2680827    -0.0792355
  C       -1.8012180    -0.4504720    -0.3698720
  C        3.0067800    -0.5070980    -0.9241520
  C        2.2930000     0.2310680     1.3932270
  C       -0.4931590     0.3235730    -0.1949090
  C       -1.9724170    -1.5121580     0.7102480
  H        1.8788190     1.2611790    -0.4401960
  H        0.6035260    -1.3822150    -0.4365740
  H       -1.7868920    -0.9288770    -1.3618540
  H        3.9904500    -0.0508330    -0.7882090
  H        3.0812650    -1.5550640    -0.6116920
  H        2.7529100    -0.4768670    -1.9861430
  H        1.5225120     0.7762450     1.9430400
  H        3.2574000     0.7146530     1.5762130
  H        2.3438960    -0.7932520     1.7757830
  H       -2.9590570    -1.9673470     0.6070900
  H       -1.9090200    -1.0432980     1.6949070
  H       -1.2193110    -2.3035120     0.6420620
  H       -2.4442120     1.3312090    -0.1521090
units angstrom
no_reorient  #important for SAPT in psi4, default
symmetry c1  #important for SAPT in psi4, default
}

set PROPERTIES_ORIGIN ["COM"]
properties('MP2/aug-cc-pvtz', properties = ['dipole'])
--------------------------------------------------------------------------

    Molecular point group: c1
  Charge       = 0
  Multiplicity = 1
  Basis Set: AUG-CC-PVTZ
    Blend: AUG-CC-PVTZ
  Basis Set: (AUG-CC-PVTZ AUX)
    Blend: AUG-CC-PVTZ-JKFIT

    Orbital Energies [Eh]
    ---------------------

    Doubly Occupied:

       1A    -20.544733     2A    -20.527194     3A    -15.587851
       4A    -11.352750     5A    -11.293587     6A    -11.283389
       7A    -11.234762     8A    -11.228029     9A    -11.225693
      10A     -1.391708    11A     -1.341776    12A     -1.227913
      13A     -1.080710    14A     -1.022725    15A     -0.958800
      16A     -0.887323    17A     -0.819011    18A     -0.784925
      19A     -0.733404    20A     -0.673712    21A     -0.645437
      22A     -0.636456    23A     -0.626759    24A     -0.595923
      25A     -0.580982    26A     -0.565119    27A     -0.560487
      28A     -0.539790    29A     -0.537448    30A     -0.527724
      31A     -0.516477    32A     -0.504767    33A     -0.498692
      34A     -0.441952    35A     -0.427658    36A     -0.400171

  @DF-RHF Final Energy:  -439.12940541186066

   => Energetics <=

    Nuclear Repulsion Energy =            484.1611856213864371
    One-Electron Energy =               -1558.9695125624812135
    Two-Electron Energy =                 635.6789215292340032
    Total Energy =                       -439.1294054118607164
  Basis Set: (AUG-CC-PVTZ AUX)
    Blend: AUG-CC-PVTZ-RI
    Molecular point group: c1

    Geometry (in Angstrom), charge = 0, multiplicity = 1:

       Center              X                  Y                   Z               Mass
    ------------   -----------------  -----------------  -----------------  -----------------
         O           -2.883835559887     0.457728849631    -0.306610615989    15.994914619570
         O           -0.530269559887     1.533657849631     0.053371384011    15.994914619570
         N            0.648047440113    -0.378408150369    -0.337533615989    14.003074004430
         C            2.046161340113     0.264311549631    -0.080742115989    12.000000000000
         C           -1.809421559887    -0.454243150369    -0.371378615989    12.000000000000
         C            2.998576440113    -0.510869150369    -0.925658615989    12.000000000000
         C            2.284796440113     0.227296849631     1.391720384011    12.000000000000
         C           -0.501362559887     0.319801849631    -0.196415615989    12.000000000000
         C           -1.980620559887    -1.515929150369     0.708741384011    12.000000000000
         H            1.870615440113     1.257407849631    -0.441702615989     1.007825032230
         H            0.595322440113    -1.385986150369    -0.438080615989     1.007825032230
         H           -1.795095559887    -0.932648150369    -1.363360615989     1.007825032230
         H            3.982246440113    -0.054604150369    -0.789715615989     1.007825032230
         H            3.073061440113    -1.558835150369    -0.613198615989     1.007825032230
         H            2.744706440113    -0.480638150369    -1.987649615989     1.007825032230
         H            1.514308440113     0.772473849631     1.941533384011     1.007825032230
         H            3.249196440113     0.710881849631     1.574706384011     1.007825032230
         H            2.335692440113    -0.797023150369     1.774276384011     1.007825032230
         H           -2.967260559887    -1.971118150369     0.605583384011     1.007825032230
         H           -1.917223559887    -1.047069150369     1.693400384011     1.007825032230
         H           -1.227514559887    -2.307283150369     0.640555384011     1.007825032230
         H           -2.452415559887     1.327437849631    -0.153615615989     1.007825032230

  Basis Set: AUG-CC-PVTZ
    Blend: AUG-CC-PVTZ
  Basis Set: (AUG-CC-PVTZ AUX)
    Blend: AUG-CC-PVTZ-JKFIT
	 Reference Energy          =    -439.1294054118606596 [Eh]
	 Singles Energy            =      -0.0000000000000000 [Eh]
	 Same-Spin Energy          =      -0.4461938550420285 [Eh]
	 Opposite-Spin Energy      =      -1.4642882364967240 [Eh]
	 Correlation Energy        =      -1.9104820915387526 [Eh]
	 Total Energy              =    -441.0398875033994273 [Eh]

	 ================> DF-SCS-MP2 Energies <==================
	-----------------------------------------------------------
	 SCS Same-Spin Scale       =       0.3333333333333333 [-]
	 SCS Opposite-Spin Scale   =       1.2000000000000000 [-]
	 SCS Same-Spin Energy      =      -0.1487312850140095 [Eh]
	 SCS Opposite-Spin Energy  =      -1.7571458837960687 [Eh]
	 SCS Correlation Energy    =      -1.9058771688100782 [Eh]
	 SCS Total Energy          =    -441.0352825806707528 [Eh]
	-----------------------------------------------------------

  Dipole Moment: [D]
     X:     3.8312      Y:    -3.0344      Z:    -0.0841     Total:     4.8880

*** Psi4 exiting successfully. Buy a developer a beer!
