                               Psi4 1.3.2 release

  ==> Input File <==

--------------------------------------------------------------------------
#psi4
#
memory 32 gb

molecule  {
0 1
  O       -2.8756320     0.4615000    -0.3051040
  O       -0.5220660     1.5374290     0.0548780
  N        0.6562510    -0.3746370    -0.3360270
  C        1.9647450     0.2268840    -0.0956960
  C       -1.8012180    -0.4504720    -0.3698720
  C        3.0067800    -0.5070980    -0.9241520
  C        2.2930000     0.2310680     1.3932270
  C       -0.4931590     0.3235730    -0.1949090
  C       -1.9727617    -1.5215721     0.7008580
  H        1.8788190     1.2611790    -0.4401960
  H        0.6035260    -1.3822150    -0.4365740
  H       -1.7879945    -0.9374652    -1.3576815
  H        3.9904500    -0.0508330    -0.7882090
  H        3.0812650    -1.5550640    -0.6116920
  H        2.7529100    -0.4768670    -1.9861430
  H        1.5225120     0.7762450     1.9430400
  H        3.2574000     0.7146530     1.5762130
  H        2.3438960    -0.7932520     1.7757830
  H       -2.9590570    -1.9673470     0.6070900
  H       -1.9090200    -1.0432980     1.6949070
  H       -1.2193110    -2.3035120     0.6420620
  H       -2.4442120     1.3312090    -0.1521090
units angstrom
no_reorient  #important for SAPT in psi4, default
symmetry c1  #important for SAPT in psi4, default
}

set PROPERTIES_ORIGIN ["COM"]
properties('MP2/aug-cc-pvtz', properties = ['dipole'])
--------------------------------------------------------------------------

    Molecular point group: c1
  Charge       = 0
  Multiplicity = 1
  Basis Set: AUG-CC-PVTZ
    Blend: AUG-CC-PVTZ
  Basis Set: (AUG-CC-PVTZ AUX)
    Blend: AUG-CC-PVTZ-JKFIT

    Orbital Energies [Eh]
    ---------------------

    Doubly Occupied:

       1A    -20.548112     2A    -20.532605     3A    -15.595812
       4A    -11.358541     5A    -11.297383     6A    -11.277278
       7A    -11.232341     8A    -11.230685     9A    -11.222310
      10A     -1.397372    11A     -1.346016    12A     -1.248082
      13A     -1.072317    14A     -1.024048    15A     -0.949889
      16A     -0.894923    17A     -0.822400    18A     -0.794993
      19A     -0.736593    20A     -0.679040    21A     -0.649852
      22A     -0.632580    23A     -0.628749    24A     -0.597182
      25A     -0.581678    26A     -0.568226    27A     -0.555127
      28A     -0.549060    29A     -0.538498    30A     -0.529343
      31A     -0.512570    32A     -0.502857    33A     -0.491620
      34A     -0.444462    35A     -0.434744    36A     -0.401444

  @DF-RHF Final Energy:  -439.13761978419774

   => Energetics <=

    Nuclear Repulsion Energy =            485.2806375679289204
    One-Electron Energy =               -1561.0790458143649175
    Two-Electron Energy =                 636.6607884622382016
    Total Energy =                       -439.1376197841976818
  Basis Set: (AUG-CC-PVTZ AUX)
    Blend: AUG-CC-PVTZ-RI
    Molecular point group: c1

    Geometry (in Angstrom), charge = 0, multiplicity = 1:

       Center              X                  Y                   Z               Mass
    ------------   -----------------  -----------------  -----------------  -----------------
         O           -2.875592000725     0.462427814106    -0.304276417760    15.994914619570
         O           -0.522026000725     1.538356814106     0.055705582240    15.994914619570
         N            0.656290999275    -0.373709185894    -0.335199417760    14.003074004430
         C            1.964784999275     0.227811814106    -0.094868417760    12.000000000000
         C           -1.801178000725    -0.449544185894    -0.369044417760    12.000000000000
         C            3.006819999275    -0.506170185894    -0.923324417760    12.000000000000
         C            2.293039999275     0.231995814106     1.394054582240    12.000000000000
         C           -0.493119000725     0.324500814106    -0.194081417760    12.000000000000
         C           -1.972721700725    -1.520644285894     0.701685582240    12.000000000000
         H            1.878858999275     1.262106814106    -0.439368417760     1.007825032230
         H            0.603565999275    -1.381287185894    -0.435746417760     1.007825032230
         H           -1.787954500725    -0.936537385894    -1.356853917760     1.007825032230
         H            3.990489999275    -0.049905185894    -0.787381417760     1.007825032230
         H            3.081304999275    -1.554136185894    -0.610864417760     1.007825032230
         H            2.752949999275    -0.475939185894    -1.985315417760     1.007825032230
         H            1.522551999275     0.777172814106     1.943867582240     1.007825032230
         H            3.257439999275     0.715580814106     1.577040582240     1.007825032230
         H            2.343935999275    -0.792324185894     1.776610582240     1.007825032230
         H           -2.959017000725    -1.966419185894     0.607917582240     1.007825032230
         H           -1.908980000725    -1.042370185894     1.695734582240     1.007825032230
         H           -1.219271000725    -2.302584185894     0.642889582240     1.007825032230
         H           -2.444172000725     1.332136814106    -0.151281417760     1.007825032230

  Basis Set: AUG-CC-PVTZ
    Blend: AUG-CC-PVTZ
  Basis Set: (AUG-CC-PVTZ AUX)
    Blend: AUG-CC-PVTZ-JKFIT
	 Reference Energy          =    -439.1376197841977387 [Eh]
	 Singles Energy            =      -0.0000000000000000 [Eh]
	 Same-Spin Energy          =      -0.4460333377124283 [Eh]
	 Opposite-Spin Energy      =      -1.4636462685521749 [Eh]
	 Correlation Energy        =      -1.9096796062646031 [Eh]
	 Total Energy              =    -441.0472993904623422 [Eh]

	 ================> DF-SCS-MP2 Energies <==================
	-----------------------------------------------------------
	 SCS Same-Spin Scale       =       0.3333333333333333 [-]
	 SCS Opposite-Spin Scale   =       1.2000000000000000 [-]
	 SCS Same-Spin Energy      =      -0.1486777792374761 [Eh]
	 SCS Opposite-Spin Energy  =      -1.7563755222626098 [Eh]
	 SCS Correlation Energy    =      -1.9050533015000859 [Eh]
	 SCS Total Energy          =    -441.0426730856977997 [Eh]
	-----------------------------------------------------------

  Dipole Moment: [D]
     X:     3.4611      Y:    -3.0625      Z:    -0.1468     Total:     4.6238

*** Psi4 exiting successfully. Buy a developer a beer!
