                               Psi4 1.3.2 release

  ==> Input File <==

--------------------------------------------------------------------------
#psi4
#
memory 32 gb

molecule  {
0 1
  O       -2.8756320     0.4615000    -0.3051040
  O       -0.5220660     1.5374290     0.0548780
  N        0.6562510    -0.3746370    -0.3360270
  C        1.9647450     0.2268840    -0.0956960
  C       -1.8012180    -0.4504720    -0.3698720
  C        3.0067800    -0.5070980    -0.9241520
  C        2.2930000     0.2310680     1.3932270
  C       -0.4931590     0.3235730    -0.1949090
  C       -1.9720592    -1.5026630     0.7195557
  H        1.8788190     1.2611790    -0.4401960
  H        0.6035260    -1.3822150    -0.4365740
  H       -1.7857906    -0.9202524    -1.3659510
  H        3.9904500    -0.0508330    -0.7882090
  H        3.0812650    -1.5550640    -0.6116920
  H        2.7529100    -0.4768670    -1.9861430
  H        1.5225120     0.7762450     1.9430400
  H        3.2574000     0.7146530     1.5762130
  H        2.3438960    -0.7932520     1.7757830
  H       -2.9590570    -1.9673470     0.6070900
  H       -1.9090200    -1.0432980     1.6949070
  H       -1.2193110    -2.3035120     0.6420620
  H       -2.4442120     1.3312090    -0.1521090
units angstrom
no_reorient  #important for SAPT in psi4, default
symmetry c1  #important for SAPT in psi4, default
}

set PROPERTIES_ORIGIN ["COM"]
properties('MP2/aug-cc-pvtz', properties = ['dipole'])
--------------------------------------------------------------------------

    Molecular point group: c1
  Charge       = 0
  Multiplicity = 1
  Basis Set: AUG-CC-PVTZ
    Blend: AUG-CC-PVTZ
  Basis Set: (AUG-CC-PVTZ AUX)
    Blend: AUG-CC-PVTZ-JKFIT

    Orbital Energies [Eh]
    ---------------------

    Doubly Occupied:

       1A    -20.547446     2A    -20.532333     3A    -15.595608
       4A    -11.358033     5A    -11.297295     6A    -11.277189
       7A    -11.232275     8A    -11.230941     9A    -11.222273
      10A     -1.397195    11A     -1.345818    12A     -1.247905
      13A     -1.072191    14A     -1.023683    15A     -0.949836
      16A     -0.895146    17A     -0.822442    18A     -0.794956
      19A     -0.736367    20A     -0.678896    21A     -0.649833
      22A     -0.632114    23A     -0.628762    24A     -0.597067
      25A     -0.581823    26A     -0.566797    27A     -0.555079
      28A     -0.547065    29A     -0.540206    30A     -0.530683
      31A     -0.512306    32A     -0.502755    33A     -0.491415
      34A     -0.445358    35A     -0.433987    36A     -0.401390

  @DF-RHF Final Energy:  -439.13766091757145

   => Energetics <=

    Nuclear Repulsion Energy =            485.3870002435029392
    One-Electron Energy =               -1561.3003917542077943
    Two-Electron Energy =                 636.7757305931335168
    Total Energy =                       -439.1376609175714520
  Basis Set: (AUG-CC-PVTZ AUX)
    Blend: AUG-CC-PVTZ-RI
    Molecular point group: c1

    Geometry (in Angstrom), charge = 0, multiplicity = 1:

       Center              X                  Y                   Z               Mass
    ------------   -----------------  -----------------  -----------------  -----------------
         O           -2.875673248490     0.460564605116    -0.305924373844    15.994914619570
         O           -0.522107248490     1.536493605116     0.054057626156    15.994914619570
         N            0.656209751510    -0.375572394884    -0.336847373844    14.003074004430
         C            1.964703751510     0.225948605116    -0.096516373844    12.000000000000
         C           -1.801259248490    -0.451407394884    -0.370692373844    12.000000000000
         C            3.006738751510    -0.508033394884    -0.924972373844    12.000000000000
         C            2.292958751510     0.230132605116     1.392406626156    12.000000000000
         C           -0.493200248490     0.322637605116    -0.195729373844    12.000000000000
         C           -1.972100448490    -1.503598394884     0.718735326156    12.000000000000
         H            1.878777751510     1.260243605116    -0.441016373844     1.007825032230
         H            0.603484751510    -1.383150394884    -0.437394373844     1.007825032230
         H           -1.785831848490    -0.921187794884    -1.366771373844     1.007825032230
         H            3.990408751510    -0.051768394884    -0.789029373844     1.007825032230
         H            3.081223751510    -1.555999394884    -0.612512373844     1.007825032230
         H            2.752868751510    -0.477802394884    -1.986963373844     1.007825032230
         H            1.522470751510     0.775309605116     1.942219626156     1.007825032230
         H            3.257358751510     0.713717605116     1.575392626156     1.007825032230
         H            2.343854751510    -0.794187394884     1.774962626156     1.007825032230
         H           -2.959098248490    -1.968282394884     0.606269626156     1.007825032230
         H           -1.909061248490    -1.044233394884     1.694086626156     1.007825032230
         H           -1.219352248490    -2.304447394884     0.641241626156     1.007825032230
         H           -2.444253248490     1.330273605116    -0.152929373844     1.007825032230

  Basis Set: AUG-CC-PVTZ
    Blend: AUG-CC-PVTZ
  Basis Set: (AUG-CC-PVTZ AUX)
    Blend: AUG-CC-PVTZ-JKFIT
	 Reference Energy          =    -439.1376609175714520 [Eh]
	 Singles Energy            =      -0.0000000000000000 [Eh]
	 Same-Spin Energy          =      -0.4460344726307823 [Eh]
	 Opposite-Spin Energy      =      -1.4636426932347042 [Eh]
	 Correlation Energy        =      -1.9096771658654865 [Eh]
	 Total Energy              =    -441.0473380834369550 [Eh]

	 ================> DF-SCS-MP2 Energies <==================
	-----------------------------------------------------------
	 SCS Same-Spin Scale       =       0.3333333333333333 [-]
	 SCS Opposite-Spin Scale   =       1.2000000000000000 [-]
	 SCS Same-Spin Energy      =      -0.1486781575435941 [Eh]
	 SCS Opposite-Spin Energy  =      -1.7563712318816449 [Eh]
	 SCS Correlation Energy    =      -1.9050493894252389 [Eh]
	 SCS Total Energy          =    -441.0427103069966961 [Eh]
	-----------------------------------------------------------

  Dipole Moment: [D]
     X:     3.4569      Y:    -3.0571      Z:    -0.1402     Total:     4.6169

*** Psi4 exiting successfully. Buy a developer a beer!
