                               Psi4 1.3.2 release

  ==> Input File <==

--------------------------------------------------------------------------
#psi4
#
memory 32 gb

molecule  {
0 1
  O       -2.8850047     0.4487841    -0.2862172
  O       -0.5220660     1.5374290     0.0548780
  N        0.6562510    -0.3746370    -0.3360270
  C        1.9647450     0.2268840    -0.0956960
  C       -1.8012180    -0.4504720    -0.3698720
  C        3.0067800    -0.5070980    -0.9241520
  C        2.2930000     0.2310680     1.3932270
  C       -0.4931590     0.3235730    -0.1949090
  C       -1.9949218    -1.5002912     0.7180177
  H        1.8788190     1.2611790    -0.4401960
  H        0.6035260    -1.3822150    -0.4365740
  H       -1.7868920    -0.9288770    -1.3618540
  H        3.9904500    -0.0508330    -0.7882090
  H        3.0812650    -1.5550640    -0.6116920
  H        2.7529100    -0.4768670    -1.9861430
  H        1.5225120     0.7762450     1.9430400
  H        3.2574000     0.7146530     1.5762130
  H        2.3438960    -0.7932520     1.7757830
  H       -2.9590570    -1.9673470     0.6070900
  H       -1.9090200    -1.0432980     1.6949070
  H       -1.2193110    -2.3035120     0.6420620
  H       -2.4442120     1.3312090    -0.1521090
units angstrom
no_reorient  #important for SAPT in psi4, default
symmetry c1  #important for SAPT in psi4, default
}

set PROPERTIES_ORIGIN ["COM"]
properties('MP2/aug-cc-pvtz', properties = ['dipole'])
--------------------------------------------------------------------------

    Molecular point group: c1
  Charge       = 0
  Multiplicity = 1
  Basis Set: AUG-CC-PVTZ
    Blend: AUG-CC-PVTZ
  Basis Set: (AUG-CC-PVTZ AUX)
    Blend: AUG-CC-PVTZ-JKFIT

    Orbital Energies [Eh]
    ---------------------

    Doubly Occupied:

       1A    -20.548303     2A    -20.533221     3A    -15.596057
       4A    -11.359016     5A    -11.296907     6A    -11.277445
       7A    -11.232429     8A    -11.230166     9A    -11.222425
      10A     -1.397107    11A     -1.344611    12A     -1.248296
      13A     -1.071974    14A     -1.022663    15A     -0.949996
      16A     -0.895446    17A     -0.821959    18A     -0.795104
      19A     -0.735238    20A     -0.678645    21A     -0.649851
      22A     -0.632342    23A     -0.628822    24A     -0.596826
      25A     -0.581168    26A     -0.567065    27A     -0.555155
      28A     -0.549337    29A     -0.537948    30A     -0.528456
      31A     -0.512649    32A     -0.503098    33A     -0.491786
      34A     -0.444058    35A     -0.435433    36A     -0.401732

  @DF-RHF Final Energy:  -439.13586049737813

   => Energetics <=

    Nuclear Repulsion Energy =            485.1756740241323769
    One-Electron Energy =               -1560.8775965583929519
    Two-Electron Energy =                 636.5660620368823857
    Total Energy =                       -439.1358604973781894
  Basis Set: (AUG-CC-PVTZ AUX)
    Blend: AUG-CC-PVTZ-RI
    Molecular point group: c1

    Geometry (in Angstrom), charge = 0, multiplicity = 1:

       Center              X                  Y                   Z               Mass
    ------------   -----------------  -----------------  -----------------  -----------------
         O           -2.881801141597     0.449249374422    -0.289232673792    15.994914619570
         O           -0.518862441597     1.537894274422     0.051862526208    15.994914619570
         N            0.659454558403    -0.374171725578    -0.339042473792    14.003074004430
         C            1.967948558403     0.227349274422    -0.098711473792    12.000000000000
         C           -1.798014441597    -0.450006725578    -0.372887473792    12.000000000000
         C            3.009983558403    -0.506632725578    -0.927167473792    12.000000000000
         C            2.296203558403     0.231533274422     1.390211526208    12.000000000000
         C           -0.489955441597     0.324038274422    -0.197924473792    12.000000000000
         C           -1.991718241597    -1.499825925578     0.715002226208    12.000000000000
         H            1.882022558403     1.261644274422    -0.443211473792     1.007825032230
         H            0.606729558403    -1.381749725578    -0.439589473792     1.007825032230
         H           -1.783688441597    -0.928411725578    -1.364869473792     1.007825032230
         H            3.993653558403    -0.050367725578    -0.791224473792     1.007825032230
         H            3.084468558403    -1.554598725578    -0.614707473792     1.007825032230
         H            2.756113558403    -0.476401725578    -1.989158473792     1.007825032230
         H            1.525715558403     0.776710274422     1.940024526208     1.007825032230
         H            3.260603558403     0.715118274422     1.573197526208     1.007825032230
         H            2.347099558403    -0.792786725578     1.772767526208     1.007825032230
         H           -2.955853441597    -1.966881725578     0.604074526208     1.007825032230
         H           -1.905816441597    -1.042832725578     1.691891526208     1.007825032230
         H           -1.216107441597    -2.303046725578     0.639046526208     1.007825032230
         H           -2.441008441597     1.331674274422    -0.155124473792     1.007825032230

  Basis Set: AUG-CC-PVTZ
    Blend: AUG-CC-PVTZ
  Basis Set: (AUG-CC-PVTZ AUX)
    Blend: AUG-CC-PVTZ-JKFIT
	 Reference Energy          =    -439.1358604973781325 [Eh]
	 Singles Energy            =      -0.0000000000000000 [Eh]
	 Same-Spin Energy          =      -0.4462421759143509 [Eh]
	 Opposite-Spin Energy      =      -1.4641362934096294 [Eh]
	 Correlation Energy        =      -1.9103784693239803 [Eh]
	 Total Energy              =    -441.0462389667021057 [Eh]

	 ================> DF-SCS-MP2 Energies <==================
	-----------------------------------------------------------
	 SCS Same-Spin Scale       =       0.3333333333333333 [-]
	 SCS Opposite-Spin Scale   =       1.2000000000000000 [-]
	 SCS Same-Spin Energy      =      -0.1487473919714503 [Eh]
	 SCS Opposite-Spin Energy  =      -1.7569635520915552 [Eh]
	 SCS Correlation Energy    =      -1.9057109440630056 [Eh]
	 SCS Total Energy          =    -441.0415714414411354 [Eh]
	-----------------------------------------------------------

  Dipole Moment: [D]
     X:     3.4791      Y:    -3.0158      Z:    -0.1818     Total:     4.6079

*** Psi4 exiting successfully. Buy a developer a beer!
