                               Psi4 1.3.2 release

  ==> Input File <==

--------------------------------------------------------------------------
#psi4
#
memory 32 gb

molecule  {
0 1
  O       -2.8817294     0.4556261    -0.3282248
  O       -0.5220660     1.5374290     0.0548780
  N        0.6562510    -0.3746370    -0.3360270
  C        1.9647450     0.2268840    -0.0956960
  C       -1.8012180    -0.4504720    -0.3698720
  C        3.0067800    -0.5070980    -0.9241520
  C        2.2930000     0.2310680     1.3932270
  C       -0.4931590     0.3235730    -0.1949090
  C       -1.9724170    -1.5121580     0.7102480
  H        1.8788190     1.2611790    -0.4401960
  H        0.6035260    -1.3822150    -0.4365740
  H       -1.8023260    -0.9185698    -1.3668615
  H        3.9904500    -0.0508330    -0.7882090
  H        3.0812650    -1.5550640    -0.6116920
  H        2.7529100    -0.4768670    -1.9861430
  H        1.5225120     0.7762450     1.9430400
  H        3.2574000     0.7146530     1.5762130
  H        2.3438960    -0.7932520     1.7757830
  H       -2.9590570    -1.9673470     0.6070900
  H       -1.9090200    -1.0432980     1.6949070
  H       -1.2193110    -2.3035120     0.6420620
  H       -2.4442120     1.3312090    -0.1521090
units angstrom
no_reorient  #important for SAPT in psi4, default
symmetry c1  #important for SAPT in psi4, default
}

set PROPERTIES_ORIGIN ["COM"]
properties('MP2/aug-cc-pvtz', properties = ['dipole'])
--------------------------------------------------------------------------

    Molecular point group: c1
  Charge       = 0
  Multiplicity = 1
  Basis Set: AUG-CC-PVTZ
    Blend: AUG-CC-PVTZ
  Basis Set: (AUG-CC-PVTZ AUX)
    Blend: AUG-CC-PVTZ-JKFIT

    Orbital Energies [Eh]
    ---------------------

    Doubly Occupied:

       1A    -20.548254     2A    -20.533014     3A    -15.595988
       4A    -11.358751     5A    -11.296791     6A    -11.277401
       7A    -11.232412     8A    -11.231006     9A    -11.222451
      10A     -1.396925    11A     -1.344392    12A     -1.248233
      13A     -1.072155    14A     -1.023328    15A     -0.949997
      16A     -0.894900    17A     -0.822282    18A     -0.795074
      19A     -0.736116    20A     -0.677680    21A     -0.648318
      22A     -0.632264    23A     -0.628916    24A     -0.597306
      25A     -0.581667    26A     -0.567456    27A     -0.555220
      28A     -0.548223    29A     -0.539117    30A     -0.530224
      31A     -0.512435    32A     -0.502987    33A     -0.491758
      34A     -0.443914    35A     -0.434881    36A     -0.401695

  @DF-RHF Final Energy:  -439.13684755395275

   => Energetics <=

    Nuclear Repulsion Energy =            485.1130226550521343
    One-Electron Energy =               -1560.7526844743888432
    Two-Electron Energy =                 636.5028142653839041
    Total Energy =                       -439.1368475539527481
  Basis Set: (AUG-CC-PVTZ AUX)
    Blend: AUG-CC-PVTZ-RI
    Molecular point group: c1

    Geometry (in Angstrom), charge = 0, multiplicity = 1:

       Center              X                  Y                   Z               Mass
    ------------   -----------------  -----------------  -----------------  -----------------
         O           -2.880866829748     0.456263590021    -0.325365196628    15.994914619570
         O           -0.521203429748     1.538066490021     0.057737603372    15.994914619570
         N            0.657113570252    -0.373999509979    -0.333167396628    14.003074004430
         C            1.965607570252     0.227521490021    -0.092836396628    12.000000000000
         C           -1.800355429748    -0.449834509979    -0.367012396628    12.000000000000
         C            3.007642570252    -0.506460509979    -0.921292396628    12.000000000000
         C            2.293862570252     0.231705490021     1.396086603372    12.000000000000
         C           -0.492296429748     0.324210490021    -0.192049396628    12.000000000000
         C           -1.971554429748    -1.511520509979     0.713107603372    12.000000000000
         H            1.879681570252     1.261816490021    -0.437336396628     1.007825032230
         H            0.604388570252    -1.381577509979    -0.433714396628     1.007825032230
         H           -1.801463429748    -0.917932309979    -1.364001896628     1.007825032230
         H            3.991312570252    -0.050195509979    -0.785349396628     1.007825032230
         H            3.082127570252    -1.554426509979    -0.608832396628     1.007825032230
         H            2.753772570252    -0.476229509979    -1.983283396628     1.007825032230
         H            1.523374570252     0.776882490021     1.945899603372     1.007825032230
         H            3.258262570252     0.715290490021     1.579072603372     1.007825032230
         H            2.344758570252    -0.792614509979     1.778642603372     1.007825032230
         H           -2.958194429748    -1.966709509979     0.609949603372     1.007825032230
         H           -1.908157429748    -1.042660509979     1.697766603372     1.007825032230
         H           -1.218448429748    -2.302874509979     0.644921603372     1.007825032230
         H           -2.443349429748     1.331846490021    -0.149249396628     1.007825032230

  Basis Set: AUG-CC-PVTZ
    Blend: AUG-CC-PVTZ
  Basis Set: (AUG-CC-PVTZ AUX)
    Blend: AUG-CC-PVTZ-JKFIT
	 Reference Energy          =    -439.1368475539527481 [Eh]
	 Singles Energy            =      -0.0000000000000000 [Eh]
	 Same-Spin Energy          =      -0.4461998595911826 [Eh]
	 Opposite-Spin Energy      =      -1.4640466905417480 [Eh]
	 Correlation Energy        =      -1.9102465501329307 [Eh]
	 Total Energy              =    -441.0470941040856587 [Eh]

	 ================> DF-SCS-MP2 Energies <==================
	-----------------------------------------------------------
	 SCS Same-Spin Scale       =       0.3333333333333333 [-]
	 SCS Opposite-Spin Scale   =       1.2000000000000000 [-]
	 SCS Same-Spin Energy      =      -0.1487332865303942 [Eh]
	 SCS Opposite-Spin Energy  =      -1.7568560286500976 [Eh]
	 SCS Correlation Energy    =      -1.9055893151804919 [Eh]
	 SCS Total Energy          =    -441.0424368691332120 [Eh]
	-----------------------------------------------------------

  Dipole Moment: [D]
     X:     3.4824      Y:    -3.0546      Z:    -0.0973     Total:     4.6333

*** Psi4 exiting successfully. Buy a developer a beer!
