                               Psi4 1.3.2 release

  ==> Input File <==

--------------------------------------------------------------------------
#psi4
#
memory 32 gb

molecule  {
0 1
  O       -2.8787217     0.4585977    -0.3166623
  O       -0.5220660     1.5374290     0.0548780
  N        0.6562510    -0.3746370    -0.3360270
  C        1.9647450     0.2268840    -0.0956960
  C       -1.8012180    -0.4504720    -0.3698720
  C        3.0067800    -0.5070980    -0.9241520
  C        2.2930000     0.2310680     1.3932270
  C       -0.4931590     0.3235730    -0.1949090
  C       -1.9724170    -1.5121580     0.7102480
  H        1.8788190     1.2611790    -0.4401960
  H        0.6035260    -1.3822150    -0.4365740
  H       -1.7946088    -0.9237414    -1.3643956
  H        3.9904500    -0.0508330    -0.7882090
  H        3.0812650    -1.5550640    -0.6116920
  H        2.7529100    -0.4768670    -1.9861430
  H        1.5225120     0.7762450     1.9430400
  H        3.2574000     0.7146530     1.5762130
  H        2.3438960    -0.7932520     1.7757830
  H       -2.9590570    -1.9673470     0.6070900
  H       -1.9090200    -1.0432980     1.6949070
  H       -1.2193110    -2.3035120     0.6420620
  H       -2.4442120     1.3312090    -0.1521090
units angstrom
no_reorient  #important for SAPT in psi4, default
symmetry c1  #important for SAPT in psi4, default
}

set PROPERTIES_ORIGIN ["COM"]
properties('MP2/aug-cc-pvtz', properties = ['dipole'])
--------------------------------------------------------------------------

    Molecular point group: c1
  Charge       = 0
  Multiplicity = 1
  Basis Set: AUG-CC-PVTZ
    Blend: AUG-CC-PVTZ
  Basis Set: (AUG-CC-PVTZ AUX)
    Blend: AUG-CC-PVTZ-JKFIT

    Orbital Energies [Eh]
    ---------------------

    Doubly Occupied:

       1A    -20.548007     2A    -20.532740     3A    -15.595849
       4A    -11.358519     5A    -11.297058     6A    -11.277318
       7A    -11.232360     8A    -11.230893     9A    -11.222372
      10A     -1.397094    11A     -1.345156    12A     -1.248113
      13A     -1.072202    14A     -1.023588    15A     -0.949930
      16A     -0.894957    17A     -0.822349    18A     -0.795023
      19A     -0.736286    20A     -0.678297    21A     -0.649088
      22A     -0.632317    23A     -0.628838    24A     -0.597189
      25A     -0.581639    26A     -0.567373    27A     -0.555165
      28A     -0.548170    29A     -0.539289    30A     -0.530242
      31A     -0.512460    32A     -0.502897    33A     -0.491640
      34A     -0.444426    35A     -0.434636    36A     -0.401558

  @DF-RHF Final Energy:  -439.13743203529822

   => Energetics <=

    Nuclear Repulsion Energy =            485.2226572395288144
    One-Electron Energy =               -1560.9700932600587748
    Two-Electron Energy =                 636.6100039852317423
    Total Energy =                       -439.1374320352981613
  Basis Set: (AUG-CC-PVTZ AUX)
    Blend: AUG-CC-PVTZ-RI
    Molecular point group: c1

    Geometry (in Angstrom), charge = 0, multiplicity = 1:

       Center              X                  Y                   Z               Mass
    ------------   -----------------  -----------------  -----------------  -----------------
         O           -2.878285428618     0.458912381827    -0.315232399721    15.994914619570
         O           -0.521629728618     1.537743681827     0.056307900279    15.994914619570
         N            0.656687271382    -0.374322318173    -0.334597099721    14.003074004430
         C            1.965181271382     0.227198681827    -0.094266099721    12.000000000000
         C           -1.800781728618    -0.450157318173    -0.368442099721    12.000000000000
         C            3.007216271382    -0.506783318173    -0.922722099721    12.000000000000
         C            2.293436271382     0.231382681827     1.394656900279    12.000000000000
         C           -0.492722728618     0.323887681827    -0.193479099721    12.000000000000
         C           -1.971980728618    -1.511843318173     0.711677900279    12.000000000000
         H            1.879255271382     1.261493681827    -0.438766099721     1.007825032230
         H            0.603962271382    -1.381900318173    -0.435144099721     1.007825032230
         H           -1.794172528618    -0.923426718173    -1.362965699721     1.007825032230
         H            3.990886271382    -0.050518318173    -0.786779099721     1.007825032230
         H            3.081701271382    -1.554749318173    -0.610262099721     1.007825032230
         H            2.753346271382    -0.476552318173    -1.984713099721     1.007825032230
         H            1.522948271382     0.776559681827     1.944469900279     1.007825032230
         H            3.257836271382     0.714967681827     1.577642900279     1.007825032230
         H            2.344332271382    -0.792937318173     1.777212900279     1.007825032230
         H           -2.958620728618    -1.967032318173     0.608519900279     1.007825032230
         H           -1.908583728618    -1.042983318173     1.696336900279     1.007825032230
         H           -1.218874728618    -2.303197318173     0.643491900279     1.007825032230
         H           -2.443775728618     1.331523681827    -0.150679099721     1.007825032230

  Basis Set: AUG-CC-PVTZ
    Blend: AUG-CC-PVTZ
  Basis Set: (AUG-CC-PVTZ AUX)
    Blend: AUG-CC-PVTZ-JKFIT
	 Reference Energy          =    -439.1374320352982181 [Eh]
	 Singles Energy            =      -0.0000000000000000 [Eh]
	 Same-Spin Energy          =      -0.4461113764424404 [Eh]
	 Opposite-Spin Energy      =      -1.4638335881680418 [Eh]
	 Correlation Energy        =      -1.9099449646104820 [Eh]
	 Total Energy              =    -441.0473769999086926 [Eh]

	 ================> DF-SCS-MP2 Energies <==================
	-----------------------------------------------------------
	 SCS Same-Spin Scale       =       0.3333333333333333 [-]
	 SCS Opposite-Spin Scale   =       1.2000000000000000 [-]
	 SCS Same-Spin Energy      =      -0.1487037921474801 [Eh]
	 SCS Opposite-Spin Energy  =      -1.7566003058016502 [Eh]
	 SCS Correlation Energy    =      -1.9053040979491302 [Eh]
	 SCS Total Energy          =    -441.0427361332473311 [Eh]
	-----------------------------------------------------------

  Dipole Moment: [D]
     X:     3.4709      Y:    -3.0574      Z:    -0.1202     Total:     4.6270

*** Psi4 exiting successfully. Buy a developer a beer!
