                               Psi4 1.3.2 release

  ==> Input File <==

--------------------------------------------------------------------------
#psi4
#
memory 32 gb

molecule  {
0 1
  O       -2.8455622     0.4979658    -0.3618596
  O       -0.5220660     1.5374290     0.0548780
  N        0.6562510    -0.3746370    -0.3360270
  C        1.9647450     0.2268840    -0.0956960
  C       -1.8012180    -0.4504720    -0.3698720
  C        3.0067800    -0.5070980    -0.9241520
  C        2.2930000     0.2310680     1.3932270
  C       -0.4931590     0.3235730    -0.1949090
  C       -1.9046173    -1.5458039     0.6849749
  H        1.8788190     1.2611790    -0.4401960
  H        0.6035260    -1.3822150    -0.4365740
  H       -1.7868920    -0.9288770    -1.3618540
  H        3.9904500    -0.0508330    -0.7882090
  H        3.0812650    -1.5550640    -0.6116920
  H        2.7529100    -0.4768670    -1.9861430
  H        1.5225120     0.7762450     1.9430400
  H        3.2574000     0.7146530     1.5762130
  H        2.3438960    -0.7932520     1.7757830
  H       -2.9590570    -1.9673470     0.6070900
  H       -1.9090200    -1.0432980     1.6949070
  H       -1.2193110    -2.3035120     0.6420620
  H       -2.4442120     1.3312090    -0.1521090
units angstrom
no_reorient  #important for SAPT in psi4, default
symmetry c1  #important for SAPT in psi4, default
}

set PROPERTIES_ORIGIN ["COM"]
properties('MP2/aug-cc-pvtz', properties = ['dipole'])
--------------------------------------------------------------------------

    Molecular point group: c1
  Charge       = 0
  Multiplicity = 1
  Basis Set: AUG-CC-PVTZ
    Blend: AUG-CC-PVTZ
  Basis Set: (AUG-CC-PVTZ AUX)
    Blend: AUG-CC-PVTZ-JKFIT

    Orbital Energies [Eh]
    ---------------------

    Doubly Occupied:

       1A    -20.546987     2A    -20.530365     3A    -15.594669
       4A    -11.356184     5A    -11.299377     6A    -11.276596
       7A    -11.234244     8A    -11.231922     9A    -11.221864
      10A     -1.398566    11A     -1.350068    12A     -1.247128
      13A     -1.073367    14A     -1.027526    15A     -0.949439
      16A     -0.895191    17A     -0.824553    18A     -0.794895
      19A     -0.740310    20A     -0.680107    21A     -0.651164
      22A     -0.634165    23A     -0.628828    24A     -0.599400
      25A     -0.587413    26A     -0.572447    27A     -0.554636
      28A     -0.548933    29A     -0.533355    30A     -0.530034
      31A     -0.509533    32A     -0.501876    33A     -0.490532
      34A     -0.446724    35A     -0.430574    36A     -0.400474

  @DF-RHF Final Energy:  -439.13030486570165

   => Energetics <=

    Nuclear Repulsion Energy =            485.8774146732669692
    One-Electron Energy =               -1562.2285447932310944
    Two-Electron Energy =                 637.2208252542625360
    Total Energy =                       -439.1303048657016461
  Basis Set: (AUG-CC-PVTZ AUX)
    Blend: AUG-CC-PVTZ-RI
    Molecular point group: c1

    Geometry (in Angstrom), charge = 0, multiplicity = 1:

       Center              X                  Y                   Z               Mass
    ------------   -----------------  -----------------  -----------------  -----------------
         O           -2.855437235567     0.496596485966    -0.352621274030    15.994914619570
         O           -0.531941035567     1.536059685966     0.064116325970    15.994914619570
         N            0.646375964433    -0.376006314034    -0.326788674030    14.003074004430
         C            1.954869964433     0.225514685966    -0.086457674030    12.000000000000
         C           -1.811093035567    -0.451841314034    -0.360633674030    12.000000000000
         C            2.996904964433    -0.508467314034    -0.914913674030    12.000000000000
         C            2.283124964433     0.229698685966     1.402465325970    12.000000000000
         C           -0.503034035567     0.322203685966    -0.185670674030    12.000000000000
         C           -1.914492335567    -1.547173214034     0.694213225970    12.000000000000
         H            1.868943964433     1.259809685966    -0.430957674030     1.007825032230
         H            0.593650964433    -1.383584314034    -0.427335674030     1.007825032230
         H           -1.796767035567    -0.930246314034    -1.352615674030     1.007825032230
         H            3.980574964433    -0.052202314034    -0.778970674030     1.007825032230
         H            3.071389964433    -1.556433314034    -0.602453674030     1.007825032230
         H            2.743034964433    -0.478236314034    -1.976904674030     1.007825032230
         H            1.512636964433     0.774875685966     1.952278325970     1.007825032230
         H            3.247524964433     0.713283685966     1.585451325970     1.007825032230
         H            2.334020964433    -0.794621314034     1.785021325970     1.007825032230
         H           -2.968932035567    -1.968716314034     0.616328325970     1.007825032230
         H           -1.918895035567    -1.044667314034     1.704145325970     1.007825032230
         H           -1.229186035567    -2.304881314034     0.651300325970     1.007825032230
         H           -2.454087035567     1.329839685966    -0.142870674030     1.007825032230

  Basis Set: AUG-CC-PVTZ
    Blend: AUG-CC-PVTZ
  Basis Set: (AUG-CC-PVTZ AUX)
    Blend: AUG-CC-PVTZ-JKFIT
	 Reference Energy          =    -439.1303048657016461 [Eh]
	 Singles Energy            =      -0.0000000000000000 [Eh]
	 Same-Spin Energy          =      -0.4457055648020520 [Eh]
	 Opposite-Spin Energy      =      -1.4629030760502775 [Eh]
	 Correlation Energy        =      -1.9086086408523295 [Eh]
	 Total Energy              =    -441.0389135065539676 [Eh]

	 ================> DF-SCS-MP2 Energies <==================
	-----------------------------------------------------------
	 SCS Same-Spin Scale       =       0.3333333333333333 [-]
	 SCS Opposite-Spin Scale   =       1.2000000000000000 [-]
	 SCS Same-Spin Energy      =      -0.1485685216006840 [Eh]
	 SCS Opposite-Spin Energy  =      -1.7554836912603329 [Eh]
	 SCS Correlation Energy    =      -1.9040522128610169 [Eh]
	 SCS Total Energy          =    -441.0343570785626639 [Eh]
	-----------------------------------------------------------

  Dipole Moment: [D]
     X:     3.3788      Y:    -3.1626      Z:    -0.0320     Total:     4.6281

*** Psi4 exiting successfully. Buy a developer a beer!
