                               Psi4 1.4a3.dev225

  ==> Input File <==

--------------------------------------------------------------------------
#psi4
#
memory 32 gb

molecule  {
0 1
  O        2.9110620    -0.5703060    -0.4523520
  O        0.5539390    -1.5540470     0.1662040
  N       -0.5943370     0.3369340    -0.3930300
  C       -1.9154150    -0.2304160    -0.1256420
  C        1.8655780     0.3788930    -0.3941620
  C       -2.9513150     0.5221750    -0.9483650
  C       -2.2232580    -0.2086170     1.3682650
  C        0.5443190    -0.3662470    -0.1910430
  C        2.1035320     1.3624180     0.7499890
  H       -1.8664900    -1.2716350    -0.4595930
  H       -0.5281980     1.3181660    -0.6377390
  H        1.8310940     0.9301164    -1.3679698
  H       -3.9433690     0.0896600    -0.7945050
  H       -2.9965010     1.5743390    -0.6446630
  H       -2.7149650     0.4749500    -2.0147890
  H       -1.4563020    -0.7629570     1.9136170
  H       -3.1950150    -0.6709470     1.5682930
  H       -2.2473660     0.8219210     1.7368640
  H        3.0888910     1.8183940     0.6312910
  H        2.0827360     0.8223960     1.7004970
  H        1.3487660     2.1553220     0.7756360
  H        2.4958040    -1.4028240    -0.1381920
units angstrom
no_reorient  #important for SAPT in psi4, default
symmetry c1  #important for SAPT in psi4, default
}

set PROPERTIES_ORIGIN ["COM"]
properties('MP2/aug-cc-pvtz', properties = ['dipole'])
--------------------------------------------------------------------------

    Molecular point group: c1
  Charge       = 0
  Multiplicity = 1
  Basis Set: AUG-CC-PVTZ
    Blend: AUG-CC-PVTZ
  Basis Set: (AUG-CC-PVTZ AUX)
    Blend: AUG-CC-PVTZ-JKFIT

    Orbital Energies [Eh]
    ---------------------

    Doubly Occupied:

       1A    -20.549072     2A    -20.531832     3A    -15.596148
       4A    -11.358264     5A    -11.300108     6A    -11.278106
       7A    -11.233488     8A    -11.230075     9A    -11.221078
      10A     -1.395934    11A     -1.345938    12A     -1.246749
      13A     -1.071140    14A     -1.023047    15A     -0.949584
      16A     -0.893326    17A     -0.820675    18A     -0.794292
      19A     -0.736836    20A     -0.677190    21A     -0.641219
      22A     -0.635248    23A     -0.629018    24A     -0.595241
      25A     -0.582449    26A     -0.571102    27A     -0.555152
      28A     -0.548283    29A     -0.536748    30A     -0.528251
      31A     -0.511754    32A     -0.502138    33A     -0.491400
      34A     -0.445729    35A     -0.431891    36A     -0.401386

  @DF-RHF Final Energy:  -439.13717155879522

   => Energetics <=

    Nuclear Repulsion Energy =            484.9659018037862097
    One-Electron Energy =               -1560.4863707889116995
    Two-Electron Energy =                 636.3832974263302731
    Total Energy =                       -439.1371715587952167
  Basis Set: (AUG-CC-PVTZ AUX)
    Blend: AUG-CC-PVTZ-RI
    Molecular point group: c1

    Geometry (in Angstrom), charge = 0, multiplicity = 1:

       Center              X                  Y                   Z               Mass
    ------------   -----------------  -----------------  -----------------  -----------------
         O            2.849908943479    -0.525916566687    -0.434917748056    15.994914619570
         O            0.492785943479    -1.509657566687     0.183638251944    15.994914619570
         N           -0.655490056521     0.381323433313    -0.375595748056    14.003074004430
         C           -1.976568056521    -0.186026566687    -0.108207748056    12.000000000000
         C            1.804424943479     0.423282433313    -0.376727748056    12.000000000000
         C           -3.012468056521     0.566564433313    -0.930930748056    12.000000000000
         C           -2.284411056521    -0.164227566687     1.385699251944    12.000000000000
         C            0.483165943479    -0.321857566687    -0.173608748056    12.000000000000
         C            2.042378943479     1.406807433313     0.767423251944    12.000000000000
         H           -1.927643056521    -1.227245566687    -0.442158748056     1.007825032230
         H           -0.589351056521     1.362555433313    -0.620304748056     1.007825032230
         H            1.769940943479     0.974505833313    -1.350535548056     1.007825032230
         H           -4.004522056521     0.134049433313    -0.777070748056     1.007825032230
         H           -3.057654056521     1.618728433313    -0.627228748056     1.007825032230
         H           -2.776118056521     0.519339433313    -1.997354748056     1.007825032230
         H           -1.517455056521    -0.718567566687     1.931051251944     1.007825032230
         H           -3.256168056521    -0.626557566687     1.585727251944     1.007825032230
         H           -2.308519056521     0.866310433313     1.754298251944     1.007825032230
         H            3.027737943479     1.862783433313     0.648725251944     1.007825032230
         H            2.021582943479     0.866785433313     1.717931251944     1.007825032230
         H            1.287612943479     2.199711433313     0.793070251944     1.007825032230
         H            2.434650943479    -1.358434566687    -0.120757748056     1.007825032230

  Basis Set: AUG-CC-PVTZ
    Blend: AUG-CC-PVTZ
  Basis Set: (AUG-CC-PVTZ AUX)
    Blend: AUG-CC-PVTZ-JKFIT
	 Reference Energy          =    -439.1371715587952167 [Eh]
	 Singles Energy            =      -0.0000000000000000 [Eh]
	 Same-Spin Energy          =      -0.4459708240840668 [Eh]
	 Opposite-Spin Energy      =      -1.4639447429124988 [Eh]
	 Correlation Energy        =      -1.9099155669965655 [Eh]
	 Total Energy              =    -441.0470871257917906 [Eh]

	 ================> DF-SCS-MP2 Energies <==================
	-----------------------------------------------------------
	 SCS Same-Spin Scale       =       0.3333333333333333 [-]
	 SCS Opposite-Spin Scale   =       1.2000000000000000 [-]
	 SCS Same-Spin Energy      =      -0.1486569413613556 [Eh]
	 SCS Opposite-Spin Energy  =      -1.7567336914949985 [Eh]
	 SCS Correlation Energy    =      -1.9053906328563541 [Eh]
	 SCS Total Energy          =    -441.0425621916515979 [Eh]
	-----------------------------------------------------------

  Dipole Moment: [D]
     X:    -3.3807      Y:     3.1175      Z:    -0.1736     Total:     4.6020

*** Psi4 exiting successfully. Buy a developer a beer!
