                               Psi4 1.3.2 release

  ==> Input File <==

--------------------------------------------------------------------------
#psi4
#
memory 32 gb

molecule  {
0 1
  O       -2.9218454     0.4047841    -0.3152414
  O       -0.5220660     1.5374290     0.0548780
  N        0.6562510    -0.3746370    -0.3360270
  C        1.9647450     0.2268840    -0.0956960
  C       -1.8012180    -0.4504720    -0.3698720
  C        3.0067800    -0.5070980    -0.9241520
  C        2.2930000     0.2310680     1.3932270
  C       -0.4536407     0.2542737    -0.2021075
  C       -1.9724170    -1.5121580     0.7102480
  H        1.8788190     1.2611790    -0.4401960
  H        0.6035260    -1.3822150    -0.4365740
  H       -1.7868920    -0.9288770    -1.3618540
  H        3.9904500    -0.0508330    -0.7882090
  H        3.0812650    -1.5550640    -0.6116920
  H        2.7529100    -0.4768670    -1.9861430
  H        1.5225120     0.7762450     1.9430400
  H        3.2574000     0.7146530     1.5762130
  H        2.3438960    -0.7932520     1.7757830
  H       -2.9590570    -1.9673470     0.6070900
  H       -1.9090200    -1.0432980     1.6949070
  H       -1.2193110    -2.3035120     0.6420620
  H       -2.4442120     1.3312090    -0.1521090
units angstrom
no_reorient  #important for SAPT in psi4, default
symmetry c1  #important for SAPT in psi4, default
}

set PROPERTIES_ORIGIN ["COM"]
properties('MP2/aug-cc-pvtz', properties = ['dipole'])
--------------------------------------------------------------------------

    Molecular point group: c1
  Charge       = 0
  Multiplicity = 1
  Basis Set: AUG-CC-PVTZ
    Blend: AUG-CC-PVTZ
  Basis Set: (AUG-CC-PVTZ AUX)
    Blend: AUG-CC-PVTZ-JKFIT

    Orbital Energies [Eh]
    ---------------------

    Doubly Occupied:

       1A    -20.551677     2A    -20.517055     3A    -15.611665
       4A    -11.357446     5A    -11.296642     6A    -11.285389
       7A    -11.238244     8A    -11.228679     9A    -11.227475
      10A     -1.371231    11A     -1.331624    12A     -1.255730
      13A     -1.083509    14A     -1.023831    15A     -0.955572
      16A     -0.897394    17A     -0.829611    18A     -0.811289
      19A     -0.726576    20A     -0.678957    21A     -0.648307
      22A     -0.635287    23A     -0.620289    24A     -0.593310
      25A     -0.578101    26A     -0.560721    27A     -0.560467
      28A     -0.553129    29A     -0.540314    30A     -0.529460
      31A     -0.504103    32A     -0.498402    33A     -0.491754
      34A     -0.438561    35A     -0.425416    36A     -0.404485

  @DF-RHF Final Energy:  -439.11352852035219

   => Energetics <=

    Nuclear Repulsion Energy =            484.5314678698734951
    One-Electron Energy =               -1559.5665878710758534
    Two-Electron Energy =                 635.9215914808501111
    Total Energy =                       -439.1135285203522471
  Basis Set: (AUG-CC-PVTZ AUX)
    Blend: AUG-CC-PVTZ-RI
    Molecular point group: c1

    Geometry (in Angstrom), charge = 0, multiplicity = 1:

       Center              X                  Y                   Z               Mass
    ------------   -----------------  -----------------  -----------------  -----------------
         O           -2.919824295452     0.418047529925    -0.313345475000    15.994914619570
         O           -0.520044895452     1.550692429925     0.056773925000    15.994914619570
         N            0.658272104548    -0.361373570075    -0.334131075000    14.003074004430
         C            1.966766104548     0.240147429925    -0.093800075000    12.000000000000
         C           -1.799196895452    -0.437208570075    -0.367976075000    12.000000000000
         C            3.008801104548    -0.493834570075    -0.922256075000    12.000000000000
         C            2.295021104548     0.244331429925     1.395122925000    12.000000000000
         C           -0.451619595452     0.267537129925    -0.200211575000    12.000000000000
         C           -1.970395895452    -1.498894570075     0.712143925000    12.000000000000
         H            1.880840104548     1.274442429925    -0.438300075000     1.007825032230
         H            0.605547104548    -1.368951570075    -0.434678075000     1.007825032230
         H           -1.784870895452    -0.915613570075    -1.359958075000     1.007825032230
         H            3.992471104548    -0.037569570075    -0.786313075000     1.007825032230
         H            3.083286104548    -1.541800570075    -0.609796075000     1.007825032230
         H            2.754931104548    -0.463603570075    -1.984247075000     1.007825032230
         H            1.524533104548     0.789508429925     1.944935925000     1.007825032230
         H            3.259421104548     0.727916429925     1.578108925000     1.007825032230
         H            2.345917104548    -0.779988570075     1.777678925000     1.007825032230
         H           -2.957035895452    -1.954083570075     0.608985925000     1.007825032230
         H           -1.906998895452    -1.030034570075     1.696802925000     1.007825032230
         H           -1.217289895452    -2.290248570075     0.643957925000     1.007825032230
         H           -2.442190895452     1.344472429925    -0.150213075000     1.007825032230

  Basis Set: AUG-CC-PVTZ
    Blend: AUG-CC-PVTZ
  Basis Set: (AUG-CC-PVTZ AUX)
    Blend: AUG-CC-PVTZ-JKFIT
	 Reference Energy          =    -439.1135285203521903 [Eh]
	 Singles Energy            =      -0.0000000000000000 [Eh]
	 Same-Spin Energy          =      -0.4485258391684355 [Eh]
	 Opposite-Spin Energy      =      -1.4686608046877345 [Eh]
	 Correlation Energy        =      -1.9171866438561700 [Eh]
	 Total Energy              =    -441.0307151642083454 [Eh]

	 ================> DF-SCS-MP2 Energies <==================
	-----------------------------------------------------------
	 SCS Same-Spin Scale       =       0.3333333333333333 [-]
	 SCS Opposite-Spin Scale   =       1.2000000000000000 [-]
	 SCS Same-Spin Energy      =      -0.1495086130561452 [Eh]
	 SCS Opposite-Spin Energy  =      -1.7623929656252815 [Eh]
	 SCS Correlation Energy    =      -1.9119015786814266 [Eh]
	 SCS Total Energy          =    -441.0254300990335992 [Eh]
	-----------------------------------------------------------

  Dipole Moment: [D]
     X:     4.0787      Y:    -3.3834      Z:    -0.1934     Total:     5.3029

*** Psi4 exiting successfully. Buy a developer a beer!
