                               Psi4 1.3.2 release

  ==> Input File <==

--------------------------------------------------------------------------
#psi4
#
memory 32 gb

molecule  {
0 1
  O       -2.8756320     0.4615000    -0.3051040
  O       -0.5220660     1.5374290     0.0548780
  N        0.6562510    -0.3746370    -0.3360270
  C        1.9414833     0.2707715    -0.0842950
  C       -1.8012180    -0.4504720    -0.3698720
  C        3.0067800    -0.5070980    -0.9241520
  C        2.2930000     0.2310680     1.3932270
  C       -0.4677093     0.3614116    -0.1827285
  C       -1.9724170    -1.5121580     0.7102480
  H        1.8788190     1.2611790    -0.4401960
  H        0.6035260    -1.3822150    -0.4365740
  H       -1.7868920    -0.9288770    -1.3618540
  H        3.9904500    -0.0508330    -0.7882090
  H        3.0812650    -1.5550640    -0.6116920
  H        2.7529100    -0.4768670    -1.9861430
  H        1.5225120     0.7762450     1.9430400
  H        3.2574000     0.7146530     1.5762130
  H        2.3438960    -0.7932520     1.7757830
  H       -2.9590570    -1.9673470     0.6070900
  H       -1.9090200    -1.0432980     1.6949070
  H       -1.2193110    -2.3035120     0.6420620
  H       -2.4442120     1.3312090    -0.1521090
units angstrom
no_reorient  #important for SAPT in psi4, default
symmetry c1  #important for SAPT in psi4, default
}

set PROPERTIES_ORIGIN ["COM"]
properties('MP2/aug-cc-pvtz', properties = ['dipole'])
--------------------------------------------------------------------------

    Molecular point group: c1
  Charge       = 0
  Multiplicity = 1
  Basis Set: AUG-CC-PVTZ
    Blend: AUG-CC-PVTZ
  Basis Set: (AUG-CC-PVTZ AUX)
    Blend: AUG-CC-PVTZ-JKFIT

    Orbital Energies [Eh]
    ---------------------

    Doubly Occupied:

       1A    -20.546138     2A    -20.538268     3A    -15.592920
       4A    -11.354739     5A    -11.294201     6A    -11.275191
       7A    -11.232108     8A    -11.227990     9A    -11.222347
      10A     -1.417042    11A     -1.348492    12A     -1.250943
      13A     -1.065368    14A     -1.018257    15A     -0.946577
      16A     -0.885912    17A     -0.824976    18A     -0.797240
      19A     -0.733743    20A     -0.683135    21A     -0.649797
      22A     -0.640322    23A     -0.624860    24A     -0.602092
      25A     -0.579537    26A     -0.564639    27A     -0.555353
      28A     -0.546581    29A     -0.541543    30A     -0.532253
      31A     -0.518161    32A     -0.507846    33A     -0.490029
      34A     -0.443092    35A     -0.427180    36A     -0.403494

  @DF-RHF Final Energy:  -439.13543500876068

   => Energetics <=

    Nuclear Repulsion Energy =            485.5380123623419308
    One-Electron Energy =               -1561.5821635255235833
    Two-Electron Energy =                 636.9087161544209721
    Total Energy =                       -439.1354350087606235
  Basis Set: (AUG-CC-PVTZ AUX)
    Blend: AUG-CC-PVTZ-RI
    Molecular point group: c1

    Geometry (in Angstrom), charge = 0, multiplicity = 1:

       Center              X                  Y                   Z               Mass
    ------------   -----------------  -----------------  -----------------  -----------------
         O           -2.875832312075     0.454019095807    -0.307262450476    15.994914619570
         O           -0.522266312075     1.529948095807     0.052719549524    15.994914619570
         N            0.656050687925    -0.382117904193    -0.338185450476    14.003074004430
         C            1.941282987925     0.263290595807    -0.086453450476    12.000000000000
         C           -1.801418312075    -0.457952904193    -0.372030450476    12.000000000000
         C            3.006579687925    -0.514578904193    -0.926310450476    12.000000000000
         C            2.292799687925     0.223587095807     1.391068549524    12.000000000000
         C           -0.467909612075     0.353930695807    -0.184886950476    12.000000000000
         C           -1.972617312075    -1.519638904193     0.708089549524    12.000000000000
         H            1.878618687925     1.253698095807    -0.442354450476     1.007825032230
         H            0.603325687925    -1.389695904193    -0.438732450476     1.007825032230
         H           -1.787092312075    -0.936357904193    -1.364012450476     1.007825032230
         H            3.990249687925    -0.058313904193    -0.790367450476     1.007825032230
         H            3.081064687925    -1.562544904193    -0.613850450476     1.007825032230
         H            2.752709687925    -0.484347904193    -1.988301450476     1.007825032230
         H            1.522311687925     0.768764095807     1.940881549524     1.007825032230
         H            3.257199687925     0.707172095807     1.574054549524     1.007825032230
         H            2.343695687925    -0.800732904193     1.773624549524     1.007825032230
         H           -2.959257312075    -1.974827904193     0.604931549524     1.007825032230
         H           -1.909220312075    -1.050778904193     1.692748549524     1.007825032230
         H           -1.219511312075    -2.310992904193     0.639903549524     1.007825032230
         H           -2.444412312075     1.323728095807    -0.154267450476     1.007825032230

  Basis Set: AUG-CC-PVTZ
    Blend: AUG-CC-PVTZ
  Basis Set: (AUG-CC-PVTZ AUX)
    Blend: AUG-CC-PVTZ-JKFIT
	 Reference Energy          =    -439.1354350087606804 [Eh]
	 Singles Energy            =      -0.0000000000000000 [Eh]
	 Same-Spin Energy          =      -0.4449652107796584 [Eh]
	 Opposite-Spin Energy      =      -1.4618377247563434 [Eh]
	 Correlation Energy        =      -1.9068029355360019 [Eh]
	 Total Energy              =    -441.0422379442966871 [Eh]

	 ================> DF-SCS-MP2 Energies <==================
	-----------------------------------------------------------
	 SCS Same-Spin Scale       =       0.3333333333333333 [-]
	 SCS Opposite-Spin Scale   =       1.2000000000000000 [-]
	 SCS Same-Spin Energy      =      -0.1483217369265528 [Eh]
	 SCS Opposite-Spin Energy  =      -1.7542052697076120 [Eh]
	 SCS Correlation Energy    =      -1.9025270066341649 [Eh]
	 SCS Total Energy          =    -441.0379620153948395 [Eh]
	-----------------------------------------------------------

  Dipole Moment: [D]
     X:     3.4840      Y:    -2.8313      Z:    -0.0884     Total:     4.4902

*** Psi4 exiting successfully. Buy a developer a beer!
