                               Psi4 1.4a3.dev225

  ==> Input File <==

--------------------------------------------------------------------------
#psi4
#
memory 32 gb

molecule  {
0 1
  O        2.9110620    -0.5703060    -0.4523520
  O        0.5539390    -1.5540470     0.1662040
  N       -0.5943370     0.3369340    -0.3930300
  C       -1.9154150    -0.2304160    -0.1256420
  C        1.8655780     0.3788930    -0.3941620
  C       -2.9513150     0.5221750    -0.9483650
  C       -2.2232580    -0.2086170     1.3682650
  C        0.5022537    -0.3402695    -0.1985050
  C        2.1035320     1.3624180     0.7499890
  H       -1.8664900    -1.2716350    -0.4595930
  H       -0.5281980     1.3181660    -0.6377390
  H        1.8317100     0.9202690    -1.3505730
  H       -3.9433690     0.0896600    -0.7945050
  H       -2.9965010     1.5743390    -0.6446630
  H       -2.7149650     0.4749500    -2.0147890
  H       -1.4563020    -0.7629570     1.9136170
  H       -3.1950150    -0.6709470     1.5682930
  H       -2.2473660     0.8219210     1.7368640
  H        3.0888910     1.8183940     0.6312910
  H        2.0827360     0.8223960     1.7004970
  H        1.3487660     2.1553220     0.7756360
  H        2.4958040    -1.4028240    -0.1381920
units angstrom
no_reorient  #important for SAPT in psi4, default
symmetry c1  #important for SAPT in psi4, default
}

set PROPERTIES_ORIGIN ["COM"]
properties('MP2/aug-cc-pvtz', properties = ['dipole'])
--------------------------------------------------------------------------

    Molecular point group: c1
  Charge       = 0
  Multiplicity = 1
  Basis Set: AUG-CC-PVTZ
    Blend: AUG-CC-PVTZ
  Basis Set: (AUG-CC-PVTZ AUX)
    Blend: AUG-CC-PVTZ-JKFIT

    Orbital Energies [Eh]
    ---------------------

    Doubly Occupied:

       1A    -20.546393     2A    -20.521758     3A    -15.604863
       4A    -11.354608     5A    -11.296912     6A    -11.282497
       7A    -11.236918     8A    -11.228035     9A    -11.224111
      10A     -1.383192    11A     -1.340363    12A     -1.258376
      13A     -1.077309    14A     -1.022655    15A     -0.953036
      16A     -0.891428    17A     -0.825716    18A     -0.807052
      19A     -0.732470    20A     -0.678536    21A     -0.642632
      22A     -0.635715    23A     -0.626407    24A     -0.595575
      25A     -0.579763    26A     -0.569743    27A     -0.558407
      28A     -0.551002    29A     -0.537308    30A     -0.528978
      31A     -0.505622    32A     -0.501330    33A     -0.492349
      34A     -0.442784    35A     -0.424197    36A     -0.404960

  @DF-RHF Final Energy:  -439.13305581837568

   => Energetics <=

    Nuclear Repulsion Energy =            485.1628834700085804
    One-Electron Energy =               -1560.8658728492416685
    Two-Electron Energy =                 636.5699335608574074
    Total Energy =                       -439.1330558183756239
  Basis Set: (AUG-CC-PVTZ AUX)
    Blend: AUG-CC-PVTZ-RI
    Molecular point group: c1

    Geometry (in Angstrom), charge = 0, multiplicity = 1:

       Center              X                  Y                   Z               Mass
    ------------   -----------------  -----------------  -----------------  -----------------
         O            2.853754736285    -0.528218762794    -0.434368442031    15.994914619570
         O            0.496631736285    -1.511959762794     0.184187557969    15.994914619570
         N           -0.651644263715     0.379021237206    -0.375046442031    14.003074004430
         C           -1.972722263715    -0.188328762794    -0.107658442031    12.000000000000
         C            1.808270736285     0.420980237206    -0.376178442031    12.000000000000
         C           -3.008622263715     0.564262237206    -0.930381442031    12.000000000000
         C           -2.280565263715    -0.166529762794     1.386248557969    12.000000000000
         C            0.444946436285    -0.298182262794    -0.180521442031    12.000000000000
         C            2.046224736285     1.404505237206     0.767972557969    12.000000000000
         H           -1.923797263715    -1.229547762794    -0.441609442031     1.007825032230
         H           -0.585505263715     1.360253237206    -0.619755442031     1.007825032230
         H            1.774402736285     0.962356237206    -1.332589442031     1.007825032230
         H           -4.000676263715     0.131747237206    -0.776521442031     1.007825032230
         H           -3.053808263715     1.616426237206    -0.626679442031     1.007825032230
         H           -2.772272263715     0.517037237206    -1.996805442031     1.007825032230
         H           -1.513609263715    -0.720869762794     1.931600557969     1.007825032230
         H           -3.252322263715    -0.628859762794     1.586276557969     1.007825032230
         H           -2.304673263715     0.864008237206     1.754847557969     1.007825032230
         H            3.031583736285     1.860481237206     0.649274557969     1.007825032230
         H            2.025428736285     0.864483237206     1.718480557969     1.007825032230
         H            1.291458736285     2.197409237206     0.793619557969     1.007825032230
         H            2.438496736285    -1.360736762794    -0.120208442031     1.007825032230

  Basis Set: AUG-CC-PVTZ
    Blend: AUG-CC-PVTZ
  Basis Set: (AUG-CC-PVTZ AUX)
    Blend: AUG-CC-PVTZ-JKFIT
	 Reference Energy          =    -439.1330558183756807 [Eh]
	 Singles Energy            =      -0.0000000000000000 [Eh]
	 Same-Spin Energy          =      -0.4463041421186883 [Eh]
	 Opposite-Spin Energy      =      -1.4643816931730749 [Eh]
	 Correlation Energy        =      -1.9106858352917633 [Eh]
	 Total Energy              =    -441.0437416536674391 [Eh]

	 ================> DF-SCS-MP2 Energies <==================
	-----------------------------------------------------------
	 SCS Same-Spin Scale       =       0.3333333333333333 [-]
	 SCS Opposite-Spin Scale   =       1.2000000000000000 [-]
	 SCS Same-Spin Energy      =      -0.1487680473728961 [Eh]
	 SCS Opposite-Spin Energy  =      -1.7572580318076898 [Eh]
	 SCS Correlation Energy    =      -1.9060260791805859 [Eh]
	 SCS Total Energy          =    -441.0390818975562865 [Eh]
	-----------------------------------------------------------

  Dipole Moment: [D]
     X:    -3.7511      Y:     3.3301      Z:    -0.2390     Total:     5.0217

*** Psi4 exiting successfully. Buy a developer a beer!
