                               Psi4 1.3.2 release

  ==> Input File <==

--------------------------------------------------------------------------
#psi4
#
memory 32 gb

molecule  {
0 1
  O       -2.8756320     0.4615000    -0.3051040
  O       -0.4571671     1.5372183     0.0549813
  N        0.6919558    -0.3147763    -0.3236250
  C        1.9647450     0.2268840    -0.0956960
  C       -1.8012180    -0.4504720    -0.3698720
  C        3.0067800    -0.5070980    -0.9241520
  C        2.2930000     0.2310680     1.3932270
  C       -0.4931590     0.3235730    -0.1949090
  C       -1.9724170    -1.5121580     0.7102480
  H        1.8788190     1.2611790    -0.4401960
  H        0.6035260    -1.3822150    -0.4365740
  H       -1.7868920    -0.9288770    -1.3618540
  H        3.9904500    -0.0508330    -0.7882090
  H        3.0812650    -1.5550640    -0.6116920
  H        2.7529100    -0.4768670    -1.9861430
  H        1.5225120     0.7762450     1.9430400
  H        3.2574000     0.7146530     1.5762130
  H        2.3438960    -0.7932520     1.7757830
  H       -2.9590570    -1.9673470     0.6070900
  H       -1.9090200    -1.0432980     1.6949070
  H       -1.2193110    -2.3035120     0.6420620
  H       -2.4442120     1.3312090    -0.1521090
units angstrom
no_reorient  #important for SAPT in psi4, default
symmetry c1  #important for SAPT in psi4, default
}

set PROPERTIES_ORIGIN ["COM"]
properties('MP2/aug-cc-pvtz', properties = ['dipole'])
--------------------------------------------------------------------------

    Molecular point group: c1
  Charge       = 0
  Multiplicity = 1
  Basis Set: AUG-CC-PVTZ
    Blend: AUG-CC-PVTZ
  Basis Set: (AUG-CC-PVTZ AUX)
    Blend: AUG-CC-PVTZ-JKFIT

    Orbital Energies [Eh]
    ---------------------

    Doubly Occupied:

       1A    -20.554444     2A    -20.528627     3A    -15.595988
       4A    -11.358077     5A    -11.304825     6A    -11.269801
       7A    -11.234119     8A    -11.230153     9A    -11.218431
      10A     -1.398715    11A     -1.352787    12A     -1.247749
      13A     -1.070954    14A     -1.025674    15A     -0.947598
      16A     -0.900520    17A     -0.829041    18A     -0.778666
      19A     -0.740904    20A     -0.680024    21A     -0.651052
      22A     -0.630907    23A     -0.630187    24A     -0.590053
      25A     -0.584467    26A     -0.569846    27A     -0.552715
      28A     -0.550096    29A     -0.541065    30A     -0.530455
      31A     -0.516544    32A     -0.501313    33A     -0.486549
      34A     -0.449532    35A     -0.435911    36A     -0.392715

  @DF-RHF Final Energy:  -439.12710775326144

   => Energetics <=

    Nuclear Repulsion Energy =            486.1163480124541252
    One-Electron Energy =               -1562.7259077724950203
    Two-Electron Energy =                 637.4824520067794538
    Total Energy =                       -439.1271077532613845
  Basis Set: (AUG-CC-PVTZ AUX)
    Blend: AUG-CC-PVTZ-RI
    Molecular point group: c1

    Geometry (in Angstrom), charge = 0, multiplicity = 1:

       Center              X                  Y                   Z               Mass
    ------------   -----------------  -----------------  -----------------  -----------------
         O           -2.887364236277     0.455131647236    -0.306441214681    15.994914619570
         O           -0.468899336277     1.530849947236     0.053644085319    15.994914619570
         N            0.680223563723    -0.321144652764    -0.324962214681    14.003074004430
         C            1.953012763723     0.220515647236    -0.097033214681    12.000000000000
         C           -1.812950236277    -0.456840352764    -0.371209214681    12.000000000000
         C            2.995047763723    -0.513466352764    -0.925489214681    12.000000000000
         C            2.281267763723     0.224699647236     1.391889785319    12.000000000000
         C           -0.504891236277     0.317204647236    -0.196246214681    12.000000000000
         C           -1.984149236277    -1.518526352764     0.708910785319    12.000000000000
         H            1.867086763723     1.254810647236    -0.441533214681     1.007825032230
         H            0.591793763723    -1.388583352764    -0.437911214681     1.007825032230
         H           -1.798624236277    -0.935245352764    -1.363191214681     1.007825032230
         H            3.978717763723    -0.057201352764    -0.789546214681     1.007825032230
         H            3.069532763723    -1.561432352764    -0.613029214681     1.007825032230
         H            2.741177763723    -0.483235352764    -1.987480214681     1.007825032230
         H            1.510779763723     0.769876647236     1.941702785319     1.007825032230
         H            3.245667763723     0.708284647236     1.574875785319     1.007825032230
         H            2.332163763723    -0.799620352764     1.774445785319     1.007825032230
         H           -2.970789236277    -1.973715352764     0.605752785319     1.007825032230
         H           -1.920752236277    -1.049666352764     1.693569785319     1.007825032230
         H           -1.231043236277    -2.309880352764     0.640724785319     1.007825032230
         H           -2.455944236277     1.324840647236    -0.153446214681     1.007825032230

  Basis Set: AUG-CC-PVTZ
    Blend: AUG-CC-PVTZ
  Basis Set: (AUG-CC-PVTZ AUX)
    Blend: AUG-CC-PVTZ-JKFIT
	 Reference Energy          =    -439.1271077532614413 [Eh]
	 Singles Energy            =      -0.0000000000000000 [Eh]
	 Same-Spin Energy          =      -0.4470254565628726 [Eh]
	 Opposite-Spin Energy      =      -1.4651550243534515 [Eh]
	 Correlation Energy        =      -1.9121804809163241 [Eh]
	 Total Energy              =    -441.0392882341777749 [Eh]

	 ================> DF-SCS-MP2 Energies <==================
	-----------------------------------------------------------
	 SCS Same-Spin Scale       =       0.3333333333333333 [-]
	 SCS Opposite-Spin Scale   =       1.2000000000000000 [-]
	 SCS Same-Spin Energy      =      -0.1490084855209575 [Eh]
	 SCS Opposite-Spin Energy  =      -1.7581860292241418 [Eh]
	 SCS Correlation Energy    =      -1.9071945147450993 [Eh]
	 SCS Total Energy          =    -441.0343022680065133 [Eh]
	-----------------------------------------------------------

  Dipole Moment: [D]
     X:     3.0727      Y:    -3.1459      Z:    -0.1855     Total:     4.4015

*** Psi4 exiting successfully. Buy a developer a beer!
