                               Psi4 1.3.2 release

  ==> Input File <==

--------------------------------------------------------------------------
#psi4
#
memory 32 gb

molecule  {
0 1
  O       -2.8756320     0.4615000    -0.3051040
  O       -0.5220660     1.5374290     0.0548780
  N        0.6616048    -0.3829289    -0.3440844
  C        1.9647450     0.2268840    -0.0956960
  C       -1.8012180    -0.4504720    -0.3698720
  C        2.9972984    -0.5150570    -0.9289204
  C        2.2930000     0.2310680     1.3932270
  C       -0.4931590     0.3235730    -0.1949090
  C       -1.9724170    -1.5121580     0.7102480
  H        1.8788190     1.2611790    -0.4401960
  H        0.6035260    -1.3822150    -0.4365740
  H       -1.7868920    -0.9288770    -1.3618540
  H        3.9904500    -0.0508330    -0.7882090
  H        3.0812650    -1.5550640    -0.6116920
  H        2.7529100    -0.4768670    -1.9861430
  H        1.5225120     0.7762450     1.9430400
  H        3.2574000     0.7146530     1.5762130
  H        2.3438960    -0.7932520     1.7757830
  H       -2.9590570    -1.9673470     0.6070900
  H       -1.9090200    -1.0432980     1.6949070
  H       -1.2193110    -2.3035120     0.6420620
  H       -2.4442120     1.3312090    -0.1521090
units angstrom
no_reorient  #important for SAPT in psi4, default
symmetry c1  #important for SAPT in psi4, default
}

set PROPERTIES_ORIGIN ["COM"]
properties('MP2/aug-cc-pvtz', properties = ['dipole'])
--------------------------------------------------------------------------

    Molecular point group: c1
  Charge       = 0
  Multiplicity = 1
  Basis Set: AUG-CC-PVTZ
    Blend: AUG-CC-PVTZ
  Basis Set: (AUG-CC-PVTZ AUX)
    Blend: AUG-CC-PVTZ-JKFIT

    Orbital Energies [Eh]
    ---------------------

    Doubly Occupied:

       1A    -20.548075     2A    -20.534400     3A    -15.594413
       4A    -11.359713     5A    -11.297524     6A    -11.276842
       7A    -11.231537     8A    -11.230965     9A    -11.222316
      10A     -1.397514    11A     -1.346136    12A     -1.247242
      13A     -1.071281    14A     -1.023728    15A     -0.949839
      16A     -0.894779    17A     -0.822224    18A     -0.794760
      19A     -0.736291    20A     -0.679158    21A     -0.650003
      22A     -0.632996    23A     -0.629407    24A     -0.597207
      25A     -0.581301    26A     -0.567052    27A     -0.555049
      28A     -0.546578    29A     -0.538223    30A     -0.530238
      31A     -0.513169    32A     -0.503873    33A     -0.491971
      34A     -0.445185    35A     -0.434852    36A     -0.401346

  @DF-RHF Final Energy:  -439.13737950824338

   => Energetics <=

    Nuclear Repulsion Energy =            485.2007223011168549
    One-Electron Energy =               -1560.9218286190805429
    Two-Electron Energy =                 636.5837268097202468
    Total Energy =                       -439.1373795082433844
  Basis Set: (AUG-CC-PVTZ AUX)
    Blend: AUG-CC-PVTZ-RI
    Molecular point group: c1

    Geometry (in Angstrom), charge = 0, multiplicity = 1:

       Center              X                  Y                   Z               Mass
    ------------   -----------------  -----------------  -----------------  -----------------
         O           -2.875335987068     0.463114306660    -0.303806724081    15.994914619570
         O           -0.521769987068     1.539043306660     0.056175275919    15.994914619570
         N            0.661900812932    -0.381314593340    -0.342787124081    14.003074004430
         C            1.965041012932     0.228498306660    -0.094398724081    12.000000000000
         C           -1.800921987068    -0.448857693340    -0.368574724081    12.000000000000
         C            2.997594412932    -0.513442693340    -0.927623124081    12.000000000000
         C            2.293296012932     0.232682306660     1.394524275919    12.000000000000
         C           -0.492862987068     0.325187306660    -0.193611724081    12.000000000000
         C           -1.972120987068    -1.510543693340     0.711545275919    12.000000000000
         H            1.879115012932     1.262793306660    -0.438898724081     1.007825032230
         H            0.603822012932    -1.380600693340    -0.435276724081     1.007825032230
         H           -1.786595987068    -0.927262693340    -1.360556724081     1.007825032230
         H            3.990746012932    -0.049218693340    -0.786911724081     1.007825032230
         H            3.081561012932    -1.553449693340    -0.610394724081     1.007825032230
         H            2.753206012932    -0.475252693340    -1.984845724081     1.007825032230
         H            1.522808012932     0.777859306660     1.944337275919     1.007825032230
         H            3.257696012932     0.716267306660     1.577510275919     1.007825032230
         H            2.344192012932    -0.791637693340     1.777080275919     1.007825032230
         H           -2.958760987068    -1.965732693340     0.608387275919     1.007825032230
         H           -1.908723987068    -1.041683693340     1.696204275919     1.007825032230
         H           -1.219014987068    -2.301897693340     0.643359275919     1.007825032230
         H           -2.443915987068     1.332823306660    -0.150811724081     1.007825032230

  Basis Set: AUG-CC-PVTZ
    Blend: AUG-CC-PVTZ
  Basis Set: (AUG-CC-PVTZ AUX)
    Blend: AUG-CC-PVTZ-JKFIT
	 Reference Energy          =    -439.1373795082433844 [Eh]
	 Singles Energy            =      -0.0000000000000000 [Eh]
	 Same-Spin Energy          =      -0.4460184709342255 [Eh]
	 Opposite-Spin Energy      =      -1.4637015980314234 [Eh]
	 Correlation Energy        =      -1.9097200689656488 [Eh]
	 Total Energy              =    -441.0470995772090532 [Eh]

	 ================> DF-SCS-MP2 Energies <==================
	-----------------------------------------------------------
	 SCS Same-Spin Scale       =       0.3333333333333333 [-]
	 SCS Opposite-Spin Scale   =       1.2000000000000000 [-]
	 SCS Same-Spin Energy      =      -0.1486728236447418 [Eh]
	 SCS Opposite-Spin Energy  =      -1.7564419176377080 [Eh]
	 SCS Correlation Energy    =      -1.9051147412824498 [Eh]
	 SCS Total Energy          =    -441.0424942495258165 [Eh]
	-----------------------------------------------------------

  Dipole Moment: [D]
     X:     3.4089      Y:    -3.0295      Z:    -0.1214     Total:     4.5621

*** Psi4 exiting successfully. Buy a developer a beer!
