                               Psi4 1.3.2 release

  ==> Input File <==

--------------------------------------------------------------------------
#psi4
#
memory 32 gb

molecule  {
0 1
  O       -2.8756320     0.4615000    -0.3051040
  O       -0.5220660     1.5374290     0.0548780
  N        0.6436452    -0.3941291    -0.3402871
  C        1.9647450     0.2268840    -0.0956960
  C       -1.7871703    -0.4726987    -0.3745260
  C        3.0067800    -0.5070980    -0.9241520
  C        2.2930000     0.2310680     1.3932270
  C       -0.4931590     0.3235730    -0.1949090
  C       -1.9724170    -1.5121580     0.7102480
  H        1.8788190     1.2611790    -0.4401960
  H        0.6035260    -1.3822150    -0.4365740
  H       -1.7868920    -0.9288770    -1.3618540
  H        3.9904500    -0.0508330    -0.7882090
  H        3.0812650    -1.5550640    -0.6116920
  H        2.7529100    -0.4768670    -1.9861430
  H        1.5225120     0.7762450     1.9430400
  H        3.2574000     0.7146530     1.5762130
  H        2.3438960    -0.7932520     1.7757830
  H       -2.9590570    -1.9673470     0.6070900
  H       -1.9090200    -1.0432980     1.6949070
  H       -1.2193110    -2.3035120     0.6420620
  H       -2.4442120     1.3312090    -0.1521090
units angstrom
no_reorient  #important for SAPT in psi4, default
symmetry c1  #important for SAPT in psi4, default
}

set PROPERTIES_ORIGIN ["COM"]
properties('MP2/aug-cc-pvtz', properties = ['dipole'])
--------------------------------------------------------------------------

    Molecular point group: c1
  Charge       = 0
  Multiplicity = 1
  Basis Set: AUG-CC-PVTZ
    Blend: AUG-CC-PVTZ
  Basis Set: (AUG-CC-PVTZ AUX)
    Blend: AUG-CC-PVTZ-JKFIT

    Orbital Energies [Eh]
    ---------------------

    Doubly Occupied:

       1A    -20.544187     2A    -20.533878     3A    -15.594594
       4A    -11.359182     5A    -11.295653     6A    -11.279020
       7A    -11.232648     8A    -11.230854     9A    -11.223193
      10A     -1.394888    11A     -1.336584    12A     -1.247665
      13A     -1.073617    14A     -1.026156    15A     -0.950223
      16A     -0.895107    17A     -0.821115    18A     -0.799769
      19A     -0.732192    20A     -0.678096    21A     -0.649107
      22A     -0.632976    23A     -0.627677    24A     -0.598586
      25A     -0.579463    26A     -0.566723    27A     -0.555374
      28A     -0.547593    29A     -0.537153    30A     -0.530057
      31A     -0.510249    32A     -0.502835    33A     -0.491928
      34A     -0.446856    35A     -0.434506    36A     -0.403592

  @DF-RHF Final Energy:  -439.13630824719132

   => Energetics <=

    Nuclear Repulsion Energy =            484.9773261145119250
    One-Electron Energy =               -1560.5006750578434094
    Two-Electron Energy =                 636.3870406961401613
    Total Energy =                       -439.1363082471913231
  Basis Set: (AUG-CC-PVTZ AUX)
    Blend: AUG-CC-PVTZ-RI
    Molecular point group: c1

    Geometry (in Angstrom), charge = 0, multiplicity = 1:

       Center              X                  Y                   Z               Mass
    ------------   -----------------  -----------------  -----------------  -----------------
         O           -2.875571404739     0.465616694689    -0.304222810335    15.994914619570
         O           -0.522005404739     1.541545694689     0.055759189665    15.994914619570
         N            0.643705795261    -0.390012405311    -0.339405910335    14.003074004430
         C            1.964805595261     0.231000694689    -0.094814810335    12.000000000000
         C           -1.787109704739    -0.468582005311    -0.373644810335    12.000000000000
         C            3.006840595261    -0.502981305311    -0.923270810335    12.000000000000
         C            2.293060595261     0.235184694689     1.394108189665    12.000000000000
         C           -0.493098404739     0.327689694689    -0.194027810335    12.000000000000
         C           -1.972356404739    -1.508041305311     0.711129189665    12.000000000000
         H            1.878879595261     1.265295694689    -0.439314810335     1.007825032230
         H            0.603586595261    -1.378098305311    -0.435692810335     1.007825032230
         H           -1.786831404739    -0.924760305311    -1.360972810335     1.007825032230
         H            3.990510595261    -0.046716305311    -0.787327810335     1.007825032230
         H            3.081325595261    -1.550947305311    -0.610810810335     1.007825032230
         H            2.752970595261    -0.472750305311    -1.985261810335     1.007825032230
         H            1.522572595261     0.780361694689     1.943921189665     1.007825032230
         H            3.257460595261     0.718769694689     1.577094189665     1.007825032230
         H            2.343956595261    -0.789135305311     1.776664189665     1.007825032230
         H           -2.958996404739    -1.963230305311     0.607971189665     1.007825032230
         H           -1.908959404739    -1.039181305311     1.695788189665     1.007825032230
         H           -1.219250404739    -2.299395305311     0.642943189665     1.007825032230
         H           -2.444151404739     1.335325694689    -0.151227810335     1.007825032230

  Basis Set: AUG-CC-PVTZ
    Blend: AUG-CC-PVTZ
  Basis Set: (AUG-CC-PVTZ AUX)
    Blend: AUG-CC-PVTZ-JKFIT
	 Reference Energy          =    -439.1363082471913231 [Eh]
	 Singles Energy            =      -0.0000000000000000 [Eh]
	 Same-Spin Energy          =      -0.4459000447690042 [Eh]
	 Opposite-Spin Energy      =      -1.4639459460395068 [Eh]
	 Correlation Energy        =      -1.9098459908085110 [Eh]
	 Total Energy              =    -441.0461542379998150 [Eh]

	 ================> DF-SCS-MP2 Energies <==================
	-----------------------------------------------------------
	 SCS Same-Spin Scale       =       0.3333333333333333 [-]
	 SCS Opposite-Spin Scale   =       1.2000000000000000 [-]
	 SCS Same-Spin Energy      =      -0.1486333482563347 [Eh]
	 SCS Opposite-Spin Energy  =      -1.7567351352474081 [Eh]
	 SCS Correlation Energy    =      -1.9053684835037428 [Eh]
	 SCS Total Energy          =    -441.0416767306950874 [Eh]
	-----------------------------------------------------------

  Dipole Moment: [D]
     X:     3.5648      Y:    -3.0954      Z:    -0.1280     Total:     4.7229

*** Psi4 exiting successfully. Buy a developer a beer!
