                               Psi4 1.4a3.dev225

  ==> Input File <==

--------------------------------------------------------------------------
#psi4
#
memory 32 gb

molecule  {
0 1
  O        2.9110620    -0.5703060    -0.4523520
  O        0.5539390    -1.5540470     0.1662040
  N       -0.5943370     0.3369340    -0.3930300
  C       -1.9154150    -0.2304160    -0.1256420
  C        1.8655780     0.3788930    -0.3941620
  C       -2.9513150     0.5221750    -0.9483650
  C       -2.2232580    -0.2086170     1.3682650
  C        0.5443190    -0.3662470    -0.1910430
  C        2.1035320     1.3624180     0.7499890
  H       -1.8664900    -1.2716350    -0.4595930
  H       -0.5268928     1.3375303    -0.6425682
  H        1.8317100     0.9202690    -1.3505730
  H       -3.9433690     0.0896600    -0.7945050
  H       -2.9965010     1.5743390    -0.6446630
  H       -2.7149650     0.4749500    -2.0147890
  H       -1.4563020    -0.7629570     1.9136170
  H       -3.1950150    -0.6709470     1.5682930
  H       -2.2473660     0.8219210     1.7368640
  H        3.0888910     1.8183940     0.6312910
  H        2.0827360     0.8223960     1.7004970
  H        1.3487660     2.1553220     0.7756360
  H        2.4958040    -1.4028240    -0.1381920
units angstrom
no_reorient  #important for SAPT in psi4, default
symmetry c1  #important for SAPT in psi4, default
}

set PROPERTIES_ORIGIN ["COM"]
properties('MP2/aug-cc-pvtz', properties = ['dipole'])
--------------------------------------------------------------------------

    Molecular point group: c1
  Charge       = 0
  Multiplicity = 1
  Basis Set: AUG-CC-PVTZ
    Blend: AUG-CC-PVTZ
  Basis Set: (AUG-CC-PVTZ AUX)
    Blend: AUG-CC-PVTZ-JKFIT

    Orbital Energies [Eh]
    ---------------------

    Doubly Occupied:

       1A    -20.548587     2A    -20.531602     3A    -15.598027
       4A    -11.357994     5A    -11.297560     6A    -11.278151
       7A    -11.233477     8A    -11.229798     9A    -11.221033
      10A     -1.395615    11A     -1.345588    12A     -1.244670
      13A     -1.071032    14A     -1.023153    15A     -0.949499
      16A     -0.893532    17A     -0.820824    18A     -0.790816
      19A     -0.737132    20A     -0.677311    21A     -0.641746
      22A     -0.634612    23A     -0.628844    24A     -0.594762
      25A     -0.582225    26A     -0.570916    27A     -0.555124
      28A     -0.548152    29A     -0.536828    30A     -0.528544
      31A     -0.511660    32A     -0.502074    33A     -0.491300
      34A     -0.446271    35A     -0.431623    36A     -0.401126

  @DF-RHF Final Energy:  -439.13664845569286

   => Energetics <=

    Nuclear Repulsion Energy =            484.9528555895356590
    One-Electron Energy =               -1560.4765955706141085
    Two-Electron Energy =                 636.3870915253855856
    Total Energy =                       -439.1366484556929208
  Basis Set: (AUG-CC-PVTZ AUX)
    Blend: AUG-CC-PVTZ-RI
    Molecular point group: c1

    Geometry (in Angstrom), charge = 0, multiplicity = 1:

       Center              X                  Y                   Z               Mass
    ------------   -----------------  -----------------  -----------------  -----------------
         O            2.849894173740    -0.525989730402    -0.435014364844    15.994914619570
         O            0.492771173740    -1.509730730402     0.183541635156    15.994914619570
         N           -0.655504826260     0.381250269598    -0.375692364844    14.003074004430
         C           -1.976582826260    -0.186099730402    -0.108304364844    12.000000000000
         C            1.804410173740     0.423209269598    -0.376824364844    12.000000000000
         C           -3.012482826260     0.566491269598    -0.931027364844    12.000000000000
         C           -2.284425826260    -0.164300730402     1.385602635156    12.000000000000
         C            0.483151173740    -0.321930730402    -0.173705364844    12.000000000000
         C            2.042364173740     1.406734269598     0.767326635156    12.000000000000
         H           -1.927657826260    -1.227318730402    -0.442255364844     1.007825032230
         H           -0.588060626260     1.381846569598    -0.625230564844     1.007825032230
         H            1.770542173740     0.964585269598    -1.333235364844     1.007825032230
         H           -4.004536826260     0.133976269598    -0.777167364844     1.007825032230
         H           -3.057668826260     1.618655269598    -0.627325364844     1.007825032230
         H           -2.776132826260     0.519266269598    -1.997451364844     1.007825032230
         H           -1.517469826260    -0.718640730402     1.930954635156     1.007825032230
         H           -3.256182826260    -0.626630730402     1.585630635156     1.007825032230
         H           -2.308533826260     0.866237269598     1.754201635156     1.007825032230
         H            3.027723173740     1.862710269598     0.648628635156     1.007825032230
         H            2.021568173740     0.866712269598     1.717834635156     1.007825032230
         H            1.287598173740     2.199638269598     0.792973635156     1.007825032230
         H            2.434636173740    -1.358507730402    -0.120854364844     1.007825032230

  Basis Set: AUG-CC-PVTZ
    Blend: AUG-CC-PVTZ
  Basis Set: (AUG-CC-PVTZ AUX)
    Blend: AUG-CC-PVTZ-JKFIT
	 Reference Energy          =    -439.1366484556928640 [Eh]
	 Singles Energy            =      -0.0000000000000000 [Eh]
	 Same-Spin Energy          =      -0.4461101395058010 [Eh]
	 Opposite-Spin Energy      =      -1.4641716693708922 [Eh]
	 Correlation Energy        =      -1.9102818088766931 [Eh]
	 Total Energy              =    -441.0469302645695393 [Eh]

	 ================> DF-SCS-MP2 Energies <==================
	-----------------------------------------------------------
	 SCS Same-Spin Scale       =       0.3333333333333333 [-]
	 SCS Opposite-Spin Scale   =       1.2000000000000000 [-]
	 SCS Same-Spin Energy      =      -0.1487033798352670 [Eh]
	 SCS Opposite-Spin Energy  =      -1.7570060032450705 [Eh]
	 SCS Correlation Energy    =      -1.9057093830803375 [Eh]
	 SCS Total Energy          =    -441.0423578387732277 [Eh]
	-----------------------------------------------------------

  Dipole Moment: [D]
     X:    -3.3900      Y:     3.1394      Z:    -0.1873     Total:     4.6242

*** Psi4 exiting successfully. Buy a developer a beer!
