                               Psi4 1.3.2 release

  ==> Input File <==

--------------------------------------------------------------------------
#psi4
#
memory 32 gb

molecule  {
0 1
  O       -2.8756320     0.4615000    -0.3051040
  O       -0.5220660     1.5374290     0.0548780
  N        0.6562510    -0.3746370    -0.3360270
  C        1.9647450     0.2268840    -0.0956960
  C       -1.8012180    -0.4504720    -0.3698720
  C        3.0067800    -0.5070980    -0.9241520
  C        2.2930000     0.2310680     1.3932270
  C       -0.4884952     0.1277309    -0.2352093
  C       -1.9724170    -1.5121580     0.7102480
  H        1.8788190     1.2611790    -0.4401960
  H        0.6035260    -1.3822150    -0.4365740
  H       -1.7868920    -0.9288770    -1.3618540
  H        3.9904500    -0.0508330    -0.7882090
  H        3.0812650    -1.5550640    -0.6116920
  H        2.7529100    -0.4768670    -1.9861430
  H        1.5225120     0.7762450     1.9430400
  H        3.2574000     0.7146530     1.5762130
  H        2.3438960    -0.7932520     1.7757830
  H       -2.9590570    -1.9673470     0.6070900
  H       -1.9090200    -1.0432980     1.6949070
  H       -1.2193110    -2.3035120     0.6420620
  H       -2.4442120     1.3312090    -0.1521090
units angstrom
no_reorient  #important for SAPT in psi4, default
symmetry c1  #important for SAPT in psi4, default
}

set PROPERTIES_ORIGIN ["COM"]
properties('MP2/aug-cc-pvtz', properties = ['dipole'])
--------------------------------------------------------------------------

    Molecular point group: c1
  Charge       = 0
  Multiplicity = 1
  Basis Set: AUG-CC-PVTZ
    Blend: AUG-CC-PVTZ
  Basis Set: (AUG-CC-PVTZ AUX)
    Blend: AUG-CC-PVTZ-JKFIT

    Orbital Energies [Eh]
    ---------------------

    Doubly Occupied:

       1A    -20.547806     2A    -20.492374     3A    -15.624935
       4A    -11.357268     5A    -11.301947     6A    -11.290782
       7A    -11.241317     8A    -11.236202     9A    -11.228992
      10A     -1.369401    11A     -1.335441    12A     -1.208624
      13A     -1.095306    14A     -1.043203    15A     -0.957493
      16A     -0.914858    17A     -0.846732    18A     -0.809973
      19A     -0.741523    20A     -0.685589    21A     -0.660223
      22A     -0.639014    23A     -0.618925    24A     -0.589920
      25A     -0.574010    26A     -0.563324    27A     -0.558333
      28A     -0.553073    29A     -0.543366    30A     -0.531431
      31A     -0.504117    32A     -0.488223    33A     -0.478681
      34A     -0.442466    35A     -0.407395    36A     -0.386395

  @DF-RHF Final Energy:  -439.07326331472990

   => Energetics <=

    Nuclear Repulsion Energy =            485.1515139748935894
    One-Electron Energy =               -1560.7122297020480346
    Two-Electron Energy =                 636.4874524124245454
    Total Energy =                       -439.0732633147299566
  Basis Set: (AUG-CC-PVTZ AUX)
    Blend: AUG-CC-PVTZ-RI
    Molecular point group: c1

    Geometry (in Angstrom), charge = 0, multiplicity = 1:

       Center              X                  Y                   Z               Mass
    ------------   -----------------  -----------------  -----------------  -----------------
         O           -2.876058939209     0.479426837024    -0.301414906547    15.994914619570
         O           -0.522492939209     1.555355837024     0.058567093453    15.994914619570
         N            0.655824060791    -0.356710162976    -0.332337906547    14.003074004430
         C            1.964318060791     0.244810837024    -0.092006906547    12.000000000000
         C           -1.801644939209    -0.432545162976    -0.366182906547    12.000000000000
         C            3.006353060791    -0.489171162976    -0.920462906547    12.000000000000
         C            2.292573060791     0.248994837024     1.396916093453    12.000000000000
         C           -0.488922139209     0.145657737024    -0.231520206547    12.000000000000
         C           -1.972843939209    -1.494231162976     0.713937093453    12.000000000000
         H            1.878392060791     1.279105837024    -0.436506906547     1.007825032230
         H            0.603099060791    -1.364288162976    -0.432884906547     1.007825032230
         H           -1.787318939209    -0.910950162976    -1.358164906547     1.007825032230
         H            3.990023060791    -0.032906162976    -0.784519906547     1.007825032230
         H            3.080838060791    -1.537137162976    -0.608002906547     1.007825032230
         H            2.752483060791    -0.458940162976    -1.982453906547     1.007825032230
         H            1.522085060791     0.794171837024     1.946729093453     1.007825032230
         H            3.256973060791     0.732579837024     1.579902093453     1.007825032230
         H            2.343469060791    -0.775325162976     1.779472093453     1.007825032230
         H           -2.959483939209    -1.949420162976     0.610779093453     1.007825032230
         H           -1.909446939209    -1.025371162976     1.698596093453     1.007825032230
         H           -1.219737939209    -2.285585162976     0.645751093453     1.007825032230
         H           -2.444638939209     1.349135837024    -0.148419906547     1.007825032230

  Basis Set: AUG-CC-PVTZ
    Blend: AUG-CC-PVTZ
  Basis Set: (AUG-CC-PVTZ AUX)
    Blend: AUG-CC-PVTZ-JKFIT
	 Reference Energy          =    -439.0732633147298998 [Eh]
	 Singles Energy            =      -0.0000000000000000 [Eh]
	 Same-Spin Energy          =      -0.4501505855959349 [Eh]
	 Opposite-Spin Energy      =      -1.4716863098021382 [Eh]
	 Correlation Energy        =      -1.9218368953980731 [Eh]
	 Total Energy              =    -440.9951002101279869 [Eh]

	 ================> DF-SCS-MP2 Energies <==================
	-----------------------------------------------------------
	 SCS Same-Spin Scale       =       0.3333333333333333 [-]
	 SCS Opposite-Spin Scale   =       1.2000000000000000 [-]
	 SCS Same-Spin Energy      =      -0.1500501951986450 [Eh]
	 SCS Opposite-Spin Energy  =      -1.7660235717625659 [Eh]
	 SCS Correlation Energy    =      -1.9160737669612109 [Eh]
	 SCS Total Energy          =    -440.9893370816911329 [Eh]
	-----------------------------------------------------------

  Dipole Moment: [D]
     X:     4.0801      Y:    -4.1382      Z:    -0.2794     Total:     5.8180

*** Psi4 exiting successfully. Buy a developer a beer!
