                               Psi4 1.4a3.dev225

  ==> Input File <==

--------------------------------------------------------------------------
#psi4
#
memory 32 gb

molecule  {
0 1
  O        2.9110620    -0.5703060    -0.4523520
  O        0.5539390    -1.5540470     0.1662040
  N       -0.5943370     0.3369340    -0.3930300
  C       -1.9334822    -0.2381751    -0.1219852
  C        1.8655780     0.3788930    -0.3941620
  C       -2.9513150     0.5221750    -0.9483650
  C       -2.2232580    -0.2086170     1.3682650
  C        0.5443190    -0.3662470    -0.1910430
  C        2.1035320     1.3624180     0.7499890
  H       -1.8664900    -1.2716350    -0.4595930
  H       -0.5281980     1.3181660    -0.6377390
  H        1.8317100     0.9202690    -1.3505730
  H       -3.9433690     0.0896600    -0.7945050
  H       -2.9965010     1.5743390    -0.6446630
  H       -2.7149650     0.4749500    -2.0147890
  H       -1.4563020    -0.7629570     1.9136170
  H       -3.1950150    -0.6709470     1.5682930
  H       -2.2473660     0.8219210     1.7368640
  H        3.0888910     1.8183940     0.6312910
  H        2.0827360     0.8223960     1.7004970
  H        1.3487660     2.1553220     0.7756360
  H        2.4958040    -1.4028240    -0.1381920
units angstrom
no_reorient  #important for SAPT in psi4, default
symmetry c1  #important for SAPT in psi4, default
}

set PROPERTIES_ORIGIN ["COM"]
properties('MP2/aug-cc-pvtz', properties = ['dipole'])
--------------------------------------------------------------------------

    Molecular point group: c1
  Charge       = 0
  Multiplicity = 1
  Basis Set: AUG-CC-PVTZ
    Blend: AUG-CC-PVTZ
  Basis Set: (AUG-CC-PVTZ AUX)
    Blend: AUG-CC-PVTZ-JKFIT

    Orbital Energies [Eh]
    ---------------------

    Doubly Occupied:

       1A    -20.548096     2A    -20.530635     3A    -15.594856
       4A    -11.357017     5A    -11.296955     6A    -11.279085
       7A    -11.233854     8A    -11.229348     9A    -11.221685
      10A     -1.394656    11A     -1.344895    12A     -1.242444
      13A     -1.072866    14A     -1.023424    15A     -0.951294
      16A     -0.892107    17A     -0.820416    18A     -0.792836
      19A     -0.736738    20A     -0.676500    21A     -0.641680
      22A     -0.634030    23A     -0.630009    24A     -0.594988
      25A     -0.582116    26A     -0.570844    27A     -0.556090
      28A     -0.546545    29A     -0.536585    30A     -0.527884
      31A     -0.510280    32A     -0.504721    33A     -0.493925
      34A     -0.445767    35A     -0.430537    36A     -0.401691

  @DF-RHF Final Energy:  -439.13740065685613

   => Energetics <=

    Nuclear Repulsion Energy =            484.8337977891059722
    One-Electron Energy =               -1560.2476005298713062
    Two-Electron Energy =                 636.2764020839091472
    Total Energy =                       -439.1374006568561299
  Basis Set: (AUG-CC-PVTZ AUX)
    Blend: AUG-CC-PVTZ-RI
    Molecular point group: c1

    Geometry (in Angstrom), charge = 0, multiplicity = 1:

       Center              X                  Y                   Z               Mass
    ------------   -----------------  -----------------  -----------------  -----------------
         O            2.851558023857    -0.525130617962    -0.435386222861    15.994914619570
         O            0.494435023857    -1.508871617962     0.183169777139    15.994914619570
         N           -0.653840976143     0.382109382038    -0.376064222861    14.003074004430
         C           -1.992986176143    -0.192999717962    -0.105019422861    12.000000000000
         C            1.806074023857     0.424068382038    -0.377196222861    12.000000000000
         C           -3.010818976143     0.567350382038    -0.931399222861    12.000000000000
         C           -2.282761976143    -0.163441617962     1.385230777139    12.000000000000
         C            0.484815023857    -0.321071617962    -0.174077222861    12.000000000000
         C            2.044028023857     1.407593382038     0.766954777139    12.000000000000
         H           -1.925993976143    -1.226459617962    -0.442627222861     1.007825032230
         H           -0.587701976143     1.363341382038    -0.620773222861     1.007825032230
         H            1.772206023857     0.965444382038    -1.333607222861     1.007825032230
         H           -4.002872976143     0.134835382038    -0.777539222861     1.007825032230
         H           -3.056004976143     1.619514382038    -0.627697222861     1.007825032230
         H           -2.774468976143     0.520125382038    -1.997823222861     1.007825032230
         H           -1.515805976143    -0.717781617962     1.930582777139     1.007825032230
         H           -3.254518976143    -0.625771617962     1.585258777139     1.007825032230
         H           -2.306869976143     0.867096382038     1.753829777139     1.007825032230
         H            3.029387023857     1.863569382038     0.648256777139     1.007825032230
         H            2.023232023857     0.867571382038     1.717462777139     1.007825032230
         H            1.289262023857     2.200497382038     0.792601777139     1.007825032230
         H            2.436300023857    -1.357648617962    -0.121226222861     1.007825032230

  Basis Set: AUG-CC-PVTZ
    Blend: AUG-CC-PVTZ
  Basis Set: (AUG-CC-PVTZ AUX)
    Blend: AUG-CC-PVTZ-JKFIT
	 Reference Energy          =    -439.1374006568561299 [Eh]
	 Singles Energy            =      -0.0000000000000000 [Eh]
	 Same-Spin Energy          =      -0.4459137473107125 [Eh]
	 Opposite-Spin Energy      =      -1.4638186986777333 [Eh]
	 Correlation Energy        =      -1.9097324459884457 [Eh]
	 Total Energy              =    -441.0471331028445547 [Eh]

	 ================> DF-SCS-MP2 Energies <==================
	-----------------------------------------------------------
	 SCS Same-Spin Scale       =       0.3333333333333333 [-]
	 SCS Opposite-Spin Scale   =       1.2000000000000000 [-]
	 SCS Same-Spin Energy      =      -0.1486379157702375 [Eh]
	 SCS Opposite-Spin Energy  =      -1.7565824384132800 [Eh]
	 SCS Correlation Energy    =      -1.9052203541835175 [Eh]
	 SCS Total Energy          =    -441.0426210110396710 [Eh]
	-----------------------------------------------------------

  Dipole Moment: [D]
     X:    -3.4579      Y:     3.1222      Z:    -0.1716     Total:     4.6620

*** Psi4 exiting successfully. Buy a developer a beer!
