                               Psi4 1.3.2 release

  ==> Input File <==

--------------------------------------------------------------------------
#psi4
#
memory 32 gb

molecule  {
0 1
  O       -2.8756320     0.4615000    -0.3051040
  O       -0.5220660     1.5374290     0.0548780
  N        0.6562510    -0.3746370    -0.3360270
  C        1.9951401     0.1567818    -0.0978821
  C       -1.8012180    -0.4504720    -0.3698720
  C        3.0067800    -0.5070980    -0.9241520
  C        2.2930000     0.2310680     1.3932270
  C       -0.4931590     0.3235730    -0.1949090
  C       -1.9724170    -1.5121580     0.7102480
  H        1.8788190     1.2611790    -0.4401960
  H        0.6560752    -1.3842877    -0.4293460
  H       -1.7868920    -0.9288770    -1.3618540
  H        3.9904500    -0.0508330    -0.7882090
  H        3.0812650    -1.5550640    -0.6116920
  H        2.7529100    -0.4768670    -1.9861430
  H        1.5225120     0.7762450     1.9430400
  H        3.2574000     0.7146530     1.5762130
  H        2.3438960    -0.7932520     1.7757830
  H       -2.9590570    -1.9673470     0.6070900
  H       -1.9090200    -1.0432980     1.6949070
  H       -1.2193110    -2.3035120     0.6420620
  H       -2.4442120     1.3312090    -0.1521090
units angstrom
no_reorient  #important for SAPT in psi4, default
symmetry c1  #important for SAPT in psi4, default
}

set PROPERTIES_ORIGIN ["COM"]
properties('MP2/aug-cc-pvtz', properties = ['dipole'])
--------------------------------------------------------------------------

    Molecular point group: c1
  Charge       = 0
  Multiplicity = 1
  Basis Set: AUG-CC-PVTZ
    Blend: AUG-CC-PVTZ
  Basis Set: (AUG-CC-PVTZ AUX)
    Blend: AUG-CC-PVTZ-JKFIT

    Orbital Energies [Eh]
    ---------------------

    Doubly Occupied:

       1A    -20.547859     2A    -20.533245     3A    -15.596120
       4A    -11.360718     5A    -11.297563     6A    -11.279063
       7A    -11.232151     8A    -11.230322     9A    -11.223076
      10A     -1.397346    11A     -1.345945    12A     -1.249086
      13A     -1.077999    14A     -1.025436    15A     -0.955509
      16A     -0.896459    17A     -0.817390    18A     -0.794740
      19A     -0.737014    20A     -0.676061    21A     -0.647816
      22A     -0.636167    23A     -0.631556    24A     -0.598349
      25A     -0.584237    26A     -0.567900    27A     -0.555406
      28A     -0.548432    29A     -0.540113    30A     -0.529486
      31A     -0.515391    32A     -0.510473    33A     -0.473185
      34A     -0.444787    35A     -0.434941    36A     -0.400621

  @DF-RHF Final Energy:  -439.12882397495201

   => Energetics <=

    Nuclear Repulsion Energy =            485.3976753464884268
    One-Electron Energy =               -1561.2690684945689554
    Two-Electron Energy =                 636.7425691731286861
    Total Energy =                       -439.1288239749519562
  Basis Set: (AUG-CC-PVTZ AUX)
    Blend: AUG-CC-PVTZ-RI
    Molecular point group: c1

    Geometry (in Angstrom), charge = 0, multiplicity = 1:

       Center              X                  Y                   Z               Mass
    ------------   -----------------  -----------------  -----------------  -----------------
         O           -2.878818289480     0.467932926889    -0.304959330632    15.994914619570
         O           -0.525252289480     1.543861926889     0.055022669368    15.994914619570
         N            0.653064710520    -0.368204073111    -0.335882330632    14.003074004430
         C            1.991953810520     0.163214726889    -0.097737430632    12.000000000000
         C           -1.804404289480    -0.444039073111    -0.369727330632    12.000000000000
         C            3.003593710520    -0.500665073111    -0.924007330632    12.000000000000
         C            2.289813710520     0.237500926889     1.393371669368    12.000000000000
         C           -0.496345289480     0.330005926889    -0.194764330632    12.000000000000
         C           -1.975603289480    -1.505725073111     0.710392669368    12.000000000000
         H            1.875632710520     1.267611926889    -0.440051330632     1.007825032230
         H            0.652888910520    -1.377854773111    -0.429201330632     1.007825032230
         H           -1.790078289480    -0.922444073111    -1.361709330632     1.007825032230
         H            3.987263710520    -0.044400073111    -0.788064330632     1.007825032230
         H            3.078078710520    -1.548631073111    -0.611547330632     1.007825032230
         H            2.749723710520    -0.470434073111    -1.985998330632     1.007825032230
         H            1.519325710520     0.782677926889     1.943184669368     1.007825032230
         H            3.254213710520     0.721085926889     1.576357669368     1.007825032230
         H            2.340709710520    -0.786819073111     1.775927669368     1.007825032230
         H           -2.962243289480    -1.960914073111     0.607234669368     1.007825032230
         H           -1.912206289480    -1.036865073111     1.695051669368     1.007825032230
         H           -1.222497289480    -2.297079073111     0.642206669368     1.007825032230
         H           -2.447398289480     1.337641926889    -0.151964330632     1.007825032230

  Basis Set: AUG-CC-PVTZ
    Blend: AUG-CC-PVTZ
  Basis Set: (AUG-CC-PVTZ AUX)
    Blend: AUG-CC-PVTZ-JKFIT
	 Reference Energy          =    -439.1288239749520130 [Eh]
	 Singles Energy            =      -0.0000000000000000 [Eh]
	 Same-Spin Energy          =      -0.4468041746255503 [Eh]
	 Opposite-Spin Energy      =      -1.4648337516855681 [Eh]
	 Correlation Energy        =      -1.9116379263111183 [Eh]
	 Total Energy              =    -441.0404619012631429 [Eh]

	 ================> DF-SCS-MP2 Energies <==================
	-----------------------------------------------------------
	 SCS Same-Spin Scale       =       0.3333333333333333 [-]
	 SCS Opposite-Spin Scale   =       1.2000000000000000 [-]
	 SCS Same-Spin Energy      =      -0.1489347248751834 [Eh]
	 SCS Opposite-Spin Energy  =      -1.7578005020226817 [Eh]
	 SCS Correlation Energy    =      -1.9067352268978652 [Eh]
	 SCS Total Energy          =    -441.0355592018498783 [Eh]
	-----------------------------------------------------------

  Dipole Moment: [D]
     X:     3.5187      Y:    -3.0836      Z:    -0.1562     Total:     4.6813

*** Psi4 exiting successfully. Buy a developer a beer!
