                               Psi4 1.4a3.dev225

  ==> Input File <==

--------------------------------------------------------------------------
#psi4
#
memory 32 gb

molecule  {
0 1
  O        2.9110620    -0.5703060    -0.4523520
  O        0.5539390    -1.5540470     0.1662040
  N       -0.5943370     0.3369340    -0.3930300
  C       -1.9154150    -0.2304160    -0.1256420
  C        1.8655780     0.3788930    -0.3941620
  C       -2.9513150     0.5221750    -0.9483650
  C       -2.2232580    -0.2086170     1.3682650
  C        0.5274929    -0.3558560    -0.1940278
  C        2.1035320     1.3624180     0.7499890
  H       -1.8664900    -1.2716350    -0.4595930
  H       -0.5281980     1.3181660    -0.6377390
  H        1.8317100     0.9202690    -1.3505730
  H       -3.9433690     0.0896600    -0.7945050
  H       -2.9965010     1.5743390    -0.6446630
  H       -2.7149650     0.4749500    -2.0147890
  H       -1.4563020    -0.7629570     1.9136170
  H       -3.1950150    -0.6709470     1.5682930
  H       -2.2473660     0.8219210     1.7368640
  H        3.0888910     1.8183940     0.6312910
  H        2.0827360     0.8223960     1.7004970
  H        1.3487660     2.1553220     0.7756360
  H        2.4958040    -1.4028240    -0.1381920
units angstrom
no_reorient  #important for SAPT in psi4, default
symmetry c1  #important for SAPT in psi4, default
}

set PROPERTIES_ORIGIN ["COM"]
properties('MP2/aug-cc-pvtz', properties = ['dipole'])
--------------------------------------------------------------------------

    Molecular point group: c1
  Charge       = 0
  Multiplicity = 1
  Basis Set: AUG-CC-PVTZ
    Blend: AUG-CC-PVTZ
  Basis Set: (AUG-CC-PVTZ AUX)
    Blend: AUG-CC-PVTZ-JKFIT

    Orbital Energies [Eh]
    ---------------------

    Doubly Occupied:

       1A    -20.547743     2A    -20.527743     3A    -15.599730
       4A    -11.356762     5A    -11.297317     6A    -11.279874
       7A    -11.234874     8A    -11.229119     9A    -11.222291
      10A     -1.390191    11A     -1.343294    12A     -1.251966
      13A     -1.073580    14A     -1.023269    15A     -0.950969
      16A     -0.892670    17A     -0.823186    18A     -0.799505
      19A     -0.735443    20A     -0.677745    21A     -0.642588
      22A     -0.634366    23A     -0.628874    24A     -0.595195
      25A     -0.581484    26A     -0.570548    27A     -0.556446
      28A     -0.549304    29A     -0.536926    30A     -0.528688
      31A     -0.509271    32A     -0.501972    33A     -0.491908
      34A     -0.444895    35A     -0.429006    36A     -0.403130

  @DF-RHF Final Energy:  -439.13676480583808

   => Energetics <=

    Nuclear Repulsion Energy =            485.1018797383381980
    One-Electron Energy =               -1560.7535446746567231
    Two-Electron Energy =                 636.5149001304803278
    Total Energy =                       -439.1367648058380837
  Basis Set: (AUG-CC-PVTZ AUX)
    Blend: AUG-CC-PVTZ-RI
    Molecular point group: c1

    Geometry (in Angstrom), charge = 0, multiplicity = 1:

       Center              X                  Y                   Z               Mass
    ------------   -----------------  -----------------  -----------------  -----------------
         O            2.851444417372    -0.526792022417    -0.434778271179    15.994914619570
         O            0.494321417372    -1.510533022417     0.183777728821    15.994914619570
         N           -0.653954582628     0.380447977583    -0.375456271179    14.003074004430
         C           -1.975032582628    -0.186902022417    -0.108068271179    12.000000000000
         C            1.805960417372     0.422406977583    -0.376588271179    12.000000000000
         C           -3.010932582628     0.565688977583    -0.930791271179    12.000000000000
         C           -2.282875582628    -0.165103022417     1.385838728821    12.000000000000
         C            0.467875317372    -0.312342022417    -0.176454071179    12.000000000000
         C            2.043914417372     1.405931977583     0.767562728821    12.000000000000
         H           -1.926107582628    -1.228121022417    -0.442019271179     1.007825032230
         H           -0.587815582628     1.361679977583    -0.620165271179     1.007825032230
         H            1.772092417372     0.963782977583    -1.332999271179     1.007825032230
         H           -4.002986582628     0.133173977583    -0.776931271179     1.007825032230
         H           -3.056118582628     1.617852977583    -0.627089271179     1.007825032230
         H           -2.774582582628     0.518463977583    -1.997215271179     1.007825032230
         H           -1.515919582628    -0.719443022417     1.931190728821     1.007825032230
         H           -3.254632582628    -0.627433022417     1.585866728821     1.007825032230
         H           -2.306983582628     0.865434977583     1.754437728821     1.007825032230
         H            3.029273417372     1.861907977583     0.648864728821     1.007825032230
         H            2.023118417372     0.865909977583     1.718070728821     1.007825032230
         H            1.289148417372     2.198835977583     0.793209728821     1.007825032230
         H            2.436186417372    -1.359310022417    -0.120618271179     1.007825032230

  Basis Set: AUG-CC-PVTZ
    Blend: AUG-CC-PVTZ
  Basis Set: (AUG-CC-PVTZ AUX)
    Blend: AUG-CC-PVTZ-JKFIT
	 Reference Energy          =    -439.1367648058380837 [Eh]
	 Singles Energy            =      -0.0000000000000000 [Eh]
	 Same-Spin Energy          =      -0.4460800459270587 [Eh]
	 Opposite-Spin Energy      =      -1.4640067752262691 [Eh]
	 Correlation Energy        =      -1.9100868211533277 [Eh]
	 Total Energy              =    -441.0468516269913835 [Eh]

	 ================> DF-SCS-MP2 Energies <==================
	-----------------------------------------------------------
	 SCS Same-Spin Scale       =       0.3333333333333333 [-]
	 SCS Opposite-Spin Scale   =       1.2000000000000000 [-]
	 SCS Same-Spin Energy      =      -0.1486933486423529 [Eh]
	 SCS Opposite-Spin Energy  =      -1.7568081302715228 [Eh]
	 SCS Correlation Energy    =      -1.9055014789138758 [Eh]
	 SCS Total Energy          =    -441.0422662847519746 [Eh]
	-----------------------------------------------------------

  Dipole Moment: [D]
     X:    -3.5345      Y:     3.2073      Z:    -0.2057     Total:     4.7772

*** Psi4 exiting successfully. Buy a developer a beer!
