                               Psi4 1.3.2 release

  ==> Input File <==

--------------------------------------------------------------------------
#psi4
#
memory 32 gb

molecule  {
0 1
  O       -2.8756320     0.4615000    -0.3051040
  O       -0.5220660     1.5374290     0.0548780
  N        0.6562510    -0.3746370    -0.3360270
  C        1.9647450     0.2268840    -0.0956960
  C       -1.8012180    -0.4504720    -0.3698720
  C        3.0067800    -0.5070980    -0.9241520
  C        2.2930000     0.2310680     1.3932270
  C       -0.3231582     0.2203059    -0.2157807
  C       -1.9724170    -1.5121580     0.7102480
  H        1.8788190     1.2611790    -0.4401960
  H        0.6035260    -1.3822150    -0.4365740
  H       -1.7868920    -0.9288770    -1.3618540
  H        3.9904500    -0.0508330    -0.7882090
  H        3.0812650    -1.5550640    -0.6116920
  H        2.7529100    -0.4768670    -1.9861430
  H        1.5225120     0.7762450     1.9430400
  H        3.2574000     0.7146530     1.5762130
  H        2.3438960    -0.7932520     1.7757830
  H       -2.9590570    -1.9673470     0.6070900
  H       -1.9090200    -1.0432980     1.6949070
  H       -1.2193110    -2.3035120     0.6420620
  H       -2.4442120     1.3312090    -0.1521090
units angstrom
no_reorient  #important for SAPT in psi4, default
symmetry c1  #important for SAPT in psi4, default
}

set PROPERTIES_ORIGIN ["COM"]
properties('MP2/aug-cc-pvtz', properties = ['dipole'])
--------------------------------------------------------------------------

    Molecular point group: c1
  Charge       = 0
  Multiplicity = 1
  Basis Set: AUG-CC-PVTZ
    Blend: AUG-CC-PVTZ
  Basis Set: (AUG-CC-PVTZ AUX)
    Blend: AUG-CC-PVTZ-JKFIT

    Orbital Energies [Eh]
    ---------------------

    Doubly Occupied:

       1A    -20.539430     2A    -20.492451     3A    -15.626261
       4A    -11.339022     5A    -11.296054     6A    -11.294352
       7A    -11.245812     8A    -11.234814     9A    -11.224403
      10A     -1.393721    11A     -1.344200    12A     -1.243154
      13A     -1.099865    14A     -1.018609    15A     -0.963727
      16A     -0.895915    17A     -0.847463    18A     -0.832098
      19A     -0.721428    20A     -0.684654    21A     -0.659113
      22A     -0.640293    23A     -0.626768    24A     -0.587933
      25A     -0.574953    26A     -0.568631    27A     -0.563148
      28A     -0.555478    29A     -0.549024    30A     -0.530102
      31A     -0.511140    32A     -0.500380    33A     -0.469279
      34A     -0.433853    35A     -0.400437    36A     -0.393036

  @DF-RHF Final Energy:  -439.06404906283444

   => Energetics <=

    Nuclear Repulsion Energy =            486.1280257968650744
    One-Electron Energy =               -1562.5821458070215613
    Two-Electron Energy =                 637.3900709473219877
    Total Energy =                       -439.0640490628344423
  Basis Set: (AUG-CC-PVTZ AUX)
    Blend: AUG-CC-PVTZ-RI
    Molecular point group: c1

    Geometry (in Angstrom), charge = 0, multiplicity = 1:

       Center              X                  Y                   Z               Mass
    ------------   -----------------  -----------------  -----------------  -----------------
         O           -2.891193380797     0.470952805621    -0.303193340967    15.994914619570
         O           -0.537627380797     1.546881805621     0.056788659033    15.994914619570
         N            0.640689619203    -0.365184194379    -0.334116340967    14.003074004430
         C            1.949183619203     0.236336805621    -0.093785340967    12.000000000000
         C           -1.816779380797    -0.441019194379    -0.367961340967    12.000000000000
         C            2.991218619203    -0.497645194379    -0.922241340967    12.000000000000
         C            2.277438619203     0.240520805621     1.395137659033    12.000000000000
         C           -0.338719580797     0.229758705621    -0.213870040967    12.000000000000
         C           -1.987978380797    -1.502705194379     0.712158659033    12.000000000000
         H            1.863257619203     1.270631805621    -0.438285340967     1.007825032230
         H            0.587964619203    -1.372762194379    -0.434663340967     1.007825032230
         H           -1.802453380797    -0.919424194379    -1.359943340967     1.007825032230
         H            3.974888619203    -0.041380194379    -0.786298340967     1.007825032230
         H            3.065703619203    -1.545611194379    -0.609781340967     1.007825032230
         H            2.737348619203    -0.467414194379    -1.984232340967     1.007825032230
         H            1.506950619203     0.785697805621     1.944950659033     1.007825032230
         H            3.241838619203     0.724105805621     1.578123659033     1.007825032230
         H            2.328334619203    -0.783799194379     1.777693659033     1.007825032230
         H           -2.974618380797    -1.957894194379     0.609000659033     1.007825032230
         H           -1.924581380797    -1.033845194379     1.696817659033     1.007825032230
         H           -1.234872380797    -2.294059194379     0.643972659033     1.007825032230
         H           -2.459773380797     1.340661805621    -0.150198340967     1.007825032230

  Basis Set: AUG-CC-PVTZ
    Blend: AUG-CC-PVTZ
  Basis Set: (AUG-CC-PVTZ AUX)
    Blend: AUG-CC-PVTZ-JKFIT
	 Reference Energy          =    -439.0640490628344423 [Eh]
	 Singles Energy            =      -0.0000000000000000 [Eh]
	 Same-Spin Energy          =      -0.4476435836850104 [Eh]
	 Opposite-Spin Energy      =      -1.4663908796316623 [Eh]
	 Correlation Energy        =      -1.9140344633166726 [Eh]
	 Total Energy              =    -440.9780835261511243 [Eh]

	 ================> DF-SCS-MP2 Energies <==================
	-----------------------------------------------------------
	 SCS Same-Spin Scale       =       0.3333333333333333 [-]
	 SCS Opposite-Spin Scale   =       1.2000000000000000 [-]
	 SCS Same-Spin Energy      =      -0.1492145278950035 [Eh]
	 SCS Opposite-Spin Energy  =      -1.7596690555579946 [Eh]
	 SCS Correlation Energy    =      -1.9088835834529980 [Eh]
	 SCS Total Energy          =    -440.9729326462874610 [Eh]
	-----------------------------------------------------------

  Dipole Moment: [D]
     X:     4.8144      Y:    -3.9167      Z:    -0.2756     Total:     6.2124

*** Psi4 exiting successfully. Buy a developer a beer!
