                               Psi4 1.3.2 release

  ==> Input File <==

--------------------------------------------------------------------------
#psi4
#
memory 32 gb

molecule  {
0 1
  O       -2.8756320     0.4615000    -0.3051040
  O       -0.5220660     1.5374290     0.0548780
  N        0.6562510    -0.3746370    -0.3360270
  C        1.9647450     0.2268840    -0.0956960
  C       -1.8012180    -0.4504720    -0.3698720
  C        3.0067800    -0.5070980    -0.9241520
  C        2.2930000     0.2310680     1.3932270
  C       -0.4806325     0.3435328    -0.1936089
  C       -1.9724170    -1.5121580     0.7102480
  H        1.8788190     1.2611790    -0.4401960
  H        0.6211743    -1.3828703    -0.4377046
  H       -1.7868920    -0.9288770    -1.3618540
  H        3.9904500    -0.0508330    -0.7882090
  H        3.0812650    -1.5550640    -0.6116920
  H        2.7529100    -0.4768670    -1.9861430
  H        1.5225120     0.7762450     1.9430400
  H        3.2574000     0.7146530     1.5762130
  H        2.3438960    -0.7932520     1.7757830
  H       -2.9590570    -1.9673470     0.6070900
  H       -1.9090200    -1.0432980     1.6949070
  H       -1.2193110    -2.3035120     0.6420620
  H       -2.4442120     1.3312090    -0.1521090
units angstrom
no_reorient  #important for SAPT in psi4, default
symmetry c1  #important for SAPT in psi4, default
}

set PROPERTIES_ORIGIN ["COM"]
properties('MP2/aug-cc-pvtz', properties = ['dipole'])
--------------------------------------------------------------------------

    Molecular point group: c1
  Charge       = 0
  Multiplicity = 1
  Basis Set: AUG-CC-PVTZ
    Blend: AUG-CC-PVTZ
  Basis Set: (AUG-CC-PVTZ AUX)
    Blend: AUG-CC-PVTZ-JKFIT

    Orbital Energies [Eh]
    ---------------------

    Doubly Occupied:

       1A    -20.546956     2A    -20.535491     3A    -15.594206
       4A    -11.357198     5A    -11.295954     6A    -11.276305
       7A    -11.232141     8A    -11.229245     9A    -11.222279
      10A     -1.406338    11A     -1.347621    12A     -1.249620
      13A     -1.070171    14A     -1.021294    15A     -0.949886
      16A     -0.890907    17A     -0.820683    18A     -0.797341
      19A     -0.734985    20A     -0.679377    21A     -0.649049
      22A     -0.635525    23A     -0.628645    24A     -0.599833
      25A     -0.581121    26A     -0.566160    27A     -0.555256
      28A     -0.547569    29A     -0.540293    30A     -0.531240
      31A     -0.514175    32A     -0.504216    33A     -0.492136
      34A     -0.444025    35A     -0.431649    36A     -0.402437

  @DF-RHF Final Energy:  -439.13870143100451

   => Energetics <=

    Nuclear Repulsion Energy =            485.4104373718002989
    One-Electron Energy =               -1561.3356246208400080
    Two-Electron Energy =                 636.7864858180352030
    Total Energy =                       -439.1387014310045060
  Basis Set: (AUG-CC-PVTZ AUX)
    Blend: AUG-CC-PVTZ-RI
    Molecular point group: c1

    Geometry (in Angstrom), charge = 0, multiplicity = 1:

       Center              X                  Y                   Z               Mass
    ------------   -----------------  -----------------  -----------------  -----------------
         O           -2.876914342666     0.459678031152    -0.305214187708    15.994914619570
         O           -0.523348342666     1.535607031152     0.054767812292    15.994914619570
         N            0.654968657334    -0.376458968848    -0.336137187708    14.003074004430
         C            1.963462657334     0.225062031152    -0.095806187708    12.000000000000
         C           -1.802500342666    -0.452293968848    -0.369982187708    12.000000000000
         C            3.005497657334    -0.508919968848    -0.924262187708    12.000000000000
         C            2.291717657334     0.229246031152     1.393116812292    12.000000000000
         C           -0.481914842666     0.341710831152    -0.193719087708    12.000000000000
         C           -1.973699342666    -1.513979968848     0.710137812292    12.000000000000
         H            1.877536657334     1.259357031152    -0.440306187708     1.007825032230
         H            0.619891957334    -1.384692268848    -0.437814787708     1.007825032230
         H           -1.788174342666    -0.930698968848    -1.361964187708     1.007825032230
         H            3.989167657334    -0.052654968848    -0.788319187708     1.007825032230
         H            3.079982657334    -1.556885968848    -0.611802187708     1.007825032230
         H            2.751627657334    -0.478688968848    -1.986253187708     1.007825032230
         H            1.521229657334     0.774423031152     1.942929812292     1.007825032230
         H            3.256117657334     0.712831031152     1.576102812292     1.007825032230
         H            2.342613657334    -0.795073968848     1.775672812292     1.007825032230
         H           -2.960339342666    -1.969168968848     0.606979812292     1.007825032230
         H           -1.910302342666    -1.045119968848     1.694796812292     1.007825032230
         H           -1.220593342666    -2.305333968848     0.641951812292     1.007825032230
         H           -2.445494342666     1.329387031152    -0.152219187708     1.007825032230

  Basis Set: AUG-CC-PVTZ
    Blend: AUG-CC-PVTZ
  Basis Set: (AUG-CC-PVTZ AUX)
    Blend: AUG-CC-PVTZ-JKFIT
	 Reference Energy          =    -439.1387014310045060 [Eh]
	 Singles Energy            =      -0.0000000000000000 [Eh]
	 Same-Spin Energy          =      -0.4455769886593116 [Eh]
	 Opposite-Spin Energy      =      -1.4627666027529407 [Eh]
	 Correlation Energy        =      -1.9083435914122524 [Eh]
	 Total Energy              =    -441.0470450224167394 [Eh]

	 ================> DF-SCS-MP2 Energies <==================
	-----------------------------------------------------------
	 SCS Same-Spin Scale       =       0.3333333333333333 [-]
	 SCS Opposite-Spin Scale   =       1.2000000000000000 [-]
	 SCS Same-Spin Energy      =      -0.1485256628864372 [Eh]
	 SCS Opposite-Spin Energy  =      -1.7553199233035288 [Eh]
	 SCS Correlation Energy    =      -1.9038455861899659 [Eh]
	 SCS Total Energy          =    -441.0425470171944653 [Eh]
	-----------------------------------------------------------

  Dipole Moment: [D]
     X:     3.4936      Y:    -2.9563      Z:    -0.1364     Total:     4.5786

*** Psi4 exiting successfully. Buy a developer a beer!
