                               Psi4 1.3.2 release

  ==> Input File <==

--------------------------------------------------------------------------
#psi4
#
memory 32 gb

molecule  {
0 1
  O       -2.8756320     0.4615000    -0.3051040
  O       -0.5868857     1.5343126     0.0540901
  N        0.6173957    -0.4325839    -0.3480422
  C        1.9647450     0.2268840    -0.0956960
  C       -1.8012180    -0.4504720    -0.3698720
  C        3.0067800    -0.5070980    -0.9241520
  C        2.2930000     0.2310680     1.3932270
  C       -0.4931590     0.3235730    -0.1949090
  C       -1.9724170    -1.5121580     0.7102480
  H        1.8788190     1.2611790    -0.4401960
  H        0.6035260    -1.3822150    -0.4365740
  H       -1.7868920    -0.9288770    -1.3618540
  H        3.9904500    -0.0508330    -0.7882090
  H        3.0812650    -1.5550640    -0.6116920
  H        2.7529100    -0.4768670    -1.9861430
  H        1.5225120     0.7762450     1.9430400
  H        3.2574000     0.7146530     1.5762130
  H        2.3438960    -0.7932520     1.7757830
  H       -2.9590570    -1.9673470     0.6070900
  H       -1.9090200    -1.0432980     1.6949070
  H       -1.2193110    -2.3035120     0.6420620
  H       -2.4442120     1.3312090    -0.1521090
units angstrom
no_reorient  #important for SAPT in psi4, default
symmetry c1  #important for SAPT in psi4, default
}

set PROPERTIES_ORIGIN ["COM"]
properties('MP2/aug-cc-pvtz', properties = ['dipole'])
--------------------------------------------------------------------------

    Molecular point group: c1
  Charge       = 0
  Multiplicity = 1
  Basis Set: AUG-CC-PVTZ
    Blend: AUG-CC-PVTZ
  Basis Set: (AUG-CC-PVTZ AUX)
    Blend: AUG-CC-PVTZ-JKFIT

    Orbital Energies [Eh]
    ---------------------

    Doubly Occupied:

       1A    -20.540879     2A    -20.536416     3A    -15.595131
       4A    -11.359852     5A    -11.289664     6A    -11.284938
       7A    -11.234636     8A    -11.227282     9A    -11.226261
      10A     -1.397373    11A     -1.339210    12A     -1.250254
      13A     -1.074042    14A     -1.021408    15A     -0.952334
      16A     -0.891422    17A     -0.824344    18A     -0.805239
      19A     -0.732895    20A     -0.677967    21A     -0.647761
      22A     -0.636362    23A     -0.627788    24A     -0.601266
      25A     -0.579489    26A     -0.564216    27A     -0.557467
      28A     -0.545241    29A     -0.539290    30A     -0.528374
      31A     -0.508640    32A     -0.504060    33A     -0.494367
      34A     -0.440841    35A     -0.430567    36A     -0.408734

  @DF-RHF Final Energy:  -439.13053031701406

   => Energetics <=

    Nuclear Repulsion Energy =            484.7207686898890415
    One-Electron Energy =               -1559.9505749619358994
    Two-Electron Energy =                 636.0992759550329083
    Total Energy =                       -439.1305303170140633
  Basis Set: (AUG-CC-PVTZ AUX)
    Blend: AUG-CC-PVTZ-RI
    Molecular point group: c1

    Geometry (in Angstrom), charge = 0, multiplicity = 1:

       Center              X                  Y                   Z               Mass
    ------------   -----------------  -----------------  -----------------  -----------------
         O           -2.863572959995     0.468069972641    -0.303724318268    15.994914619570
         O           -0.574826659995     1.540882572641     0.055469781732    15.994914619570
         N            0.629454740005    -0.426013927359    -0.346662518268    14.003074004430
         C            1.976804040005     0.233453972641    -0.094316318268    12.000000000000
         C           -1.789158959995    -0.443902027359    -0.368492318268    12.000000000000
         C            3.018839040005    -0.500528027359    -0.922772318268    12.000000000000
         C            2.305059040005     0.237637972641     1.394606681732    12.000000000000
         C           -0.481099959995     0.330142972641    -0.193529318268    12.000000000000
         C           -1.960357959995    -1.505588027359     0.711627681732    12.000000000000
         H            1.890878040005     1.267748972641    -0.438816318268     1.007825032230
         H            0.615585040005    -1.375645027359    -0.435194318268     1.007825032230
         H           -1.774832959995    -0.922307027359    -1.360474318268     1.007825032230
         H            4.002509040005    -0.044263027359    -0.786829318268     1.007825032230
         H            3.093324040005    -1.548494027359    -0.610312318268     1.007825032230
         H            2.764969040005    -0.470297027359    -1.984763318268     1.007825032230
         H            1.534571040005     0.782814972641     1.944419681732     1.007825032230
         H            3.269459040005     0.721222972641     1.577592681732     1.007825032230
         H            2.355955040005    -0.786682027359     1.777162681732     1.007825032230
         H           -2.946997959995    -1.960777027359     0.608469681732     1.007825032230
         H           -1.896960959995    -1.036728027359     1.696286681732     1.007825032230
         H           -1.207251959995    -2.296942027359     0.643441681732     1.007825032230
         H           -2.432152959995     1.337778972641    -0.150729318268     1.007825032230

  Basis Set: AUG-CC-PVTZ
    Blend: AUG-CC-PVTZ
  Basis Set: (AUG-CC-PVTZ AUX)
    Blend: AUG-CC-PVTZ-JKFIT
	 Reference Energy          =    -439.1305303170140633 [Eh]
	 Singles Energy            =      -0.0000000000000000 [Eh]
	 Same-Spin Energy          =      -0.4456178683387765 [Eh]
	 Opposite-Spin Energy      =      -1.4633973460548151 [Eh]
	 Correlation Energy        =      -1.9090152143935917 [Eh]
	 Total Energy              =    -441.0395455314076685 [Eh]

	 ================> DF-SCS-MP2 Energies <==================
	-----------------------------------------------------------
	 SCS Same-Spin Scale       =       0.3333333333333333 [-]
	 SCS Opposite-Spin Scale   =       1.2000000000000000 [-]
	 SCS Same-Spin Energy      =      -0.1485392894462588 [Eh]
	 SCS Opposite-Spin Energy  =      -1.7560768152657780 [Eh]
	 SCS Correlation Energy    =      -1.9046161047120367 [Eh]
	 SCS Total Energy          =    -441.0351464217260968 [Eh]
	-----------------------------------------------------------

  Dipole Moment: [D]
     X:     3.8513      Y:    -2.9416      Z:    -0.0960     Total:     4.8471

*** Psi4 exiting successfully. Buy a developer a beer!
