                               Psi4 1.3.2 release

  ==> Input File <==

--------------------------------------------------------------------------
#psi4
#
memory 32 gb

molecule  {
0 1
  O       -2.8913701     0.4428649    -0.3084648
  O       -0.5220660     1.5374290     0.0548780
  N        0.6562510    -0.3746370    -0.3360270
  C        1.9647450     0.2268840    -0.0956960
  C       -1.8012180    -0.4504720    -0.3698720
  C        3.0067800    -0.5070980    -0.9241520
  C        2.2930000     0.2310680     1.3932270
  C       -0.4795823     0.3006997    -0.1972562
  C       -1.9724170    -1.5121580     0.7102480
  H        1.8788190     1.2611790    -0.4401960
  H        0.6035260    -1.3822150    -0.4365740
  H       -1.7868920    -0.9288770    -1.3618540
  H        3.9904500    -0.0508330    -0.7882090
  H        3.0812650    -1.5550640    -0.6116920
  H        2.7529100    -0.4768670    -1.9861430
  H        1.5225120     0.7762450     1.9430400
  H        3.2574000     0.7146530     1.5762130
  H        2.3438960    -0.7932520     1.7757830
  H       -2.9590570    -1.9673470     0.6070900
  H       -1.9090200    -1.0432980     1.6949070
  H       -1.2193110    -2.3035120     0.6420620
  H       -2.4442120     1.3312090    -0.1521090
units angstrom
no_reorient  #important for SAPT in psi4, default
symmetry c1  #important for SAPT in psi4, default
}

set PROPERTIES_ORIGIN ["COM"]
properties('MP2/aug-cc-pvtz', properties = ['dipole'])
--------------------------------------------------------------------------

    Molecular point group: c1
  Charge       = 0
  Multiplicity = 1
  Basis Set: AUG-CC-PVTZ
    Blend: AUG-CC-PVTZ
  Basis Set: (AUG-CC-PVTZ AUX)
    Blend: AUG-CC-PVTZ-JKFIT

    Orbital Energies [Eh]
    ---------------------

    Doubly Occupied:

       1A    -20.549222     2A    -20.527340     3A    -15.601184
       4A    -11.358252     5A    -11.296933     6A    -11.279970
       7A    -11.234308     8A    -11.230059     9A    -11.224025
      10A     -1.386302    11A     -1.339646    12A     -1.253175
      13A     -1.075831    14A     -1.023931    15A     -0.951780
      16A     -0.895567    17A     -0.824749    18A     -0.800206
      19A     -0.733094    20A     -0.677740    21A     -0.649318
      22A     -0.631425    23A     -0.627292    24A     -0.596515
      25A     -0.580265    26A     -0.565172    27A     -0.556928
      28A     -0.549846    29A     -0.539079    30A     -0.529452
      31A     -0.508709    32A     -0.502494    33A     -0.492159
      34A     -0.442844    35A     -0.432219    36A     -0.403243

  @DF-RHF Final Energy:  -439.13295851412386

   => Energetics <=

    Nuclear Repulsion Energy =            485.0376012792387996
    One-Electron Energy =               -1560.6005678850704044
    Two-Electron Energy =                 636.4300080917078049
    Total Energy =                       -439.1329585141238567
  Basis Set: (AUG-CC-PVTZ AUX)
    Blend: AUG-CC-PVTZ-RI
    Molecular point group: c1

    Geometry (in Angstrom), charge = 0, multiplicity = 1:

       Center              X                  Y                   Z               Mass
    ------------   -----------------  -----------------  -----------------  -----------------
         O           -2.890692686061     0.447232380819    -0.307839764129    15.994914619570
         O           -0.521388586061     1.541796480819     0.055503035871    15.994914619570
         N            0.656928413939    -0.370269519181    -0.335401964129    14.003074004430
         C            1.965422413939     0.231251480819    -0.095070964129    12.000000000000
         C           -1.800540586061    -0.446104519181    -0.369246964129    12.000000000000
         C            3.007457413939    -0.502730519181    -0.923526964129    12.000000000000
         C            2.293677413939     0.235435480819     1.393852035871    12.000000000000
         C           -0.478904886061     0.305067180819    -0.196631164129    12.000000000000
         C           -1.971739586061    -1.507790519181     0.710873035871    12.000000000000
         H            1.879496413939     1.265546480819    -0.439570964129     1.007825032230
         H            0.604203413939    -1.377847519181    -0.435948964129     1.007825032230
         H           -1.786214586061    -0.924509519181    -1.361228964129     1.007825032230
         H            3.991127413939    -0.046465519181    -0.787583964129     1.007825032230
         H            3.081942413939    -1.550696519181    -0.611066964129     1.007825032230
         H            2.753587413939    -0.472499519181    -1.985517964129     1.007825032230
         H            1.523189413939     0.780612480819     1.943665035871     1.007825032230
         H            3.258077413939     0.719020480819     1.576838035871     1.007825032230
         H            2.344573413939    -0.788884519181     1.776408035871     1.007825032230
         H           -2.958379586061    -1.962979519181     0.607715035871     1.007825032230
         H           -1.908342586061    -1.038930519181     1.695532035871     1.007825032230
         H           -1.218633586061    -2.299144519181     0.642687035871     1.007825032230
         H           -2.443534586061     1.335576480819    -0.151483964129     1.007825032230

  Basis Set: AUG-CC-PVTZ
    Blend: AUG-CC-PVTZ
  Basis Set: (AUG-CC-PVTZ AUX)
    Blend: AUG-CC-PVTZ-JKFIT
	 Reference Energy          =    -439.1329585141238567 [Eh]
	 Singles Energy            =      -0.0000000000000000 [Eh]
	 Same-Spin Energy          =      -0.4468488575529762 [Eh]
	 Opposite-Spin Energy      =      -1.4652604858549796 [Eh]
	 Correlation Energy        =      -1.9121093434079559 [Eh]
	 Total Energy              =    -441.0450678575318193 [Eh]

	 ================> DF-SCS-MP2 Energies <==================
	-----------------------------------------------------------
	 SCS Same-Spin Scale       =       0.3333333333333333 [-]
	 SCS Opposite-Spin Scale   =       1.2000000000000000 [-]
	 SCS Same-Spin Energy      =      -0.1489496191843254 [Eh]
	 SCS Opposite-Spin Energy  =      -1.7583125830259754 [Eh]
	 SCS Correlation Energy    =      -1.9072622022103007 [Eh]
	 SCS Total Energy          =    -441.0402207163341473 [Eh]
	-----------------------------------------------------------

  Dipole Moment: [D]
     X:     3.6714      Y:    -3.1686      Z:    -0.1605     Total:     4.8523

*** Psi4 exiting successfully. Buy a developer a beer!
