                               Psi4 1.4a3.dev225

  ==> Input File <==

--------------------------------------------------------------------------
#psi4
#
memory 32 gb

molecule  {
0 1
  O        2.9110620    -0.5703060    -0.4523520
  O        0.5539390    -1.5540470     0.1662040
  N       -0.5943370     0.3369340    -0.3930300
  C       -1.9154150    -0.2304160    -0.1256420
  C        1.8655780     0.3788930    -0.3941620
  C       -2.9513150     0.5221750    -0.9483650
  C       -2.2232580    -0.2086170     1.3682650
  C        0.5443190    -0.3662470    -0.1910430
  C        2.1066478     1.3752962     0.7649704
  H       -1.8664900    -1.2716350    -0.4595930
  H       -0.5281980     1.3181660    -0.6377390
  H        1.8317100     0.9202690    -1.3505730
  H       -3.9433690     0.0896600    -0.7945050
  H       -2.9965010     1.5743390    -0.6446630
  H       -2.7149650     0.4749500    -2.0147890
  H       -1.4563020    -0.7629570     1.9136170
  H       -3.1950150    -0.6709470     1.5682930
  H       -2.2473660     0.8219210     1.7368640
  H        3.0888910     1.8183940     0.6312910
  H        2.0827360     0.8223960     1.7004970
  H        1.3487660     2.1553220     0.7756360
  H        2.4958040    -1.4028240    -0.1381920
units angstrom
no_reorient  #important for SAPT in psi4, default
symmetry c1  #important for SAPT in psi4, default
}

set PROPERTIES_ORIGIN ["COM"]
properties('MP2/aug-cc-pvtz', properties = ['dipole'])
--------------------------------------------------------------------------

    Molecular point group: c1
  Charge       = 0
  Multiplicity = 1
  Basis Set: AUG-CC-PVTZ
    Blend: AUG-CC-PVTZ
  Basis Set: (AUG-CC-PVTZ AUX)
    Blend: AUG-CC-PVTZ-JKFIT

    Orbital Energies [Eh]
    ---------------------

    Doubly Occupied:

       1A    -20.548773     2A    -20.531555     3A    -15.596133
       4A    -11.357960     5A    -11.298403     6A    -11.278091
       7A    -11.233490     8A    -11.229241     9A    -11.221067
      10A     -1.395576    11A     -1.345460    12A     -1.246675
      13A     -1.070668    14A     -1.021087    15A     -0.949580
      16A     -0.894859    17A     -0.821434    18A     -0.794688
      19A     -0.736823    20A     -0.677328    21A     -0.641968
      22A     -0.634323    23A     -0.628850    24A     -0.595344
      25A     -0.580028    26A     -0.572462    27A     -0.555197
      28A     -0.549239    29A     -0.539439    30A     -0.529367
      31A     -0.512281    32A     -0.502070    33A     -0.491406
      34A     -0.444918    35A     -0.431073    36A     -0.401315

  @DF-RHF Final Energy:  -439.13759797485886

   => Energetics <=

    Nuclear Repulsion Energy =            484.7309572597948772
    One-Electron Energy =               -1560.0207676619809263
    Two-Electron Energy =                 636.1522124273271857
    Total Energy =                       -439.1375979748588634
  Basis Set: (AUG-CC-PVTZ AUX)
    Blend: AUG-CC-PVTZ-RI
    Molecular point group: c1

    Geometry (in Angstrom), charge = 0, multiplicity = 1:

       Center              X                  Y                   Z               Mass
    ------------   -----------------  -----------------  -----------------  -----------------
         O            2.849618997044    -0.527019693072    -0.436422841991    15.994914619570
         O            0.492495997044    -1.510760693072     0.182133158009    15.994914619570
         N           -0.655780002956     0.380220306928    -0.377100841991    14.003074004430
         C           -1.976858002956    -0.187129693072    -0.109712841991    12.000000000000
         C            1.804134997044     0.422179306928    -0.378232841991    12.000000000000
         C           -3.012758002956     0.565461306928    -0.932435841991    12.000000000000
         C           -2.284701002956    -0.165330693072     1.384194158009    12.000000000000
         C            0.482875997044    -0.322960693072    -0.175113841991    12.000000000000
         C            2.045204797044     1.418582506928     0.780899558009    12.000000000000
         H           -1.927933002956    -1.228348693072    -0.443663841991     1.007825032230
         H           -0.589641002956     1.361452306928    -0.621809841991     1.007825032230
         H            1.770266997044     0.963555306928    -1.334643841991     1.007825032230
         H           -4.004812002956     0.132946306928    -0.778575841991     1.007825032230
         H           -3.057944002956     1.617625306928    -0.628733841991     1.007825032230
         H           -2.776408002956     0.518236306928    -1.998859841991     1.007825032230
         H           -1.517745002956    -0.719670693072     1.929546158009     1.007825032230
         H           -3.256458002956    -0.627660693072     1.584222158009     1.007825032230
         H           -2.308809002956     0.865207306928     1.752793158009     1.007825032230
         H            3.027447997044     1.861680306928     0.647220158009     1.007825032230
         H            2.021292997044     0.865682306928     1.716426158009     1.007825032230
         H            1.287322997044     2.198608306928     0.791565158009     1.007825032230
         H            2.434360997044    -1.359537693072    -0.122262841991     1.007825032230

  Basis Set: AUG-CC-PVTZ
    Blend: AUG-CC-PVTZ
  Basis Set: (AUG-CC-PVTZ AUX)
    Blend: AUG-CC-PVTZ-JKFIT
	 Reference Energy          =    -439.1375979748588634 [Eh]
	 Singles Energy            =      -0.0000000000000000 [Eh]
	 Same-Spin Energy          =      -0.4458346848216333 [Eh]
	 Opposite-Spin Energy      =      -1.4637137905097766 [Eh]
	 Correlation Energy        =      -1.9095484753314098 [Eh]
	 Total Energy              =    -441.0471464501902688 [Eh]

	 ================> DF-SCS-MP2 Energies <==================
	-----------------------------------------------------------
	 SCS Same-Spin Scale       =       0.3333333333333333 [-]
	 SCS Opposite-Spin Scale   =       1.2000000000000000 [-]
	 SCS Same-Spin Energy      =      -0.1486115616072111 [Eh]
	 SCS Opposite-Spin Energy  =      -1.7564565486117318 [Eh]
	 SCS Correlation Energy    =      -1.9050681102189428 [Eh]
	 SCS Total Energy          =    -441.0426660850778262 [Eh]
	-----------------------------------------------------------

  Dipole Moment: [D]
     X:    -3.3812      Y:     3.1201      Z:    -0.1910     Total:     4.6048

*** Psi4 exiting successfully. Buy a developer a beer!
