                               Psi4 1.3.2 release

  ==> Input File <==

--------------------------------------------------------------------------
#psi4
#
memory 32 gb

molecule  {
0 1
  O       -2.8756320     0.4615000    -0.3051040
  O       -0.5220660     1.5374290     0.0548780
  N        0.6562510    -0.3746370    -0.3360270
  C        1.9647450     0.2268840    -0.0956960
  C       -1.8012180    -0.4504720    -0.3698720
  C        3.0067800    -0.5070980    -0.9241520
  C        2.2930000     0.2310680     1.3932270
  C       -0.4991515     0.3381165    -0.2164868
  C       -1.9956634    -1.5191469     0.6993663
  H        1.8788190     1.2611790    -0.4401960
  H        0.6035260    -1.3822150    -0.4365740
  H       -1.7868920    -0.9288770    -1.3618540
  H        3.9904500    -0.0508330    -0.7882090
  H        3.0812650    -1.5550640    -0.6116920
  H        2.7529100    -0.4768670    -1.9861430
  H        1.5225120     0.7762450     1.9430400
  H        3.2574000     0.7146530     1.5762130
  H        2.3438960    -0.7932520     1.7757830
  H       -2.9590570    -1.9673470     0.6070900
  H       -1.9090200    -1.0432980     1.6949070
  H       -1.2193110    -2.3035120     0.6420620
  H       -2.4442120     1.3312090    -0.1521090
units angstrom
no_reorient  #important for SAPT in psi4, default
symmetry c1  #important for SAPT in psi4, default
}

set PROPERTIES_ORIGIN ["COM"]
properties('MP2/aug-cc-pvtz', properties = ['dipole'])
--------------------------------------------------------------------------

    Molecular point group: c1
  Charge       = 0
  Multiplicity = 1
  Basis Set: AUG-CC-PVTZ
    Blend: AUG-CC-PVTZ
  Basis Set: (AUG-CC-PVTZ AUX)
    Blend: AUG-CC-PVTZ-JKFIT

    Orbital Energies [Eh]
    ---------------------

    Doubly Occupied:

       1A    -20.547679     2A    -20.535503     3A    -15.593668
       4A    -11.359362     5A    -11.297195     6A    -11.276291
       7A    -11.231500     8A    -11.231207     9A    -11.221564
      10A     -1.402552    11A     -1.347609    12A     -1.245417
      13A     -1.070431    14A     -1.022890    15A     -0.949055
      16A     -0.896050    17A     -0.821019    18A     -0.793016
      19A     -0.736652    20A     -0.678949    21A     -0.649603
      22A     -0.634473    23A     -0.627714    24A     -0.597194
      25A     -0.582674    26A     -0.569231    27A     -0.554382
      28A     -0.550173    29A     -0.538033    30A     -0.527408
      31A     -0.513985    32A     -0.503200    33A     -0.491428
      34A     -0.444619    35A     -0.436262    36A     -0.400399

  @DF-RHF Final Energy:  -439.13716159108395

   => Energetics <=

    Nuclear Repulsion Energy =            485.1070519707993185
    One-Electron Energy =               -1560.7316588523751761
    Two-Electron Energy =                 636.4874452904917916
    Total Energy =                       -439.1371615910840092
  Basis Set: (AUG-CC-PVTZ AUX)
    Blend: AUG-CC-PVTZ-RI
    Molecular point group: c1

    Geometry (in Angstrom), charge = 0, multiplicity = 1:

       Center              X                  Y                   Z               Mass
    ------------   -----------------  -----------------  -----------------  -----------------
         O           -2.872955590093     0.460808527297    -0.302132629316    15.994914619570
         O           -0.519389590093     1.536737527297     0.057849370684    15.994914619570
         N            0.658927409907    -0.375328472703    -0.333055629316    14.003074004430
         C            1.967421409907     0.226192527297    -0.092724629316    12.000000000000
         C           -1.798541590093    -0.451163472703    -0.366900629316    12.000000000000
         C            3.009456409907    -0.507789472703    -0.921180629316    12.000000000000
         C            2.295676409907     0.230376527297     1.396198370684    12.000000000000
         C           -0.496475090093     0.337425027297    -0.213515429316    12.000000000000
         C           -1.992986990093    -1.519838372703     0.702337670684    12.000000000000
         H            1.881495409907     1.260487527297    -0.437224629316     1.007825032230
         H            0.606202409907    -1.382906472703    -0.433602629316     1.007825032230
         H           -1.784215590093    -0.929568472703    -1.358882629316     1.007825032230
         H            3.993126409907    -0.051524472703    -0.785237629316     1.007825032230
         H            3.083941409907    -1.555755472703    -0.608720629316     1.007825032230
         H            2.755586409907    -0.477558472703    -1.983171629316     1.007825032230
         H            1.525188409907     0.775553527297     1.946011370684     1.007825032230
         H            3.260076409907     0.713961527297     1.579184370684     1.007825032230
         H            2.346572409907    -0.793943472703     1.778754370684     1.007825032230
         H           -2.956380590093    -1.968038472703     0.610061370684     1.007825032230
         H           -1.906343590093    -1.043989472703     1.697878370684     1.007825032230
         H           -1.216634590093    -2.304203472703     0.645033370684     1.007825032230
         H           -2.441535590093     1.330517527297    -0.149137629316     1.007825032230

  Basis Set: AUG-CC-PVTZ
    Blend: AUG-CC-PVTZ
  Basis Set: (AUG-CC-PVTZ AUX)
    Blend: AUG-CC-PVTZ-JKFIT
	 Reference Energy          =    -439.1371615910839523 [Eh]
	 Singles Energy            =      -0.0000000000000000 [Eh]
	 Same-Spin Energy          =      -0.4458219750415199 [Eh]
	 Opposite-Spin Energy      =      -1.4633396231688882 [Eh]
	 Correlation Energy        =      -1.9091615982104080 [Eh]
	 Total Energy              =    -441.0463231892943554 [Eh]

	 ================> DF-SCS-MP2 Energies <==================
	-----------------------------------------------------------
	 SCS Same-Spin Scale       =       0.3333333333333333 [-]
	 SCS Opposite-Spin Scale   =       1.2000000000000000 [-]
	 SCS Same-Spin Energy      =      -0.1486073250138399 [Eh]
	 SCS Opposite-Spin Energy  =      -1.7560075478026658 [Eh]
	 SCS Correlation Energy    =      -1.9046148728165058 [Eh]
	 SCS Total Energy          =    -441.0417764639004758 [Eh]
	-----------------------------------------------------------

  Dipole Moment: [D]
     X:     3.3839      Y:    -2.9884      Z:    -0.1474     Total:     4.5170

*** Psi4 exiting successfully. Buy a developer a beer!
