                               Psi4 1.3.2 release

  ==> Input File <==

--------------------------------------------------------------------------
#psi4
#
memory 32 gb

molecule  {
0 1
  O       -2.8756320     0.4615000    -0.3051040
  O       -0.5220660     1.5374290     0.0548780
  N        0.6562510    -0.3746370    -0.3360270
  C        1.9647450     0.2268840    -0.0956960
  C       -1.8501144    -0.4618410    -0.3874869
  C        3.0067800    -0.5070980    -0.9241520
  C        2.2930000     0.2310680     1.3932270
  C       -0.4931590     0.3235730    -0.1949090
  C       -1.9724170    -1.5121580     0.7102480
  H        1.8788190     1.2611790    -0.4401960
  H        0.6035260    -1.3822150    -0.4365740
  H       -1.7868920    -0.9288770    -1.3618540
  H        3.9904500    -0.0508330    -0.7882090
  H        3.0812650    -1.5550640    -0.6116920
  H        2.7529100    -0.4768670    -1.9861430
  H        1.5225120     0.7762450     1.9430400
  H        3.2574000     0.7146530     1.5762130
  H        2.3438960    -0.7932520     1.7757830
  H       -2.9657671    -1.9444733     0.5773716
  H       -1.9090200    -1.0432980     1.6949070
  H       -1.2193110    -2.3035120     0.6420620
  H       -2.4442120     1.3312090    -0.1521090
units angstrom
no_reorient  #important for SAPT in psi4, default
symmetry c1  #important for SAPT in psi4, default
}

set PROPERTIES_ORIGIN ["COM"]
properties('MP2/aug-cc-pvtz', properties = ['dipole'])
--------------------------------------------------------------------------

    Molecular point group: c1
  Charge       = 0
  Multiplicity = 1
  Basis Set: AUG-CC-PVTZ
    Blend: AUG-CC-PVTZ
  Basis Set: (AUG-CC-PVTZ AUX)
    Blend: AUG-CC-PVTZ-JKFIT

    Orbital Energies [Eh]
    ---------------------

    Doubly Occupied:

       1A    -20.549431     2A    -20.531428     3A    -15.594845
       4A    -11.356587     5A    -11.297665     6A    -11.276560
       7A    -11.231857     8A    -11.229384     9A    -11.221783
      10A     -1.397588    11A     -1.353892    12A     -1.246245
      13A     -1.069196    14A     -1.022725    15A     -0.949359
      16A     -0.887108    17A     -0.823361    18A     -0.794821
      19A     -0.736911    20A     -0.680720    21A     -0.653040
      22A     -0.630629    23A     -0.628566    24A     -0.596553
      25A     -0.586060    26A     -0.570985    27A     -0.554682
      28A     -0.546073    29A     -0.541841    30A     -0.532102
      31A     -0.508554    32A     -0.502294    33A     -0.490393
      34A     -0.446714    35A     -0.424959    36A     -0.400741

  @DF-RHF Final Energy:  -439.13582489004477

   => Energetics <=

    Nuclear Repulsion Energy =            484.8532961871663360
    One-Electron Energy =               -1560.2469346331574798
    Two-Electron Energy =                 636.2578135559464272
    Total Energy =                       -439.1358248900447734
  Basis Set: (AUG-CC-PVTZ AUX)
    Blend: AUG-CC-PVTZ-RI
    Molecular point group: c1

    Geometry (in Angstrom), charge = 0, multiplicity = 1:

       Center              X                  Y                   Z               Mass
    ------------   -----------------  -----------------  -----------------  -----------------
         O           -2.871104617179     0.462364887879    -0.303262990294    15.994914619570
         O           -0.517538617179     1.538293887879     0.056719009706    15.994914619570
         N            0.660778382821    -0.373772112121    -0.334185990294    14.003074004430
         C            1.969272382821     0.227748887879    -0.093854990294    12.000000000000
         C           -1.845587017179    -0.460976112121    -0.385645890294    12.000000000000
         C            3.011307382821    -0.506233112121    -0.922310990294    12.000000000000
         C            2.297527382821     0.231932887879     1.395068009706    12.000000000000
         C           -0.488631617179     0.324437887879    -0.193067990294    12.000000000000
         C           -1.967889617179    -1.511293112121     0.712089009706    12.000000000000
         H            1.883346382821     1.262043887879    -0.438354990294     1.007825032230
         H            0.608053382821    -1.381350112121    -0.434732990294     1.007825032230
         H           -1.782364617179    -0.928012112121    -1.360012990294     1.007825032230
         H            3.994977382821    -0.049968112121    -0.786367990294     1.007825032230
         H            3.085792382821    -1.554199112121    -0.609850990294     1.007825032230
         H            2.757437382821    -0.476002112121    -1.984301990294     1.007825032230
         H            1.527039382821     0.777109887879     1.944881009706     1.007825032230
         H            3.261927382821     0.715517887879     1.578054009706     1.007825032230
         H            2.348423382821    -0.792387112121     1.777624009706     1.007825032230
         H           -2.961239717179    -1.943608412121     0.579212609706     1.007825032230
         H           -1.904492617179    -1.042433112121     1.696748009706     1.007825032230
         H           -1.214783617179    -2.302647112121     0.643903009706     1.007825032230
         H           -2.439684617179     1.332073887879    -0.150267990294     1.007825032230

  Basis Set: AUG-CC-PVTZ
    Blend: AUG-CC-PVTZ
  Basis Set: (AUG-CC-PVTZ AUX)
    Blend: AUG-CC-PVTZ-JKFIT
	 Reference Energy          =    -439.1358248900447734 [Eh]
	 Singles Energy            =      -0.0000000000000000 [Eh]
	 Same-Spin Energy          =      -0.4459371656557864 [Eh]
	 Opposite-Spin Energy      =      -1.4631096133854706 [Eh]
	 Correlation Energy        =      -1.9090467790412571 [Eh]
	 Total Energy              =    -441.0448716690860351 [Eh]

	 ================> DF-SCS-MP2 Energies <==================
	-----------------------------------------------------------
	 SCS Same-Spin Scale       =       0.3333333333333333 [-]
	 SCS Opposite-Spin Scale   =       1.2000000000000000 [-]
	 SCS Same-Spin Energy      =      -0.1486457218852621 [Eh]
	 SCS Opposite-Spin Energy  =      -1.7557315360625647 [Eh]
	 SCS Correlation Energy    =      -1.9043772579478269 [Eh]
	 SCS Total Energy          =    -441.0402021479926020 [Eh]
	-----------------------------------------------------------

  Dipole Moment: [D]
     X:     3.3996      Y:    -3.0058      Z:    -0.1765     Total:     4.5413

*** Psi4 exiting successfully. Buy a developer a beer!
