                               Psi4 1.3.2 release

  ==> Input File <==

--------------------------------------------------------------------------
#psi4
#
memory 32 gb

molecule  {
0 1
  O       -2.8929352     0.4430522    -0.3744973
  O       -0.5220660     1.5374290     0.0548780
  N        0.6562510    -0.3746370    -0.3360270
  C        1.9647450     0.2268840    -0.0956960
  C       -1.8012180    -0.4504720    -0.3698720
  C        3.0067800    -0.5070980    -0.9241520
  C        2.2930000     0.2310680     1.3932270
  C       -0.4931590     0.3235730    -0.1949090
  C       -1.9724170    -1.5121580     0.7102480
  H        1.8788190     1.2611790    -0.4401960
  H        0.6035260    -1.3822150    -0.4365740
  H       -1.8331884    -0.8975308    -1.3759640
  H        3.9904500    -0.0508330    -0.7882090
  H        3.0812650    -1.5550640    -0.6116920
  H        2.7529100    -0.4768670    -1.9861430
  H        1.5225120     0.7762450     1.9430400
  H        3.2574000     0.7146530     1.5762130
  H        2.3438960    -0.7932520     1.7757830
  H       -2.9590570    -1.9673470     0.6070900
  H       -1.9090200    -1.0432980     1.6949070
  H       -1.2193110    -2.3035120     0.6420620
  H       -2.4442120     1.3312090    -0.1521090
units angstrom
no_reorient  #important for SAPT in psi4, default
symmetry c1  #important for SAPT in psi4, default
}

set PROPERTIES_ORIGIN ["COM"]
properties('MP2/aug-cc-pvtz', properties = ['dipole'])
--------------------------------------------------------------------------

    Molecular point group: c1
  Charge       = 0
  Multiplicity = 1
  Basis Set: AUG-CC-PVTZ
    Blend: AUG-CC-PVTZ
  Basis Set: (AUG-CC-PVTZ AUX)
    Blend: AUG-CC-PVTZ-JKFIT

    Orbital Energies [Eh]
    ---------------------

    Doubly Occupied:

       1A    -20.549376     2A    -20.534102     3A    -15.596519
       4A    -11.359639     5A    -11.295720     6A    -11.277721
       7A    -11.232606     8A    -11.231446     9A    -11.222754
      10A     -1.396412    11A     -1.341310    12A     -1.248693
      13A     -1.071977    14A     -1.022289    15A     -0.950251
      16A     -0.894652    17A     -0.821984    18A     -0.795240
      19A     -0.735534    20A     -0.675714    21A     -0.645396
      22A     -0.631667    23A     -0.629085    24A     -0.597768
      25A     -0.581789    26A     -0.567637    27A     -0.555435
      28A     -0.548419    29A     -0.538467    30A     -0.529890
      31A     -0.511970    32A     -0.503322    33A     -0.492203
      34A     -0.441874    35A     -0.435685    36A     -0.402209

  @DF-RHF Final Energy:  -439.13292627518138

   => Energetics <=

    Nuclear Repulsion Energy =            484.6854327866885228
    One-Electron Energy =               -1559.9032087876582864
    Two-Electron Energy =                 636.0848497257883309
    Total Energy =                       -439.1329262751813758
  Basis Set: (AUG-CC-PVTZ AUX)
    Blend: AUG-CC-PVTZ-RI
    Molecular point group: c1

    Geometry (in Angstrom), charge = 0, multiplicity = 1:

       Center              X                  Y                   Z               Mass
    ------------   -----------------  -----------------  -----------------  -----------------
         O           -2.890468142091     0.445062094275    -0.365921990182    15.994914619570
         O           -0.519598942091     1.539438894275     0.063453309818    15.994914619570
         N            0.658718057909    -0.372627105725    -0.327451690182    14.003074004430
         C            1.967212057909     0.228893894275    -0.087120690182    12.000000000000
         C           -1.798750942091    -0.448462105725    -0.361296690182    12.000000000000
         C            3.009247057909    -0.505088105725    -0.915576690182    12.000000000000
         C            2.295467057909     0.233077894275     1.401802309818    12.000000000000
         C           -0.490691942091     0.325582894275    -0.186333690182    12.000000000000
         C           -1.969949942091    -1.510148105725     0.718823309818    12.000000000000
         H            1.881286057909     1.263188894275    -0.431620690182     1.007825032230
         H            0.605993057909    -1.380205105725    -0.427998690182     1.007825032230
         H           -1.830721342091    -0.895520905725    -1.367388690182     1.007825032230
         H            3.992917057909    -0.048823105725    -0.779633690182     1.007825032230
         H            3.083732057909    -1.553054105725    -0.603116690182     1.007825032230
         H            2.755377057909    -0.474857105725    -1.977567690182     1.007825032230
         H            1.524979057909     0.778254894275     1.951615309818     1.007825032230
         H            3.259867057909     0.716662894275     1.584788309818     1.007825032230
         H            2.346363057909    -0.791242105725     1.784358309818     1.007825032230
         H           -2.956589942091    -1.965337105725     0.615665309818     1.007825032230
         H           -1.906552942091    -1.041288105725     1.703482309818     1.007825032230
         H           -1.216843942091    -2.301502105725     0.650637309818     1.007825032230
         H           -2.441744942091     1.333218894275    -0.143533690182     1.007825032230

  Basis Set: AUG-CC-PVTZ
    Blend: AUG-CC-PVTZ
  Basis Set: (AUG-CC-PVTZ AUX)
    Blend: AUG-CC-PVTZ-JKFIT
	 Reference Energy          =    -439.1329262751813758 [Eh]
	 Singles Energy            =      -0.0000000000000000 [Eh]
	 Same-Spin Energy          =      -0.4466216300037199 [Eh]
	 Opposite-Spin Energy      =      -1.4650310750555704 [Eh]
	 Correlation Energy        =      -1.9116527050592902 [Eh]
	 Total Energy              =    -441.0445789802406580 [Eh]

	 ================> DF-SCS-MP2 Energies <==================
	-----------------------------------------------------------
	 SCS Same-Spin Scale       =       0.3333333333333333 [-]
	 SCS Opposite-Spin Scale   =       1.2000000000000000 [-]
	 SCS Same-Spin Energy      =      -0.1488738766679066 [Eh]
	 SCS Opposite-Spin Energy  =      -1.7580372900666845 [Eh]
	 SCS Correlation Energy    =      -1.9069111667345910 [Eh]
	 SCS Total Energy          =    -441.0398374419159495 [Eh]
	-----------------------------------------------------------

  Dipole Moment: [D]
     X:     3.5248      Y:    -3.0416      Z:    -0.0065     Total:     4.6557

*** Psi4 exiting successfully. Buy a developer a beer!
