                               Psi4 1.3.2 release

  ==> Input File <==

--------------------------------------------------------------------------
#psi4
#
memory 32 gb

molecule  {
0 1
  O       -2.8756320     0.4615000    -0.3051040
  O       -0.5220660     1.5374290     0.0548780
  N        0.6562510    -0.3746370    -0.3360270
  C        1.9647450     0.2268840    -0.0956960
  C       -1.8012180    -0.4504720    -0.3698720
  C        3.0067800    -0.5070980    -0.9241520
  C        2.2930000     0.2310680     1.3932270
  C       -0.6641516     0.2223880    -0.2177806
  C       -1.9724170    -1.5121580     0.7102480
  H        1.8788190     1.2611790    -0.4401960
  H        0.6035260    -1.3822150    -0.4365740
  H       -1.7868920    -0.9288770    -1.3618540
  H        3.9904500    -0.0508330    -0.7882090
  H        3.0812650    -1.5550640    -0.6116920
  H        2.7529100    -0.4768670    -1.9861430
  H        1.5225120     0.7762450     1.9430400
  H        3.2574000     0.7146530     1.5762130
  H        2.3438960    -0.7932520     1.7757830
  H       -2.9590570    -1.9673470     0.6070900
  H       -1.9090200    -1.0432980     1.6949070
  H       -1.2193110    -2.3035120     0.6420620
  H       -2.4442120     1.3312090    -0.1521090
units angstrom
no_reorient  #important for SAPT in psi4, default
symmetry c1  #important for SAPT in psi4, default
}

set PROPERTIES_ORIGIN ["COM"]
properties('MP2/aug-cc-pvtz', properties = ['dipole'])
--------------------------------------------------------------------------

    Molecular point group: c1
  Charge       = 0
  Multiplicity = 1
  Basis Set: AUG-CC-PVTZ
    Blend: AUG-CC-PVTZ
  Basis Set: (AUG-CC-PVTZ AUX)
    Blend: AUG-CC-PVTZ-JKFIT

    Orbital Energies [Eh]
    ---------------------

    Doubly Occupied:

       1A    -20.558465     2A    -20.528892     3A    -15.591580
       4A    -11.376568     5A    -11.301513     6A    -11.273822
       7A    -11.246801     8A    -11.228101     9A    -11.216190
      10A     -1.390311    11A     -1.314464    12A     -1.212155
      13A     -1.097353    14A     -1.031833    15A     -0.944007
      16A     -0.940108    17A     -0.820630    18A     -0.775159
      19A     -0.743238    20A     -0.689771    21A     -0.649802
      22A     -0.627115    23A     -0.623361    24A     -0.584877
      25A     -0.578504    26A     -0.571811    27A     -0.552587
      28A     -0.547507    29A     -0.536843    30A     -0.524179
      31A     -0.512197    32A     -0.490592    33A     -0.480845
      34A     -0.452805    35A     -0.439213    36A     -0.384630

  @DF-RHF Final Energy:  -439.06727316534659

   => Energetics <=

    Nuclear Repulsion Energy =            484.7791354994611766
    One-Electron Energy =               -1560.0171622172458683
    Two-Electron Energy =                 636.1707535524379864
    Total Energy =                       -439.0672731653465917
  Basis Set: (AUG-CC-PVTZ AUX)
    Blend: AUG-CC-PVTZ-RI
    Molecular point group: c1

    Geometry (in Angstrom), charge = 0, multiplicity = 1:

       Center              X                  Y                   Z               Mass
    ------------   -----------------  -----------------  -----------------  -----------------
         O           -2.859979891413     0.470762216577    -0.303010276259    15.994914619570
         O           -0.506413891413     1.546691216577     0.056971723741    15.994914619570
         N            0.671903108587    -0.365374783423    -0.333933276259    14.003074004430
         C            1.980397108587     0.236146216577    -0.093602276259    12.000000000000
         C           -1.785565891413    -0.441209783423    -0.367778276259    12.000000000000
         C            3.022432108587    -0.497835783423    -0.922058276259    12.000000000000
         C            2.308652108587     0.240330216577     1.395320723741    12.000000000000
         C           -0.648499491413     0.231650216577    -0.215686876259    12.000000000000
         C           -1.956764891413    -1.502895783423     0.712341723741    12.000000000000
         H            1.894471108587     1.270441216577    -0.438102276259     1.007825032230
         H            0.619178108587    -1.372952783423    -0.434480276259     1.007825032230
         H           -1.771239891413    -0.919614783423    -1.359760276259     1.007825032230
         H            4.006102108587    -0.041570783423    -0.786115276259     1.007825032230
         H            3.096917108587    -1.545801783423    -0.609598276259     1.007825032230
         H            2.768562108587    -0.467604783423    -1.984049276259     1.007825032230
         H            1.538164108587     0.785507216577     1.945133723741     1.007825032230
         H            3.273052108587     0.723915216577     1.578306723741     1.007825032230
         H            2.359548108587    -0.783989783423     1.777876723741     1.007825032230
         H           -2.943404891413    -1.958084783423     0.609183723741     1.007825032230
         H           -1.893367891413    -1.034035783423     1.697000723741     1.007825032230
         H           -1.203658891413    -2.294249783423     0.644155723741     1.007825032230
         H           -2.428559891413     1.340471216577    -0.150015276259     1.007825032230

  Basis Set: AUG-CC-PVTZ
    Blend: AUG-CC-PVTZ
  Basis Set: (AUG-CC-PVTZ AUX)
    Blend: AUG-CC-PVTZ-JKFIT
	 Reference Energy          =    -439.0672731653465917 [Eh]
	 Singles Energy            =      -0.0000000000000000 [Eh]
	 Same-Spin Energy          =      -0.4515605324766657 [Eh]
	 Opposite-Spin Energy      =      -1.4740203486853956 [Eh]
	 Correlation Energy        =      -1.9255808811620612 [Eh]
	 Total Energy              =    -440.9928540465086257 [Eh]

	 ================> DF-SCS-MP2 Energies <==================
	-----------------------------------------------------------
	 SCS Same-Spin Scale       =       0.3333333333333333 [-]
	 SCS Opposite-Spin Scale   =       1.2000000000000000 [-]
	 SCS Same-Spin Energy      =      -0.1505201774922219 [Eh]
	 SCS Opposite-Spin Energy  =      -1.7688244184224746 [Eh]
	 SCS Correlation Energy    =      -1.9193445959146964 [Eh]
	 SCS Total Energy          =    -440.9866177612613001 [Eh]
	-----------------------------------------------------------

  Dipole Moment: [D]
     X:     2.5907      Y:    -3.4380      Z:    -0.1611     Total:     4.3079

*** Psi4 exiting successfully. Buy a developer a beer!
