                               Psi4 1.4a3.dev225

  ==> Input File <==

--------------------------------------------------------------------------
#psi4
#
memory 32 gb

molecule  {
0 1
  O        2.9110620    -0.5703060    -0.4523520
  O        0.5539390    -1.5540470     0.1662040
  N       -0.5943370     0.3369340    -0.3930300
  C       -1.9154150    -0.2304160    -0.1256420
  C        1.8655780     0.3788930    -0.3941620
  C       -2.9513150     0.5221750    -0.9483650
  C       -2.2232580    -0.2086170     1.3682650
  C        0.5443190    -0.3662470    -0.1910430
  C        2.1035320     1.3624180     0.7499890
  H       -1.8664900    -1.2716350    -0.4595930
  H       -0.5295032     1.2988017    -0.6329098
  H        1.8317100     0.9202690    -1.3505730
  H       -3.9433690     0.0896600    -0.7945050
  H       -2.9965010     1.5743390    -0.6446630
  H       -2.7149650     0.4749500    -2.0147890
  H       -1.4563020    -0.7629570     1.9136170
  H       -3.1950150    -0.6709470     1.5682930
  H       -2.2473660     0.8219210     1.7368640
  H        3.0888910     1.8183940     0.6312910
  H        2.0827360     0.8223960     1.7004970
  H        1.3487660     2.1553220     0.7756360
  H        2.4958040    -1.4028240    -0.1381920
units angstrom
no_reorient  #important for SAPT in psi4, default
symmetry c1  #important for SAPT in psi4, default
}

set PROPERTIES_ORIGIN ["COM"]
properties('MP2/aug-cc-pvtz', properties = ['dipole'])
--------------------------------------------------------------------------

    Molecular point group: c1
  Charge       = 0
  Multiplicity = 1
  Basis Set: AUG-CC-PVTZ
    Blend: AUG-CC-PVTZ
  Basis Set: (AUG-CC-PVTZ AUX)
    Blend: AUG-CC-PVTZ-JKFIT

    Orbital Energies [Eh]
    ---------------------

    Doubly Occupied:

       1A    -20.548754     2A    -20.531779     3A    -15.594309
       4A    -11.358136     5A    -11.297760     6A    -11.278097
       7A    -11.233542     8A    -11.229926     9A    -11.221126
      10A     -1.395987    11A     -1.345848    12A     -1.249023
      13A     -1.071637    14A     -1.023823    15A     -0.949695
      16A     -0.894040    17A     -0.822064    18A     -0.798620
      19A     -0.737596    20A     -0.677977    21A     -0.643271
      22A     -0.635633    23A     -0.629150    24A     -0.595648
      25A     -0.582414    26A     -0.571172    27A     -0.555190
      28A     -0.548324    29A     -0.537047    30A     -0.528751
      31A     -0.512160    32A     -0.502172    33A     -0.491472
      34A     -0.446472    35A     -0.431855    36A     -0.401776

  @DF-RHF Final Energy:  -439.13823604583843

   => Energetics <=

    Nuclear Repulsion Energy =            485.1933849324853441
    One-Electron Energy =               -1560.9187509465830317
    Two-Electron Energy =                 636.5871299682593190
    Total Energy =                       -439.1382360458384255
  Basis Set: (AUG-CC-PVTZ AUX)
    Blend: AUG-CC-PVTZ-RI
    Molecular point group: c1

    Geometry (in Angstrom), charge = 0, multiplicity = 1:

       Center              X                  Y                   Z               Mass
    ------------   -----------------  -----------------  -----------------  -----------------
         O            2.849914241889    -0.525691993928    -0.435088616378    15.994914619570
         O            0.492791241889    -1.509432993928     0.183467383622    15.994914619570
         N           -0.655484758111     0.381548006072    -0.375766616378    14.003074004430
         C           -1.976562758111    -0.185801993928    -0.108378616378    12.000000000000
         C            1.804430241889     0.423507006072    -0.376898616378    12.000000000000
         C           -3.012462758111     0.566789006072    -0.931101616378    12.000000000000
         C           -2.284405758111    -0.164002993928     1.385528383622    12.000000000000
         C            0.483171241889    -0.321632993928    -0.173779616378    12.000000000000
         C            2.042384241889     1.407032006072     0.767252383622    12.000000000000
         H           -1.927637758111    -1.227020993928    -0.442329616378     1.007825032230
         H           -0.590650958111     1.343415706072    -0.615646416378     1.007825032230
         H            1.770562241889     0.964883006072    -1.333309616378     1.007825032230
         H           -4.004516758111     0.134274006072    -0.777241616378     1.007825032230
         H           -3.057648758111     1.618953006072    -0.627399616378     1.007825032230
         H           -2.776112758111     0.519564006072    -1.997525616378     1.007825032230
         H           -1.517449758111    -0.718342993928     1.930880383622     1.007825032230
         H           -3.256162758111    -0.626332993928     1.585556383622     1.007825032230
         H           -2.308513758111     0.866535006072     1.754127383622     1.007825032230
         H            3.027743241889     1.863008006072     0.648554383622     1.007825032230
         H            2.021588241889     0.867010006072     1.717760383622     1.007825032230
         H            1.287618241889     2.199936006072     0.792899383622     1.007825032230
         H            2.434656241889    -1.358209993928    -0.120928616378     1.007825032230

  Basis Set: AUG-CC-PVTZ
    Blend: AUG-CC-PVTZ
  Basis Set: (AUG-CC-PVTZ AUX)
    Blend: AUG-CC-PVTZ-JKFIT
	 Reference Energy          =    -439.1382360458384255 [Eh]
	 Singles Energy            =      -0.0000000000000000 [Eh]
	 Same-Spin Energy          =      -0.4457742341187961 [Eh]
	 Opposite-Spin Energy      =      -1.4634089183626449 [Eh]
	 Correlation Energy        =      -1.9091831524814409 [Eh]
	 Total Energy              =    -441.0474191983198580 [Eh]

	 ================> DF-SCS-MP2 Energies <==================
	-----------------------------------------------------------
	 SCS Same-Spin Scale       =       0.3333333333333333 [-]
	 SCS Opposite-Spin Scale   =       1.2000000000000000 [-]
	 SCS Same-Spin Energy      =      -0.1485914113729320 [Eh]
	 SCS Opposite-Spin Energy  =      -1.7560907020351737 [Eh]
	 SCS Correlation Energy    =      -1.9046821134081058 [Eh]
	 SCS Total Energy          =    -441.0429181592465397 [Eh]
	-----------------------------------------------------------

  Dipole Moment: [D]
     X:    -3.3815      Y:     3.1128      Z:    -0.1795     Total:     4.5996

*** Psi4 exiting successfully. Buy a developer a beer!
