                               Psi4 1.4a3.dev225

  ==> Input File <==

--------------------------------------------------------------------------
#psi4
#
memory 32 gb

molecule  {
0 1
  O        2.9110620    -0.5703060    -0.4523520
  O        0.5539390    -1.5540470     0.1662040
  N       -0.5943370     0.3369340    -0.3930300
  C       -1.9154150    -0.2304160    -0.1256420
  C        1.8655780     0.3788930    -0.3941620
  C       -2.9513150     0.5221750    -0.9483650
  C       -2.2232580    -0.2086170     1.3682650
  C        0.5443190    -0.3662470    -0.1910430
  C        2.1035320     1.3624180     0.7499890
  H       -1.8664900    -1.2716350    -0.4595930
  H       -0.5281980     1.3181660    -0.6377390
  H        1.8317100     0.9202690    -1.3505730
  H       -3.9433690     0.0896600    -0.7945050
  H       -2.9965010     1.5743390    -0.6446630
  H       -2.7149650     0.4749500    -2.0147890
  H       -1.4563020    -0.7629570     1.9136170
  H       -3.1950150    -0.6709470     1.5682930
  H       -2.2473660     0.8219210     1.7368640
  H        3.0888910     1.8183940     0.6312910
  H        2.0827360     0.8223960     1.7004970
  H        1.3487660     2.1553220     0.7756360
  H        2.5042618    -1.3858675    -0.1445907
units angstrom
no_reorient  #important for SAPT in psi4, default
symmetry c1  #important for SAPT in psi4, default
}

set PROPERTIES_ORIGIN ["COM"]
properties('MP2/aug-cc-pvtz', properties = ['dipole'])
--------------------------------------------------------------------------

    Molecular point group: c1
  Charge       = 0
  Multiplicity = 1
  Basis Set: AUG-CC-PVTZ
    Blend: AUG-CC-PVTZ
  Basis Set: (AUG-CC-PVTZ AUX)
    Blend: AUG-CC-PVTZ-JKFIT

    Orbital Energies [Eh]
    ---------------------

    Doubly Occupied:

       1A    -20.547878     2A    -20.531257     3A    -15.596077
       4A    -11.357968     5A    -11.298038     6A    -11.278047
       7A    -11.233458     8A    -11.230087     9A    -11.221003
      10A     -1.396644    11A     -1.349332    12A     -1.246623
      13A     -1.071516    14A     -1.024314    15A     -0.949528
      16A     -0.894060    17A     -0.821960    18A     -0.794928
      19A     -0.739406    20A     -0.677981    21A     -0.643486
      22A     -0.635239    23A     -0.629103    24A     -0.595200
      25A     -0.583006    26A     -0.571894    27A     -0.555121
      28A     -0.548362    29A     -0.537256    30A     -0.528775
      31A     -0.513546    32A     -0.502077    33A     -0.491308
      34A     -0.447179    35A     -0.431501    36A     -0.401267

  @DF-RHF Final Energy:  -439.13868860505244

   => Energetics <=

    Nuclear Repulsion Energy =            485.1682993805084720
    One-Electron Energy =               -1560.8651259988689617
    Two-Electron Energy =                 636.5581380133080529
    Total Energy =                       -439.1386886050524936
  Basis Set: (AUG-CC-PVTZ AUX)
    Blend: AUG-CC-PVTZ-RI
    Molecular point group: c1

    Geometry (in Angstrom), charge = 0, multiplicity = 1:

       Center              X                  Y                   Z               Mass
    ------------   -----------------  -----------------  -----------------  -----------------
         O            2.849839186214    -0.525971219795    -0.435002298893    15.994914619570
         O            0.492716186214    -1.509712219795     0.183553701107    15.994914619570
         N           -0.655559813786     0.381268780205    -0.375680298893    14.003074004430
         C           -1.976637813786    -0.186081219795    -0.108292298893    12.000000000000
         C            1.804355186214     0.423227780205    -0.376812298893    12.000000000000
         C           -3.012537813786     0.566509780205    -0.931015298893    12.000000000000
         C           -2.284480813786    -0.164282219795     1.385614701107    12.000000000000
         C            0.483096186214    -0.321912219795    -0.173693298893    12.000000000000
         C            2.042309186214     1.406752780205     0.767338701107    12.000000000000
         H           -1.927712813786    -1.227300219795    -0.442243298893     1.007825032230
         H           -0.589420813786     1.362500780205    -0.620389298893     1.007825032230
         H            1.770487186214     0.964603780205    -1.333223298893     1.007825032230
         H           -4.004591813786     0.133994780205    -0.777155298893     1.007825032230
         H           -3.057723813786     1.618673780205    -0.627313298893     1.007825032230
         H           -2.776187813786     0.519284780205    -1.997439298893     1.007825032230
         H           -1.517524813786    -0.718622219795     1.930966701107     1.007825032230
         H           -3.256237813786    -0.626612219795     1.585642701107     1.007825032230
         H           -2.308588813786     0.866255780205     1.754213701107     1.007825032230
         H            3.027668186214     1.862728780205     0.648640701107     1.007825032230
         H            2.021513186214     0.866730780205     1.717846701107     1.007825032230
         H            1.287543186214     2.199656780205     0.792985701107     1.007825032230
         H            2.443038986214    -1.341532719795    -0.127240998893     1.007825032230

  Basis Set: AUG-CC-PVTZ
    Blend: AUG-CC-PVTZ
  Basis Set: (AUG-CC-PVTZ AUX)
    Blend: AUG-CC-PVTZ-JKFIT
	 Reference Energy          =    -439.1386886050524367 [Eh]
	 Singles Energy            =      -0.0000000000000000 [Eh]
	 Same-Spin Energy          =      -0.4456340842413209 [Eh]
	 Opposite-Spin Energy      =      -1.4631683670824482 [Eh]
	 Correlation Energy        =      -1.9088024513237691 [Eh]
	 Total Energy              =    -441.0474910563762023 [Eh]

	 ================> DF-SCS-MP2 Energies <==================
	-----------------------------------------------------------
	 SCS Same-Spin Scale       =       0.3333333333333333 [-]
	 SCS Opposite-Spin Scale   =       1.2000000000000000 [-]
	 SCS Same-Spin Energy      =      -0.1485446947471070 [Eh]
	 SCS Opposite-Spin Energy  =      -1.7558020404989378 [Eh]
	 SCS Correlation Energy    =      -1.9043467352460448 [Eh]
	 SCS Total Energy          =    -441.0430353402985020 [Eh]
	-----------------------------------------------------------

  Dipole Moment: [D]
     X:    -3.3619      Y:     3.1472      Z:    -0.1906     Total:     4.6091

*** Psi4 exiting successfully. Buy a developer a beer!
