                               Psi4 1.4a3.dev225

  ==> Input File <==

--------------------------------------------------------------------------
#psi4
#
memory 32 gb

molecule  {
0 1
  O        2.9110620    -0.5703060    -0.4523520
  O        0.5539390    -1.5540470     0.1662040
  N       -0.5943370     0.3369340    -0.3930300
  C       -1.9154150    -0.2304160    -0.1256420
  C        1.9025655     0.3453119    -0.3962207
  C       -2.9513150     0.5221750    -0.9483650
  C       -2.2232580    -0.2086170     1.3682650
  C        0.5443190    -0.3662470    -0.1910430
  C        2.1035320     1.3624180     0.7499890
  H       -1.8664900    -1.2716350    -0.4595930
  H       -0.5281980     1.3181660    -0.6377390
  H        1.8317100     0.9202690    -1.3505730
  H       -3.9433690     0.0896600    -0.7945050
  H       -2.9965010     1.5743390    -0.6446630
  H       -2.7149650     0.4749500    -2.0147890
  H       -1.4563020    -0.7629570     1.9136170
  H       -3.1950150    -0.6709470     1.5682930
  H       -2.2473660     0.8219210     1.7368640
  H        3.0888910     1.8183940     0.6312910
  H        2.0827360     0.8223960     1.7004970
  H        1.3487660     2.1553220     0.7756360
  H        2.4958040    -1.4028240    -0.1381920
units angstrom
no_reorient  #important for SAPT in psi4, default
symmetry c1  #important for SAPT in psi4, default
}

set PROPERTIES_ORIGIN ["COM"]
properties('MP2/aug-cc-pvtz', properties = ['dipole'])
--------------------------------------------------------------------------

    Molecular point group: c1
  Charge       = 0
  Multiplicity = 1
  Basis Set: AUG-CC-PVTZ
    Blend: AUG-CC-PVTZ
  Basis Set: (AUG-CC-PVTZ AUX)
    Blend: AUG-CC-PVTZ-JKFIT

    Orbital Energies [Eh]
    ---------------------

    Doubly Occupied:

       1A    -20.553747     2A    -20.530605     3A    -15.595758
       4A    -11.356597     5A    -11.298893     6A    -11.277924
       7A    -11.233209     8A    -11.228216     9A    -11.220677
      10A     -1.402423    11A     -1.360581    12A     -1.245557
      13A     -1.068577    14A     -1.018254    15A     -0.949232
      16A     -0.889480    17A     -0.821940    18A     -0.794230
      19A     -0.744148    20A     -0.678378    21A     -0.645366
      22A     -0.634468    23A     -0.629672    24A     -0.596267
      25A     -0.588264    26A     -0.570631    27A     -0.555055
      28A     -0.546695    29A     -0.540957    30A     -0.529564
      31A     -0.511432    32A     -0.502056    33A     -0.491110
      34A     -0.441496    35A     -0.426857    36A     -0.400704

  @DF-RHF Final Energy:  -439.13641121589581

   => Energetics <=

    Nuclear Repulsion Energy =            485.1588141926434901
    One-Electron Energy =               -1560.8324139093324447
    Two-Electron Energy =                 636.5371885007930359
    Total Energy =                       -439.1364112158958051
  Basis Set: (AUG-CC-PVTZ AUX)
    Blend: AUG-CC-PVTZ-RI
    Molecular point group: c1

    Geometry (in Angstrom), charge = 0, multiplicity = 1:

       Center              X                  Y                   Z               Mass
    ------------   -----------------  -----------------  -----------------  -----------------
         O            2.846518485573    -0.522766951326    -0.434863043531    15.994914619570
         O            0.489395485573    -1.506507951326     0.183692956469    15.994914619570
         N           -0.658880514427     0.384473048674    -0.375541043531    14.003074004430
         C           -1.979958514427    -0.182876951326    -0.108153043531    12.000000000000
         C            1.838021985573     0.392850948674    -0.378731743531    12.000000000000
         C           -3.015858514427     0.569714048674    -0.930876043531    12.000000000000
         C           -2.287801514427    -0.161077951326     1.385753956469    12.000000000000
         C            0.479775485573    -0.318707951326    -0.173554043531    12.000000000000
         C            2.038988485573     1.409957048674     0.767477956469    12.000000000000
         H           -1.931033514427    -1.224095951326    -0.442104043531     1.007825032230
         H           -0.592741514427     1.365705048674    -0.620250043531     1.007825032230
         H            1.767166485573     0.967808048674    -1.333084043531     1.007825032230
         H           -4.007912514427     0.137199048674    -0.777016043531     1.007825032230
         H           -3.061044514427     1.621878048674    -0.627174043531     1.007825032230
         H           -2.779508514427     0.522489048674    -1.997300043531     1.007825032230
         H           -1.520845514427    -0.715417951326     1.931105956469     1.007825032230
         H           -3.259558514427    -0.623407951326     1.585781956469     1.007825032230
         H           -2.311909514427     0.869460048674     1.754352956469     1.007825032230
         H            3.024347485573     1.865933048674     0.648779956469     1.007825032230
         H            2.018192485573     0.869935048674     1.717985956469     1.007825032230
         H            1.284222485573     2.202861048674     0.793124956469     1.007825032230
         H            2.431260485573    -1.355284951326    -0.120703043531     1.007825032230

  Basis Set: AUG-CC-PVTZ
    Blend: AUG-CC-PVTZ
  Basis Set: (AUG-CC-PVTZ AUX)
    Blend: AUG-CC-PVTZ-JKFIT
	 Reference Energy          =    -439.1364112158958051 [Eh]
	 Singles Energy            =      -0.0000000000000000 [Eh]
	 Same-Spin Energy          =      -0.4458387477758276 [Eh]
	 Opposite-Spin Energy      =      -1.4629401775320912 [Eh]
	 Correlation Energy        =      -1.9087789253079188 [Eh]
	 Total Energy              =    -441.0451901412037046 [Eh]

	 ================> DF-SCS-MP2 Energies <==================
	-----------------------------------------------------------
	 SCS Same-Spin Scale       =       0.3333333333333333 [-]
	 SCS Opposite-Spin Scale   =       1.2000000000000000 [-]
	 SCS Same-Spin Energy      =      -0.1486129159252759 [Eh]
	 SCS Opposite-Spin Energy  =      -1.7555282130385093 [Eh]
	 SCS Correlation Energy    =      -1.9041411289637851 [Eh]
	 SCS Total Energy          =    -441.0405523448595773 [Eh]
	-----------------------------------------------------------

  Dipole Moment: [D]
     X:    -3.2733      Y:     2.9955      Z:    -0.2108     Total:     4.4420

*** Psi4 exiting successfully. Buy a developer a beer!
