                               Psi4 1.4a3.dev225

  ==> Input File <==

--------------------------------------------------------------------------
#psi4
#
memory 32 gb

molecule  {
0 1
  O        2.9110620    -0.5703060    -0.4523520
  O        0.5539390    -1.5540470     0.1662040
  N       -0.5943370     0.3369340    -0.3930300
  C       -1.9154150    -0.2304160    -0.1256420
  C        1.8655780     0.3788930    -0.3941620
  C       -2.9513150     0.5221750    -0.9483650
  C       -2.2232580    -0.2086170     1.3682650
  C        0.5439312    -0.3183672    -0.2054435
  C        2.1035320     1.3624180     0.7499890
  H       -1.8664900    -1.2716350    -0.4595930
  H       -0.5281980     1.3181660    -0.6377390
  H        1.8317100     0.9202690    -1.3505730
  H       -3.9433690     0.0896600    -0.7945050
  H       -2.9965010     1.5743390    -0.6446630
  H       -2.7149650     0.4749500    -2.0147890
  H       -1.4563020    -0.7629570     1.9136170
  H       -3.1950150    -0.6709470     1.5682930
  H       -2.2473660     0.8219210     1.7368640
  H        3.0888910     1.8183940     0.6312910
  H        2.0827360     0.8223960     1.7004970
  H        1.3487660     2.1553220     0.7756360
  H        2.4958040    -1.4028240    -0.1381920
units angstrom
no_reorient  #important for SAPT in psi4, default
symmetry c1  #important for SAPT in psi4, default
}

set PROPERTIES_ORIGIN ["COM"]
properties('MP2/aug-cc-pvtz', properties = ['dipole'])
--------------------------------------------------------------------------

    Molecular point group: c1
  Charge       = 0
  Multiplicity = 1
  Basis Set: AUG-CC-PVTZ
    Blend: AUG-CC-PVTZ
  Basis Set: (AUG-CC-PVTZ AUX)
    Blend: AUG-CC-PVTZ-JKFIT

    Orbital Energies [Eh]
    ---------------------

    Doubly Occupied:

       1A    -20.548719     2A    -20.521262     3A    -15.603938
       4A    -11.358735     5A    -11.299035     6A    -11.281686
       7A    -11.235895     8A    -11.231293     9A    -11.222648
      10A     -1.379390    11A     -1.336778    12A     -1.247987
      13A     -1.077526    14A     -1.027837    15A     -0.951524
      16A     -0.899557    17A     -0.826704    18A     -0.798833
      19A     -0.737955    20A     -0.678121    21A     -0.644670
      22A     -0.633531    23A     -0.624750    24A     -0.589905
      25A     -0.580608    26A     -0.571356    27A     -0.557172
      28A     -0.550576    29A     -0.537333    30A     -0.527198
      31A     -0.506476    32A     -0.499828    33A     -0.489650
      34A     -0.445095    35A     -0.430525    36A     -0.400759

  @DF-RHF Final Energy:  -439.13029037190012

   => Energetics <=

    Nuclear Repulsion Energy =            484.9602877861389629
    One-Electron Energy =               -1560.4714428659031000
    Two-Electron Energy =                 636.3808647078641343
    Total Energy =                       -439.1302903719000597
  Basis Set: (AUG-CC-PVTZ AUX)
    Blend: AUG-CC-PVTZ-RI
    Molecular point group: c1

    Geometry (in Angstrom), charge = 0, multiplicity = 1:

       Center              X                  Y                   Z               Mass
    ------------   -----------------  -----------------  -----------------  -----------------
         O            2.849939705836    -0.530223632122    -0.433733313034    15.994914619570
         O            0.492816705836    -1.513964632122     0.184822686966    15.994914619570
         N           -0.655459294164     0.377016367878    -0.374411313034    14.003074004430
         C           -1.976537294164    -0.190333632122    -0.107023313034    12.000000000000
         C            1.804455705836     0.418975367878    -0.375543313034    12.000000000000
         C           -3.012437294164     0.562257367878    -0.929746313034    12.000000000000
         C           -2.284380294164    -0.168534632122     1.386883686966    12.000000000000
         C            0.482808905836    -0.278284832122    -0.186824813034    12.000000000000
         C            2.042409705836     1.402500367878     0.768607686966    12.000000000000
         H           -1.927612294164    -1.231552632122    -0.440974313034     1.007825032230
         H           -0.589320294164     1.358248367878    -0.619120313034     1.007825032230
         H            1.770587705836     0.960351367878    -1.331954313034     1.007825032230
         H           -4.004491294164     0.129742367878    -0.775886313034     1.007825032230
         H           -3.057623294164     1.614421367878    -0.626044313034     1.007825032230
         H           -2.776087294164     0.515032367878    -1.996170313034     1.007825032230
         H           -1.517424294164    -0.722874632122     1.932235686966     1.007825032230
         H           -3.256137294164    -0.630864632122     1.586911686966     1.007825032230
         H           -2.308488294164     0.862003367878     1.755482686966     1.007825032230
         H            3.027768705836     1.858476367878     0.649909686966     1.007825032230
         H            2.021613705836     0.862478367878     1.719115686966     1.007825032230
         H            1.287643705836     2.195404367878     0.794254686966     1.007825032230
         H            2.434681705836    -1.362741632122    -0.119573313034     1.007825032230

  Basis Set: AUG-CC-PVTZ
    Blend: AUG-CC-PVTZ
  Basis Set: (AUG-CC-PVTZ AUX)
    Blend: AUG-CC-PVTZ-JKFIT
	 Reference Energy          =    -439.1302903719001165 [Eh]
	 Singles Energy            =      -0.0000000000000000 [Eh]
	 Same-Spin Energy          =      -0.4470003649881413 [Eh]
	 Opposite-Spin Energy      =      -1.4657673049246704 [Eh]
	 Correlation Energy        =      -1.9127676699128118 [Eh]
	 Total Energy              =    -441.0430580418129125 [Eh]

	 ================> DF-SCS-MP2 Energies <==================
	-----------------------------------------------------------
	 SCS Same-Spin Scale       =       0.3333333333333333 [-]
	 SCS Opposite-Spin Scale   =       1.2000000000000000 [-]
	 SCS Same-Spin Energy      =      -0.1490001216627138 [Eh]
	 SCS Opposite-Spin Energy  =      -1.7589207659096044 [Eh]
	 SCS Correlation Energy    =      -1.9079208875723181 [Eh]
	 SCS Total Energy          =    -441.0382112594724617 [Eh]
	-----------------------------------------------------------

  Dipole Moment: [D]
     X:    -3.5481      Y:     3.4042      Z:    -0.2415     Total:     4.9230

*** Psi4 exiting successfully. Buy a developer a beer!
