                               Psi4 1.3.2 release

  ==> Input File <==

--------------------------------------------------------------------------
#psi4
#
memory 32 gb

molecule  {
0 1
  O       -2.8835423     0.4522168    -0.3067820
  O       -0.5220660     1.5374290     0.0548780
  N        0.6562510    -0.3746370    -0.3360270
  C        1.9647450     0.2268840    -0.0956960
  C       -1.8012180    -0.4504720    -0.3698720
  C        3.0067800    -0.5070980    -0.9241520
  C        2.2930000     0.2310680     1.3932270
  C       -0.4863206     0.3121654    -0.1960760
  C       -1.9724170    -1.5121580     0.7102480
  H        1.8788190     1.2611790    -0.4401960
  H        0.6035260    -1.3822150    -0.4365740
  H       -1.7868920    -0.9288770    -1.3618540
  H        3.9904500    -0.0508330    -0.7882090
  H        3.0812650    -1.5550640    -0.6116920
  H        2.7529100    -0.4768670    -1.9861430
  H        1.5225120     0.7762450     1.9430400
  H        3.2574000     0.7146530     1.5762130
  H        2.3438960    -0.7932520     1.7757830
  H       -2.9590570    -1.9673470     0.6070900
  H       -1.9090200    -1.0432980     1.6949070
  H       -1.2193110    -2.3035120     0.6420620
  H       -2.4442120     1.3312090    -0.1521090
units angstrom
no_reorient  #important for SAPT in psi4, default
symmetry c1  #important for SAPT in psi4, default
}

set PROPERTIES_ORIGIN ["COM"]
properties('MP2/aug-cc-pvtz', properties = ['dipole'])
--------------------------------------------------------------------------

    Molecular point group: c1
  Charge       = 0
  Multiplicity = 1
  Basis Set: AUG-CC-PVTZ
    Blend: AUG-CC-PVTZ
  Basis Set: (AUG-CC-PVTZ AUX)
    Blend: AUG-CC-PVTZ-JKFIT

    Orbital Energies [Eh]
    ---------------------

    Doubly Occupied:

       1A    -20.548515     2A    -20.529909     3A    -15.598466
       4A    -11.358296     5A    -11.297106     6A    -11.278603
       7A    -11.233310     8A    -11.230416     9A    -11.223159
      10A     -1.391533    11A     -1.342660    12A     -1.250810
      13A     -1.074011    14A     -1.023905    15A     -0.950823
      16A     -0.895257    17A     -0.823571    18A     -0.797547
      19A     -0.734779    20A     -0.678182    21A     -0.649569
      22A     -0.630972    23A     -0.628954    24A     -0.596803
      25A     -0.580919    26A     -0.566267    27A     -0.556010
      28A     -0.548983    29A     -0.539183    30A     -0.529750
      31A     -0.510664    32A     -0.502631    33A     -0.491902
      34A     -0.443898    35A     -0.433422    36A     -0.402423

  @DF-RHF Final Energy:  -439.13583135590085

   => Energetics <=

    Nuclear Repulsion Energy =            485.1818256631282793
    One-Electron Energy =               -1560.8888984469781462
    Two-Electron Energy =                 636.5712414279490758
    Total Energy =                       -439.1358313559009048
  Basis Set: (AUG-CC-PVTZ AUX)
    Blend: AUG-CC-PVTZ-RI
    Molecular point group: c1

    Geometry (in Angstrom), charge = 0, multiplicity = 1:

       Center              X                  Y                   Z               Mass
    ------------   -----------------  -----------------  -----------------  -----------------
         O           -2.883203156158     0.454393716301    -0.306470315200    15.994914619570
         O           -0.521726856158     1.539605916301     0.055189684800    15.994914619570
         N            0.656590143842    -0.372460083699    -0.335715315200    14.003074004430
         C            1.965084143842     0.229060916301    -0.095384315200    12.000000000000
         C           -1.800878856158    -0.448295083699    -0.369560315200    12.000000000000
         C            3.007119143842    -0.504921083699    -0.923840315200    12.000000000000
         C            2.293339143842     0.233244916301     1.393538684800    12.000000000000
         C           -0.485981456158     0.314342316301    -0.195764315200    12.000000000000
         C           -1.972077856158    -1.509981083699     0.710559684800    12.000000000000
         H            1.879158143842     1.263355916301    -0.439884315200     1.007825032230
         H            0.603865143842    -1.380038083699    -0.436262315200     1.007825032230
         H           -1.786552856158    -0.926700083699    -1.361542315200     1.007825032230
         H            3.990789143842    -0.048656083699    -0.787897315200     1.007825032230
         H            3.081604143842    -1.552887083699    -0.611380315200     1.007825032230
         H            2.753249143842    -0.474690083699    -1.985831315200     1.007825032230
         H            1.522851143842     0.778421916301     1.943351684800     1.007825032230
         H            3.257739143842     0.716829916301     1.576524684800     1.007825032230
         H            2.344235143842    -0.791075083699     1.776094684800     1.007825032230
         H           -2.958717856158    -1.965170083699     0.607401684800     1.007825032230
         H           -1.908680856158    -1.041121083699     1.695218684800     1.007825032230
         H           -1.218971856158    -2.301335083699     0.642373684800     1.007825032230
         H           -2.443872856158     1.333385916301    -0.151797315200     1.007825032230

  Basis Set: AUG-CC-PVTZ
    Blend: AUG-CC-PVTZ
  Basis Set: (AUG-CC-PVTZ AUX)
    Blend: AUG-CC-PVTZ-JKFIT
	 Reference Energy          =    -439.1358313559008479 [Eh]
	 Singles Energy            =      -0.0000000000000000 [Eh]
	 Same-Spin Energy          =      -0.4464364862506187 [Eh]
	 Opposite-Spin Energy      =      -1.4644391349235022 [Eh]
	 Correlation Energy        =      -1.9108756211741209 [Eh]
	 Total Energy              =    -441.0467069770749617 [Eh]

	 ================> DF-SCS-MP2 Energies <==================
	-----------------------------------------------------------
	 SCS Same-Spin Scale       =       0.3333333333333333 [-]
	 SCS Opposite-Spin Scale   =       1.2000000000000000 [-]
	 SCS Same-Spin Energy      =      -0.1488121620835395 [Eh]
	 SCS Opposite-Spin Energy  =      -1.7573269619082026 [Eh]
	 SCS Correlation Energy    =      -1.9061391239917422 [Eh]
	 SCS Total Energy          =    -441.0419704798925977 [Eh]
	-----------------------------------------------------------

  Dipole Moment: [D]
     X:     3.5660      Y:    -3.1145      Z:    -0.1519     Total:     4.7370

*** Psi4 exiting successfully. Buy a developer a beer!
