                               Psi4 1.3.2 release

  ==> Input File <==

--------------------------------------------------------------------------
#psi4
#
memory 32 gb

molecule  {
0 1
  O       -2.8756320     0.4615000    -0.3051040
  O       -0.5220660     1.5374290     0.0548780
  N        0.6562510    -0.3746370    -0.3360270
  C        1.9647450     0.2268840    -0.0956960
  C       -1.8012180    -0.4504720    -0.3698720
  C        3.0067800    -0.5070980    -0.9241520
  C        2.2930000     0.2310680     1.3932270
  C       -0.4961055     0.3308745    -0.2056916
  C       -1.9840472    -1.5156930     0.7048481
  H        1.8788190     1.2611790    -0.4401960
  H        0.6035260    -1.3822150    -0.4365740
  H       -1.7868920    -0.9288770    -1.3618540
  H        3.9904500    -0.0508330    -0.7882090
  H        3.0812650    -1.5550640    -0.6116920
  H        2.7529100    -0.4768670    -1.9861430
  H        1.5225120     0.7762450     1.9430400
  H        3.2574000     0.7146530     1.5762130
  H        2.3438960    -0.7932520     1.7757830
  H       -2.9590570    -1.9673470     0.6070900
  H       -1.9090200    -1.0432980     1.6949070
  H       -1.2193110    -2.3035120     0.6420620
  H       -2.4442120     1.3312090    -0.1521090
units angstrom
no_reorient  #important for SAPT in psi4, default
symmetry c1  #important for SAPT in psi4, default
}

set PROPERTIES_ORIGIN ["COM"]
properties('MP2/aug-cc-pvtz', properties = ['dipole'])
--------------------------------------------------------------------------

    Molecular point group: c1
  Charge       = 0
  Multiplicity = 1
  Basis Set: AUG-CC-PVTZ
    Blend: AUG-CC-PVTZ
  Basis Set: (AUG-CC-PVTZ AUX)
    Blend: AUG-CC-PVTZ-JKFIT

    Orbital Energies [Eh]
    ---------------------

    Doubly Occupied:

       1A    -20.547719     2A    -20.533972     3A    -15.594686
       4A    -11.358793     5A    -11.297233     6A    -11.276763
       7A    -11.231905     8A    -11.230958     9A    -11.221927
      10A     -1.399880    11A     -1.346773    12A     -1.246757
      13A     -1.071339    14A     -1.023348    15A     -0.949459
      16A     -0.895501    17A     -0.821710    18A     -0.794000
      19A     -0.736558    20A     -0.678923    21A     -0.649661
      22A     -0.633415    23A     -0.628252    24A     -0.597103
      25A     -0.581938    26A     -0.568326    27A     -0.554737
      28A     -0.549205    29A     -0.538546    30A     -0.529063
      31A     -0.513313    32A     -0.503016    33A     -0.491513
      34A     -0.444717    35A     -0.435424    36A     -0.400939

  @DF-RHF Final Energy:  -439.13787468041392

   => Energetics <=

    Nuclear Repulsion Energy =            485.2213856913893437
    One-Electron Energy =               -1560.9637716010620352
    Two-Electron Energy =                 636.6045112292588328
    Total Energy =                       -439.1378746804139155
  Basis Set: (AUG-CC-PVTZ AUX)
    Blend: AUG-CC-PVTZ-RI
    Molecular point group: c1

    Geometry (in Angstrom), charge = 0, multiplicity = 1:

       Center              X                  Y                   Z               Mass
    ------------   -----------------  -----------------  -----------------  -----------------
         O           -2.874297722885     0.461155278346    -0.303622575945    15.994914619570
         O           -0.520731722885     1.537084278346     0.056359424055    15.994914619570
         N            0.657585277115    -0.374981721654    -0.334545575945    14.003074004430
         C            1.966079277115     0.226539278346    -0.094214575945    12.000000000000
         C           -1.799883722885    -0.450816721654    -0.368390575945    12.000000000000
         C            3.008114277115    -0.507442721654    -0.922670575945    12.000000000000
         C            2.294334277115     0.230723278346     1.394708424055    12.000000000000
         C           -0.494771222885     0.330529778346    -0.204210175945    12.000000000000
         C           -1.982712922885    -1.516037721654     0.706329524055    12.000000000000
         H            1.880153277115     1.260834278346    -0.438714575945     1.007825032230
         H            0.604860277115    -1.382559721654    -0.435092575945     1.007825032230
         H           -1.785557722885    -0.929221721654    -1.360372575945     1.007825032230
         H            3.991784277115    -0.051177721654    -0.786727575945     1.007825032230
         H            3.082599277115    -1.555408721654    -0.610210575945     1.007825032230
         H            2.754244277115    -0.477211721654    -1.984661575945     1.007825032230
         H            1.523846277115     0.775900278346     1.944521424055     1.007825032230
         H            3.258734277115     0.714308278346     1.577694424055     1.007825032230
         H            2.345230277115    -0.793596721654     1.777264424055     1.007825032230
         H           -2.957722722885    -1.967691721654     0.608571424055     1.007825032230
         H           -1.907685722885    -1.043642721654     1.696388424055     1.007825032230
         H           -1.217976722885    -2.303856721654     0.643543424055     1.007825032230
         H           -2.442877722885     1.330864278346    -0.150627575945     1.007825032230

  Basis Set: AUG-CC-PVTZ
    Blend: AUG-CC-PVTZ
  Basis Set: (AUG-CC-PVTZ AUX)
    Blend: AUG-CC-PVTZ-JKFIT
	 Reference Energy          =    -439.1378746804139155 [Eh]
	 Singles Energy            =      -0.0000000000000000 [Eh]
	 Same-Spin Energy          =      -0.4459147933492053 [Eh]
	 Opposite-Spin Energy      =      -1.4634590514912698 [Eh]
	 Correlation Energy        =      -1.9093738448404749 [Eh]
	 Total Energy              =    -441.0472485252544175 [Eh]

	 ================> DF-SCS-MP2 Energies <==================
	-----------------------------------------------------------
	 SCS Same-Spin Scale       =       0.3333333333333333 [-]
	 SCS Opposite-Spin Scale   =       1.2000000000000000 [-]
	 SCS Same-Spin Energy      =      -0.1486382644497351 [Eh]
	 SCS Opposite-Spin Energy  =      -1.7561508617895236 [Eh]
	 SCS Correlation Energy    =      -1.9047891262392587 [Eh]
	 SCS Total Energy          =    -441.0426638066531950 [Eh]
	-----------------------------------------------------------

  Dipole Moment: [D]
     X:     3.4216      Y:    -3.0246      Z:    -0.1450     Total:     4.5691

*** Psi4 exiting successfully. Buy a developer a beer!
