                               Psi4 1.3.2 release

  ==> Input File <==

--------------------------------------------------------------------------
#psi4
#
memory 32 gb

molecule  {
0 1
  O       -2.8756320     0.4615000    -0.3051040
  O       -0.5220660     1.5374290     0.0548780
  N        0.6562510    -0.3746370    -0.3360270
  C        1.9647450     0.2268840    -0.0956960
  C       -1.8012180    -0.4504720    -0.3698720
  C        3.0067800    -0.5070980    -0.9241520
  C        2.2930000     0.2310680     1.3932270
  C       -0.4931590     0.3235730    -0.1949090
  C       -1.9724170    -1.5121580     0.7102480
  H        1.8788190     1.2611790    -0.4401960
  H        0.6035260    -1.3822150    -0.4365740
  H       -1.7868920    -0.9288770    -1.3618540
  H        3.9904500    -0.0508330    -0.7882090
  H        3.0812650    -1.5550640    -0.6116920
  H        2.7529100    -0.4768670    -1.9861430
  H        1.5225120     0.7762450     1.9430400
  H        3.2574000     0.7146530     1.5762130
  H        2.3438960    -0.7932520     1.7757830
  H       -2.9590570    -1.9673470     0.6070900
  H       -1.9090200    -1.0432980     1.6949070
  H       -1.2193110    -2.3035120     0.6420620
  H       -2.5320048     1.1542257    -0.1832431
units angstrom
no_reorient  #important for SAPT in psi4, default
symmetry c1  #important for SAPT in psi4, default
}

set PROPERTIES_ORIGIN ["COM"]
properties('MP2/aug-cc-pvtz', properties = ['dipole'])
--------------------------------------------------------------------------

    Molecular point group: c1
  Charge       = 0
  Multiplicity = 1
  Basis Set: AUG-CC-PVTZ
    Blend: AUG-CC-PVTZ
  Basis Set: (AUG-CC-PVTZ AUX)
    Blend: AUG-CC-PVTZ-JKFIT

    Orbital Energies [Eh]
    ---------------------

    Doubly Occupied:

       1A    -20.535127     2A    -20.528819     3A    -15.594782
       4A    -11.357745     5A    -11.301093     6A    -11.276652
       7A    -11.232917     8A    -11.231901     9A    -11.221701
      10A     -1.428559    11A     -1.373854    12A     -1.246738
      13A     -1.075523    14A     -1.033365    15A     -0.949334
      16A     -0.898318    17A     -0.831584    18A     -0.798105
      19A     -0.758652    20A     -0.685009    21A     -0.655882
      22A     -0.634363    23A     -0.629031    24A     -0.596676
      25A     -0.586939    26A     -0.576346    27A     -0.555033
      28A     -0.550257    29A     -0.542468    30A     -0.532871
      31A     -0.523699    32A     -0.502000    33A     -0.491173
      34A     -0.454513    35A     -0.430767    36A     -0.399985

  @DF-RHF Final Energy:  -439.09621337877633

   => Energetics <=

    Nuclear Repulsion Energy =            486.4952020643512469
    One-Electron Energy =               -1563.1392714283558689
    Two-Electron Energy =                 637.5478559852284661
    Total Energy =                       -439.0962133787762696
  Basis Set: (AUG-CC-PVTZ AUX)
    Blend: AUG-CC-PVTZ-RI
    Molecular point group: c1

    Geometry (in Angstrom), charge = 0, multiplicity = 1:

       Center              X                  Y                   Z               Mass
    ------------   -----------------  -----------------  -----------------  -----------------
         O           -2.874957098630     0.462860658668    -0.304864520610    15.994914619570
         O           -0.521391098630     1.538789658668     0.055117479390    15.994914619570
         N            0.656925901370    -0.373276341332    -0.335787520610    14.003074004430
         C            1.965419901370     0.228244658668    -0.095456520610    12.000000000000
         C           -1.800543098630    -0.449111341332    -0.369632520610    12.000000000000
         C            3.007454901370    -0.505737341332    -0.923912520610    12.000000000000
         C            2.293674901370     0.232428658668     1.393466479390    12.000000000000
         C           -0.492484098630     0.324933658668    -0.194669520610    12.000000000000
         C           -1.971742098630    -1.510797341332     0.710487479390    12.000000000000
         H            1.879493901370     1.262539658668    -0.439956520610     1.007825032230
         H            0.604200901370    -1.380854341332    -0.436334520610     1.007825032230
         H           -1.786217098630    -0.927516341332    -1.361614520610     1.007825032230
         H            3.991124901370    -0.049472341332    -0.787969520610     1.007825032230
         H            3.081939901370    -1.553703341332    -0.611452520610     1.007825032230
         H            2.753584901370    -0.475506341332    -1.985903520610     1.007825032230
         H            1.523186901370     0.777605658668     1.943279479390     1.007825032230
         H            3.258074901370     0.716013658668     1.576452479390     1.007825032230
         H            2.344570901370    -0.791891341332     1.776022479390     1.007825032230
         H           -2.958382098630    -1.965986341332     0.607329479390     1.007825032230
         H           -1.908345098630    -1.041937341332     1.695146479390     1.007825032230
         H           -1.218636098630    -2.302151341332     0.642301479390     1.007825032230
         H           -2.531329898630     1.155586358668    -0.183003620610     1.007825032230

  Basis Set: AUG-CC-PVTZ
    Blend: AUG-CC-PVTZ
  Basis Set: (AUG-CC-PVTZ AUX)
    Blend: AUG-CC-PVTZ-JKFIT
	 Reference Energy          =    -439.0962133787763264 [Eh]
	 Singles Energy            =      -0.0000000000000000 [Eh]
	 Same-Spin Energy          =      -0.4431187191631157 [Eh]
	 Opposite-Spin Energy      =      -1.4580948543981238 [Eh]
	 Correlation Energy        =      -1.9012135735612397 [Eh]
	 Total Energy              =    -440.9974269523375483 [Eh]

	 ================> DF-SCS-MP2 Energies <==================
	-----------------------------------------------------------
	 SCS Same-Spin Scale       =       0.3333333333333333 [-]
	 SCS Opposite-Spin Scale   =       1.2000000000000000 [-]
	 SCS Same-Spin Energy      =      -0.1477062397210386 [Eh]
	 SCS Opposite-Spin Energy  =      -1.7497138252777484 [Eh]
	 SCS Correlation Energy    =      -1.8974200649987871 [Eh]
	 SCS Total Energy          =    -440.9936334437751384 [Eh]
	-----------------------------------------------------------

  Dipole Moment: [D]
     X:     3.2659      Y:    -3.2778      Z:    -0.1805     Total:     4.6306

*** Psi4 exiting successfully. Buy a developer a beer!
