                               Psi4 1.3.2 release

  ==> Input File <==

--------------------------------------------------------------------------
#psi4
#
memory 32 gb

molecule  {
0 1
  O       -2.8756320     0.4615000    -0.3051040
  O       -0.5220660     1.5374290     0.0548780
  N        0.6562510    -0.3746370    -0.3360270
  C        1.9757797     0.2046621    -0.1015072
  C       -1.8012180    -0.4504720    -0.3698720
  C        3.0067800    -0.5070980    -0.9241520
  C        2.2930000     0.2310680     1.3932270
  C       -0.5053606     0.3043318    -0.2010647
  C       -1.9724170    -1.5121580     0.7102480
  H        1.8788190     1.2611790    -0.4401960
  H        0.6035260    -1.3822150    -0.4365740
  H       -1.7868920    -0.9288770    -1.3618540
  H        3.9904500    -0.0508330    -0.7882090
  H        3.0812650    -1.5550640    -0.6116920
  H        2.7529100    -0.4768670    -1.9861430
  H        1.5225120     0.7762450     1.9430400
  H        3.2574000     0.7146530     1.5762130
  H        2.3438960    -0.7932520     1.7757830
  H       -2.9590570    -1.9673470     0.6070900
  H       -1.9090200    -1.0432980     1.6949070
  H       -1.2193110    -2.3035120     0.6420620
  H       -2.4442120     1.3312090    -0.1521090
units angstrom
no_reorient  #important for SAPT in psi4, default
symmetry c1  #important for SAPT in psi4, default
}

set PROPERTIES_ORIGIN ["COM"]
properties('MP2/aug-cc-pvtz', properties = ['dipole'])
--------------------------------------------------------------------------

    Molecular point group: c1
  Charge       = 0
  Multiplicity = 1
  Basis Set: AUG-CC-PVTZ
    Blend: AUG-CC-PVTZ
  Basis Set: (AUG-CC-PVTZ AUX)
    Blend: AUG-CC-PVTZ-JKFIT

    Orbital Energies [Eh]
    ---------------------

    Doubly Occupied:

       1A    -20.548558     2A    -20.529616     3A    -15.597405
       4A    -11.360230     5A    -11.298517     6A    -11.278594
       7A    -11.232403     8A    -11.232146     9A    -11.222493
      10A     -1.389936    11A     -1.343020    12A     -1.246252
      13A     -1.076061    14A     -1.026916    15A     -0.951441
      16A     -0.899687    17A     -0.822218    18A     -0.793129
      19A     -0.738117    20A     -0.677919    21A     -0.649916
      22A     -0.630996    23A     -0.629152    24A     -0.594326
      25A     -0.582596    26A     -0.568522    27A     -0.555120
      28A     -0.548834    29A     -0.539611    30A     -0.528302
      31A     -0.510770    32A     -0.505517    33A     -0.485739
      34A     -0.445667    35A     -0.436064    36A     -0.399857

  @DF-RHF Final Energy:  -439.13402209468234

   => Energetics <=

    Nuclear Repulsion Energy =            485.2495978544748709
    One-Electron Energy =               -1561.0159381900152766
    Two-Electron Energy =                 636.6323182408581260
    Total Energy =                       -439.1340220946823365
  Basis Set: (AUG-CC-PVTZ AUX)
    Blend: AUG-CC-PVTZ-RI
    Molecular point group: c1

    Geometry (in Angstrom), charge = 0, multiplicity = 1:

       Center              X                  Y                   Z               Mass
    ------------   -----------------  -----------------  -----------------  -----------------
         O           -2.875525214824     0.465295457128    -0.304008459032    15.994914619570
         O           -0.521959214824     1.541224457128     0.055973540968    15.994914619570
         N            0.656357785176    -0.370841542872    -0.334931459032    14.003074004430
         C            1.975886485176     0.208457557128    -0.100411659032    12.000000000000
         C           -1.801111214824    -0.446676542872    -0.368776459032    12.000000000000
         C            3.006886785176    -0.503302542872    -0.923056459032    12.000000000000
         C            2.293106785176     0.234863457128     1.394322540968    12.000000000000
         C           -0.505253814824     0.308127257128    -0.199969159032    12.000000000000
         C           -1.972310214824    -1.508362542872     0.711343540968    12.000000000000
         H            1.878925785176     1.264974457128    -0.439100459032     1.007825032230
         H            0.603632785176    -1.378419542872    -0.435478459032     1.007825032230
         H           -1.786785214824    -0.925081542872    -1.360758459032     1.007825032230
         H            3.990556785176    -0.047037542872    -0.787113459032     1.007825032230
         H            3.081371785176    -1.551268542872    -0.610596459032     1.007825032230
         H            2.753016785176    -0.473071542872    -1.985047459032     1.007825032230
         H            1.522618785176     0.780040457128     1.944135540968     1.007825032230
         H            3.257506785176     0.718448457128     1.577308540968     1.007825032230
         H            2.344002785176    -0.789456542872     1.776878540968     1.007825032230
         H           -2.958950214824    -1.963551542872     0.608185540968     1.007825032230
         H           -1.908913214824    -1.039502542872     1.696002540968     1.007825032230
         H           -1.219204214824    -2.299716542872     0.643157540968     1.007825032230
         H           -2.444105214824     1.335004457128    -0.151013459032     1.007825032230

  Basis Set: AUG-CC-PVTZ
    Blend: AUG-CC-PVTZ
  Basis Set: (AUG-CC-PVTZ AUX)
    Blend: AUG-CC-PVTZ-JKFIT
	 Reference Energy          =    -439.1340220946823365 [Eh]
	 Singles Energy            =      -0.0000000000000000 [Eh]
	 Same-Spin Energy          =      -0.4467299392400979 [Eh]
	 Opposite-Spin Energy      =      -1.4648723238887313 [Eh]
	 Correlation Energy        =      -1.9116022631288292 [Eh]
	 Total Energy              =    -441.0456243578111639 [Eh]

	 ================> DF-SCS-MP2 Energies <==================
	-----------------------------------------------------------
	 SCS Same-Spin Scale       =       0.3333333333333333 [-]
	 SCS Opposite-Spin Scale   =       1.2000000000000000 [-]
	 SCS Same-Spin Energy      =      -0.1489099797466993 [Eh]
	 SCS Opposite-Spin Energy  =      -1.7578467886664775 [Eh]
	 SCS Correlation Energy    =      -1.9067567684131768 [Eh]
	 SCS Total Energy          =    -441.0407788630955110 [Eh]
	-----------------------------------------------------------

  Dipole Moment: [D]
     X:     3.4534      Y:    -3.1703      Z:    -0.1694     Total:     4.6910

*** Psi4 exiting successfully. Buy a developer a beer!
