                               Psi4 1.3.2 release

  ==> Input File <==

--------------------------------------------------------------------------
#psi4
#
memory 32 gb

molecule  {
0 1
  O       -2.8756320     0.4615000    -0.3051040
  O       -0.5220660     1.5374290     0.0548780
  N        0.6562510    -0.3746370    -0.3360270
  C        1.9647450     0.2268840    -0.0956960
  C       -1.7282830    -0.4358477    -0.3409894
  C        3.0067800    -0.5070980    -0.9241520
  C        2.2930000     0.2310680     1.3932270
  C       -0.4931590     0.3235730    -0.1949090
  C       -1.9724170    -1.5121580     0.7102480
  H        1.8788190     1.2611790    -0.4401960
  H        0.6035260    -1.3822150    -0.4365740
  H       -1.7868920    -0.9288770    -1.3618540
  H        3.9904500    -0.0508330    -0.7882090
  H        3.0812650    -1.5550640    -0.6116920
  H        2.7529100    -0.4768670    -1.9861430
  H        1.5225120     0.7762450     1.9430400
  H        3.2574000     0.7146530     1.5762130
  H        2.3438960    -0.7932520     1.7757830
  H       -2.9467409    -2.0006091     0.6518919
  H       -1.9090200    -1.0432980     1.6949070
  H       -1.2193110    -2.3035120     0.6420620
  H       -2.4442120     1.3312090    -0.1521090
units angstrom
no_reorient  #important for SAPT in psi4, default
symmetry c1  #important for SAPT in psi4, default
}

set PROPERTIES_ORIGIN ["COM"]
properties('MP2/aug-cc-pvtz', properties = ['dipole'])
--------------------------------------------------------------------------

    Molecular point group: c1
  Charge       = 0
  Multiplicity = 1
  Basis Set: AUG-CC-PVTZ
    Blend: AUG-CC-PVTZ
  Basis Set: (AUG-CC-PVTZ AUX)
    Blend: AUG-CC-PVTZ-JKFIT

    Orbital Energies [Eh]
    ---------------------

    Doubly Occupied:

       1A    -20.545629     2A    -20.533831     3A    -15.596457
       4A    -11.359167     5A    -11.298386     6A    -11.277903
       7A    -11.233832     8A    -11.232763     9A    -11.222854
      10A     -1.398600    11A     -1.332561    12A     -1.250423
      13A     -1.077924    14A     -1.026352    15A     -0.950402
      16A     -0.908770    17A     -0.821646    18A     -0.794882
      19A     -0.735102    20A     -0.678082    21A     -0.647271
      22A     -0.633186    23A     -0.628631    24A     -0.597486
      25A     -0.581358    26A     -0.559767    27A     -0.555147
      28A     -0.550241    29A     -0.535663    30A     -0.524084
      31A     -0.517869    32A     -0.503083    33A     -0.492618
      34A     -0.445988    35A     -0.440194    36A     -0.402005

  @DF-RHF Final Energy:  -439.12871966251208

   => Energetics <=

    Nuclear Repulsion Energy =            486.0830505682789067
    One-Electron Energy =               -1562.6432287532895771
    Two-Electron Energy =                 637.4314585224987013
    Total Energy =                       -439.1287196625120259
  Basis Set: (AUG-CC-PVTZ AUX)
    Blend: AUG-CC-PVTZ-RI
    Molecular point group: c1

    Geometry (in Angstrom), charge = 0, multiplicity = 1:

       Center              X                  Y                   Z               Mass
    ------------   -----------------  -----------------  -----------------  -----------------
         O           -2.882402958658     0.460417099948    -0.308092123495    15.994914619570
         O           -0.528836958658     1.536346099948     0.051889876505    15.994914619570
         N            0.649480041342    -0.375719900052    -0.339015123495    14.003074004430
         C            1.957974041342     0.225801099948    -0.098684123495    12.000000000000
         C           -1.735053958658    -0.436930600052    -0.343977523495    12.000000000000
         C            3.000009041342    -0.508180900052    -0.927140123495    12.000000000000
         C            2.286229041342     0.229985099948     1.390238876505    12.000000000000
         C           -0.499929958658     0.322490099948    -0.197897123495    12.000000000000
         C           -1.979187958658    -1.513240900052     0.707259876505    12.000000000000
         H            1.872048041342     1.260096099948    -0.443184123495     1.007825032230
         H            0.596755041342    -1.383297900052    -0.439562123495     1.007825032230
         H           -1.793662958658    -0.929959900052    -1.364842123495     1.007825032230
         H            3.983679041342    -0.051915900052    -0.791197123495     1.007825032230
         H            3.074494041342    -1.556146900052    -0.614680123495     1.007825032230
         H            2.746139041342    -0.477949900052    -1.989131123495     1.007825032230
         H            1.515741041342     0.775162099948     1.940051876505     1.007825032230
         H            3.250629041342     0.713570099948     1.573224876505     1.007825032230
         H            2.337125041342    -0.794334900052     1.772794876505     1.007825032230
         H           -2.953511858658    -2.001692000052     0.648903776505     1.007825032230
         H           -1.915790958658    -1.044380900052     1.691918876505     1.007825032230
         H           -1.226081958658    -2.304594900052     0.639073876505     1.007825032230
         H           -2.450982958658     1.330126099948    -0.155097123495     1.007825032230

  Basis Set: AUG-CC-PVTZ
    Blend: AUG-CC-PVTZ
  Basis Set: (AUG-CC-PVTZ AUX)
    Blend: AUG-CC-PVTZ-JKFIT
	 Reference Energy          =    -439.1287196625120828 [Eh]
	 Singles Energy            =      -0.0000000000000000 [Eh]
	 Same-Spin Energy          =      -0.4467732235304103 [Eh]
	 Opposite-Spin Energy      =      -1.4654944405513137 [Eh]
	 Correlation Energy        =      -1.9122676640817240 [Eh]
	 Total Energy              =    -441.0409873265937790 [Eh]

	 ================> DF-SCS-MP2 Energies <==================
	-----------------------------------------------------------
	 SCS Same-Spin Scale       =       0.3333333333333333 [-]
	 SCS Opposite-Spin Scale   =       1.2000000000000000 [-]
	 SCS Same-Spin Energy      =      -0.1489244078434701 [Eh]
	 SCS Opposite-Spin Energy  =      -1.7585933286615765 [Eh]
	 SCS Correlation Energy    =      -1.9075177365050466 [Eh]
	 SCS Total Energy          =    -441.0362373990171250 [Eh]
	-----------------------------------------------------------

  Dipole Moment: [D]
     X:     3.5240      Y:    -3.1438      Z:    -0.0925     Total:     4.7233

*** Psi4 exiting successfully. Buy a developer a beer!
