                               Psi4 1.3.2 release

  ==> Input File <==

--------------------------------------------------------------------------
#psi4
#
memory 32 gb

molecule  {
0 1
  O       -2.8756320     0.4615000    -0.3051040
  O       -0.5220660     1.5374290     0.0548780
  N        0.6562510    -0.3746370    -0.3360270
  C        1.9647450     0.2268840    -0.0956960
  C       -1.7890242    -0.4478313    -0.3652618
  C        3.0067800    -0.5070980    -0.9241520
  C        2.2930000     0.2310680     1.3932270
  C       -0.4931590     0.3235730    -0.1949090
  C       -1.9724170    -1.5121580     0.7102480
  H        1.8788190     1.2611790    -0.4401960
  H        0.6035260    -1.3822150    -0.4365740
  H       -1.7868920    -0.9288770    -1.3618540
  H        3.9904500    -0.0508330    -0.7882090
  H        3.0812650    -1.5550640    -0.6116920
  H        2.7529100    -0.4768670    -1.9861430
  H        1.5225120     0.7762450     1.9430400
  H        3.2574000     0.7146530     1.5762130
  H        2.3438960    -0.7932520     1.7757830
  H       -2.9571913    -1.9729798     0.6145407
  H       -1.9090200    -1.0432980     1.6949070
  H       -1.2193110    -2.3035120     0.6420620
  H       -2.4442120     1.3312090    -0.1521090
units angstrom
no_reorient  #important for SAPT in psi4, default
symmetry c1  #important for SAPT in psi4, default
}

set PROPERTIES_ORIGIN ["COM"]
properties('MP2/aug-cc-pvtz', properties = ['dipole'])
--------------------------------------------------------------------------

    Molecular point group: c1
  Charge       = 0
  Multiplicity = 1
  Basis Set: AUG-CC-PVTZ
    Blend: AUG-CC-PVTZ
  Basis Set: (AUG-CC-PVTZ AUX)
    Blend: AUG-CC-PVTZ-JKFIT

    Orbital Energies [Eh]
    ---------------------

    Doubly Occupied:

       1A    -20.547394     2A    -20.532711     3A    -15.595877
       4A    -11.358565     5A    -11.297379     6A    -11.277372
       7A    -11.232401     8A    -11.231209     9A    -11.222401
      10A     -1.397384    11A     -1.343761    12A     -1.248409
      13A     -1.073093    14A     -1.024207    15A     -0.949969
      16A     -0.897158    17A     -0.822234    18A     -0.794972
      19A     -0.736320    20A     -0.678697    21A     -0.649122
      22A     -0.632681    23A     -0.628765    24A     -0.597168
      25A     -0.581207    26A     -0.565836    27A     -0.555179
      28A     -0.548646    29A     -0.538853    30A     -0.529502
      31A     -0.513467    32A     -0.502895    33A     -0.491755
      34A     -0.444522    35A     -0.436309    36A     -0.401551

  @DF-RHF Final Energy:  -439.13738835501141

   => Energetics <=

    Nuclear Repulsion Energy =            485.4555587476034475
    One-Electron Energy =               -1561.4279522247525165
    Two-Electron Energy =                 636.8350051221377726
    Total Energy =                       -439.1373883550113533
  Basis Set: (AUG-CC-PVTZ AUX)
    Blend: AUG-CC-PVTZ-RI
    Molecular point group: c1

    Geometry (in Angstrom), charge = 0, multiplicity = 1:

       Center              X                  Y                   Z               Mass
    ------------   -----------------  -----------------  -----------------  -----------------
         O           -2.876762555368     0.461301634280    -0.305583155143    15.994914619570
         O           -0.523196555368     1.537230634280     0.054398844857    15.994914619570
         N            0.655120444632    -0.374835365720    -0.336506155143    14.003074004430
         C            1.963614444632     0.226685634280    -0.096175155143    12.000000000000
         C           -1.790154755368    -0.448029665720    -0.365740955143    12.000000000000
         C            3.005649444632    -0.507296365720    -0.924631155143    12.000000000000
         C            2.291869444632     0.230869634280     1.392747844857    12.000000000000
         C           -0.494289555368     0.323374634280    -0.195388155143    12.000000000000
         C           -1.973547555368    -1.512356365720     0.709768844857    12.000000000000
         H            1.877688444632     1.260980634280    -0.440675155143     1.007825032230
         H            0.602395444632    -1.382413365720    -0.437053155143     1.007825032230
         H           -1.788022555368    -0.929075365720    -1.362333155143     1.007825032230
         H            3.989319444632    -0.051031365720    -0.788688155143     1.007825032230
         H            3.080134444632    -1.555262365720    -0.612171155143     1.007825032230
         H            2.751779444632    -0.477065365720    -1.986622155143     1.007825032230
         H            1.521381444632     0.776046634280     1.942560844857     1.007825032230
         H            3.256269444632     0.714454634280     1.575733844857     1.007825032230
         H            2.342765444632    -0.793450365720     1.775303844857     1.007825032230
         H           -2.958321855368    -1.973178165720     0.614061544857     1.007825032230
         H           -1.910150555368    -1.043496365720     1.694427844857     1.007825032230
         H           -1.220441555368    -2.303710365720     0.641582844857     1.007825032230
         H           -2.445342555368     1.331010634280    -0.152588155143     1.007825032230

  Basis Set: AUG-CC-PVTZ
    Blend: AUG-CC-PVTZ
  Basis Set: (AUG-CC-PVTZ AUX)
    Blend: AUG-CC-PVTZ-JKFIT
	 Reference Energy          =    -439.1373883550114101 [Eh]
	 Singles Energy            =      -0.0000000000000000 [Eh]
	 Same-Spin Energy          =      -0.4461025320532175 [Eh]
	 Opposite-Spin Energy      =      -1.4638529702230483 [Eh]
	 Correlation Energy        =      -1.9099555022762658 [Eh]
	 Total Energy              =    -441.0473438572876717 [Eh]

	 ================> DF-SCS-MP2 Energies <==================
	-----------------------------------------------------------
	 SCS Same-Spin Scale       =       0.3333333333333333 [-]
	 SCS Opposite-Spin Scale   =       1.2000000000000000 [-]
	 SCS Same-Spin Energy      =      -0.1487008440177391 [Eh]
	 SCS Opposite-Spin Energy  =      -1.7566235642676580 [Eh]
	 SCS Correlation Energy    =      -1.9053244082853971 [Eh]
	 SCS Total Energy          =    -441.0427127632968336 [Eh]
	-----------------------------------------------------------

  Dipole Moment: [D]
     X:     3.4719      Y:    -3.0737      Z:    -0.1348     Total:     4.6389

*** Psi4 exiting successfully. Buy a developer a beer!
