                               Psi4 1.3.2 release

  ==> Input File <==

--------------------------------------------------------------------------
#psi4
#
memory 32 gb

molecule  {
0 1
  O       -2.8756320     0.4615000    -0.3051040
  O       -0.5220660     1.5374290     0.0548780
  N        0.6562510    -0.3746370    -0.3360270
  C        1.9647450     0.2268840    -0.0956960
  C       -1.8012180    -0.4504720    -0.3698720
  C        3.0067800    -0.5070980    -0.9241520
  C        2.2930000     0.2310680     1.3932270
  C       -0.4931590     0.3235730    -0.1949090
  C       -1.9742890    -1.5674051     0.6526995
  H        1.8788190     1.2611790    -0.4401960
  H        0.6035260    -1.3822150    -0.4365740
  H       -1.7935204    -0.9798370    -1.3356972
  H        3.9904500    -0.0508330    -0.7882090
  H        3.0812650    -1.5550640    -0.6116920
  H        2.7529100    -0.4768670    -1.9861430
  H        1.5225120     0.7762450     1.9430400
  H        3.2574000     0.7146530     1.5762130
  H        2.3438960    -0.7932520     1.7757830
  H       -2.9590570    -1.9673470     0.6070900
  H       -1.9090200    -1.0432980     1.6949070
  H       -1.2193110    -2.3035120     0.6420620
  H       -2.4442120     1.3312090    -0.1521090
units angstrom
no_reorient  #important for SAPT in psi4, default
symmetry c1  #important for SAPT in psi4, default
}

set PROPERTIES_ORIGIN ["COM"]
properties('MP2/aug-cc-pvtz', properties = ['dipole'])
--------------------------------------------------------------------------

    Molecular point group: c1
  Charge       = 0
  Multiplicity = 1
  Basis Set: AUG-CC-PVTZ
    Blend: AUG-CC-PVTZ
  Basis Set: (AUG-CC-PVTZ AUX)
    Blend: AUG-CC-PVTZ-JKFIT

    Orbital Energies [Eh]
    ---------------------

    Doubly Occupied:

       1A    -20.549932     2A    -20.533354     3A    -15.596358
       4A    -11.359920     5A    -11.298112     6A    -11.277519
       7A    -11.232520     8A    -11.231278     9A    -11.222394
      10A     -1.397937    11A     -1.346703    12A     -1.248573
      13A     -1.072786    14A     -1.025564    15A     -0.950025
      16A     -0.895034    17A     -0.822583    18A     -0.795303
      19A     -0.737655    20A     -0.679489    21A     -0.649727
      22A     -0.633992    23A     -0.628808    24A     -0.599362
      25A     -0.584027    26A     -0.577426    27A     -0.555185
      28A     -0.552051    29A     -0.535871    30A     -0.519589
      31A     -0.510656    32A     -0.503105    33A     -0.492072
      34A     -0.441592    35A     -0.435636    36A     -0.401534

  @DF-RHF Final Energy:  -439.13025493683165

   => Energetics <=

    Nuclear Repulsion Energy =            485.0307248660796517
    One-Electron Energy =               -1560.5346131543142292
    Two-Electron Energy =                 636.3736333514028729
    Total Energy =                       -439.1302549368316477
  Basis Set: (AUG-CC-PVTZ AUX)
    Blend: AUG-CC-PVTZ-RI
    Molecular point group: c1

    Geometry (in Angstrom), charge = 0, multiplicity = 1:

       Center              X                  Y                   Z               Mass
    ------------   -----------------  -----------------  -----------------  -----------------
         O           -2.875409714536     0.466948970821    -0.300037146649    15.994914619570
         O           -0.521843714536     1.542877970821     0.059944853351    15.994914619570
         N            0.656473285464    -0.369188029179    -0.330960146649    14.003074004430
         C            1.964967285464     0.232332970821    -0.090629146649    12.000000000000
         C           -1.800995714536    -0.445023029179    -0.364805146649    12.000000000000
         C            3.007002285464    -0.501649029179    -0.919085146649    12.000000000000
         C            2.293222285464     0.236516970821     1.398293853351    12.000000000000
         C           -0.492936714536     0.329021970821    -0.189842146649    12.000000000000
         C           -1.974066714536    -1.561956129179     0.657766353351    12.000000000000
         H            1.879041285464     1.266627970821    -0.435129146649     1.007825032230
         H            0.603748285464    -1.376766029179    -0.431507146649     1.007825032230
         H           -1.793298114536    -0.974388029179    -1.330630346649     1.007825032230
         H            3.990672285464    -0.045384029179    -0.783142146649     1.007825032230
         H            3.081487285464    -1.549615029179    -0.606625146649     1.007825032230
         H            2.753132285464    -0.471418029179    -1.981076146649     1.007825032230
         H            1.522734285464     0.781693970821     1.948106853351     1.007825032230
         H            3.257622285464     0.720101970821     1.581279853351     1.007825032230
         H            2.344118285464    -0.787803029179     1.780849853351     1.007825032230
         H           -2.958834714536    -1.961898029179     0.612156853351     1.007825032230
         H           -1.908797714536    -1.037849029179     1.699973853351     1.007825032230
         H           -1.219088714536    -2.298063029179     0.647128853351     1.007825032230
         H           -2.443989714536     1.336657970821    -0.147042146649     1.007825032230

  Basis Set: AUG-CC-PVTZ
    Blend: AUG-CC-PVTZ
  Basis Set: (AUG-CC-PVTZ AUX)
    Blend: AUG-CC-PVTZ-JKFIT
	 Reference Energy          =    -439.1302549368316477 [Eh]
	 Singles Energy            =      -0.0000000000000000 [Eh]
	 Same-Spin Energy          =      -0.4461809705839042 [Eh]
	 Opposite-Spin Energy      =      -1.4640293329048797 [Eh]
	 Correlation Energy        =      -1.9102103034887838 [Eh]
	 Total Energy              =    -441.0404652403204295 [Eh]

	 ================> DF-SCS-MP2 Energies <==================
	-----------------------------------------------------------
	 SCS Same-Spin Scale       =       0.3333333333333333 [-]
	 SCS Opposite-Spin Scale   =       1.2000000000000000 [-]
	 SCS Same-Spin Energy      =      -0.1487269901946347 [Eh]
	 SCS Opposite-Spin Energy  =      -1.7568351994858555 [Eh]
	 SCS Correlation Energy    =      -1.9055621896804902 [Eh]
	 SCS Total Energy          =    -441.0358171265121427 [Eh]
	-----------------------------------------------------------

  Dipole Moment: [D]
     X:     3.4697      Y:    -3.0718      Z:    -0.1739     Total:     4.6373

*** Psi4 exiting successfully. Buy a developer a beer!
