                               Psi4 1.3.2 release

  ==> Input File <==

--------------------------------------------------------------------------
#psi4
#
memory 32 gb

molecule  {
0 1
  O       -2.8756320     0.4615000    -0.3051040
  O       -0.5220660     1.5374290     0.0548780
  N        0.6562510    -0.3746370    -0.3360270
  C        1.9647450     0.2268840    -0.0956960
  C       -1.8012180    -0.4504720    -0.3698720
  C        3.0067800    -0.5070980    -0.9241520
  C        2.2930000     0.2310680     1.3932270
  C       -0.4855058     0.3156797    -0.2192431
  C       -1.9724170    -1.5121580     0.7102480
  H        1.8788190     1.2611790    -0.4401960
  H        0.6035260    -1.3822150    -0.4365740
  H       -1.7695166    -0.9213077    -1.3650673
  H        3.9904500    -0.0508330    -0.7882090
  H        3.0812650    -1.5550640    -0.6116920
  H        2.7529100    -0.4768670    -1.9861430
  H        1.5225120     0.7762450     1.9430400
  H        3.2574000     0.7146530     1.5762130
  H        2.3438960    -0.7932520     1.7757830
  H       -2.9590570    -1.9673470     0.6070900
  H       -1.9090200    -1.0432980     1.6949070
  H       -1.2193110    -2.3035120     0.6420620
  H       -2.4442120     1.3312090    -0.1521090
units angstrom
no_reorient  #important for SAPT in psi4, default
symmetry c1  #important for SAPT in psi4, default
}

set PROPERTIES_ORIGIN ["COM"]
properties('MP2/aug-cc-pvtz', properties = ['dipole'])
--------------------------------------------------------------------------

    Molecular point group: c1
  Charge       = 0
  Multiplicity = 1
  Basis Set: AUG-CC-PVTZ
    Blend: AUG-CC-PVTZ
  Basis Set: (AUG-CC-PVTZ AUX)
    Blend: AUG-CC-PVTZ-JKFIT

    Orbital Energies [Eh]
    ---------------------

    Doubly Occupied:

       1A    -20.547578     2A    -20.528860     3A    -15.598327
       4A    -11.357668     5A    -11.297579     6A    -11.278536
       7A    -11.233196     8A    -11.231162     9A    -11.222946
      10A     -1.391292    11A     -1.343575    12A     -1.250536
      13A     -1.074125    14A     -1.024289    15A     -0.950632
      16A     -0.896404    17A     -0.823967    18A     -0.797825
      19A     -0.734722    20A     -0.678524    21A     -0.650412
      22A     -0.630786    23A     -0.628655    24A     -0.596504
      25A     -0.581141    26A     -0.567028    27A     -0.555887
      28A     -0.549086    29A     -0.539625    30A     -0.529559
      31A     -0.510133    32A     -0.502258    33A     -0.491683
      34A     -0.445091    35A     -0.432368    36A     -0.401874

  @DF-RHF Final Energy:  -439.13638790590585

   => Energetics <=

    Nuclear Repulsion Energy =            485.2847692158337054
    One-Electron Energy =               -1561.0946488790609692
    Two-Electron Energy =                 636.6734917573214716
    Total Energy =                       -439.1363879059058490
  Basis Set: (AUG-CC-PVTZ AUX)
    Blend: AUG-CC-PVTZ-RI
    Molecular point group: c1

    Geometry (in Angstrom), charge = 0, multiplicity = 1:

       Center              X                  Y                   Z               Mass
    ------------   -----------------  -----------------  -----------------  -----------------
         O           -2.876466157747     0.462164389637    -0.302851700394    15.994914619570
         O           -0.522900157747     1.538093389637     0.057130299606    15.994914619570
         N            0.655416842253    -0.373972610363    -0.333774700394    14.003074004430
         C            1.963910842253     0.227548389637    -0.093443700394    12.000000000000
         C           -1.802052157747    -0.449807610363    -0.367619700394    12.000000000000
         C            3.005945842253    -0.506433610363    -0.921899700394    12.000000000000
         C            2.292165842253     0.231732389637     1.395479299606    12.000000000000
         C           -0.486339957747     0.316344089637    -0.216990800394    12.000000000000
         C           -1.973251157747    -1.511493610363     0.712500299606    12.000000000000
         H            1.877984842253     1.261843389637    -0.437943700394     1.007825032230
         H            0.602691842253    -1.381550610363    -0.434321700394     1.007825032230
         H           -1.770350757747    -0.920643310363    -1.362815000394     1.007825032230
         H            3.989615842253    -0.050168610363    -0.785956700394     1.007825032230
         H            3.080430842253    -1.554399610363    -0.609439700394     1.007825032230
         H            2.752075842253    -0.476202610363    -1.983890700394     1.007825032230
         H            1.521677842253     0.776909389637     1.945292299606     1.007825032230
         H            3.256565842253     0.715317389637     1.578465299606     1.007825032230
         H            2.343061842253    -0.792587610363     1.778035299606     1.007825032230
         H           -2.959891157747    -1.966682610363     0.609342299606     1.007825032230
         H           -1.909854157747    -1.042633610363     1.697159299606     1.007825032230
         H           -1.220145157747    -2.302847610363     0.644314299606     1.007825032230
         H           -2.445046157747     1.331873389637    -0.149856700394     1.007825032230

  Basis Set: AUG-CC-PVTZ
    Blend: AUG-CC-PVTZ
  Basis Set: (AUG-CC-PVTZ AUX)
    Blend: AUG-CC-PVTZ-JKFIT
	 Reference Energy          =    -439.1363879059058490 [Eh]
	 Singles Energy            =      -0.0000000000000000 [Eh]
	 Same-Spin Energy          =      -0.4462595321303433 [Eh]
	 Opposite-Spin Energy      =      -1.4640403662974379 [Eh]
	 Correlation Energy        =      -1.9102998984277813 [Eh]
	 Total Energy              =    -441.0466878043336578 [Eh]

	 ================> DF-SCS-MP2 Energies <==================
	-----------------------------------------------------------
	 SCS Same-Spin Scale       =       0.3333333333333333 [-]
	 SCS Opposite-Spin Scale   =       1.2000000000000000 [-]
	 SCS Same-Spin Energy      =      -0.1487531773767811 [Eh]
	 SCS Opposite-Spin Energy  =      -1.7568484395569255 [Eh]
	 SCS Correlation Energy    =      -1.9056016169337067 [Eh]
	 SCS Total Energy          =    -441.0419895228395717 [Eh]
	-----------------------------------------------------------

  Dipole Moment: [D]
     X:     3.5470      Y:    -3.1397      Z:    -0.1619     Total:     4.7397

*** Psi4 exiting successfully. Buy a developer a beer!
