                               Psi4 1.4a3.dev225

  ==> Input File <==

--------------------------------------------------------------------------
#psi4
#
memory 32 gb

molecule  {
0 1
  O        2.9110620    -0.5703060    -0.4523520
  O        0.5539390    -1.5540470     0.1662040
  N       -0.5943370     0.3369340    -0.3930300
  C       -1.9154150    -0.2304160    -0.1256420
  C        1.8285905     0.4124741    -0.3921033
  C       -2.9513150     0.5221750    -0.9483650
  C       -2.2232580    -0.2086170     1.3682650
  C        0.5443190    -0.3662470    -0.1910430
  C        2.1035320     1.3624180     0.7499890
  H       -1.8664900    -1.2716350    -0.4595930
  H       -0.5281980     1.3181660    -0.6377390
  H        1.8317100     0.9202690    -1.3505730
  H       -3.9433690     0.0896600    -0.7945050
  H       -2.9965010     1.5743390    -0.6446630
  H       -2.7149650     0.4749500    -2.0147890
  H       -1.4563020    -0.7629570     1.9136170
  H       -3.1950150    -0.6709470     1.5682930
  H       -2.2473660     0.8219210     1.7368640
  H        3.0888910     1.8183940     0.6312910
  H        2.0827360     0.8223960     1.7004970
  H        1.3487660     2.1553220     0.7756360
  H        2.4958040    -1.4028240    -0.1381920
units angstrom
no_reorient  #important for SAPT in psi4, default
symmetry c1  #important for SAPT in psi4, default
}

set PROPERTIES_ORIGIN ["COM"]
properties('MP2/aug-cc-pvtz', properties = ['dipole'])
--------------------------------------------------------------------------

    Molecular point group: c1
  Charge       = 0
  Multiplicity = 1
  Basis Set: AUG-CC-PVTZ
    Blend: AUG-CC-PVTZ
  Basis Set: (AUG-CC-PVTZ AUX)
    Blend: AUG-CC-PVTZ-JKFIT

    Orbital Energies [Eh]
    ---------------------

    Doubly Occupied:

       1A    -20.543783     2A    -20.532835     3A    -15.596647
       4A    -11.359571     5A    -11.297308     6A    -11.278303
       7A    -11.233801     8A    -11.231447     9A    -11.221479
      10A     -1.393307    11A     -1.329475    12A     -1.248098
      13A     -1.074435    14A     -1.028153    15A     -0.949954
      16A     -0.898035    17A     -0.821130    18A     -0.795524
      19A     -0.732885    20A     -0.677022    21A     -0.639826
      22A     -0.635988    23A     -0.628594    24A     -0.595536
      25A     -0.579260    26A     -0.570935    27A     -0.555248
      28A     -0.549703    29A     -0.532994    30A     -0.527589
      31A     -0.509874    32A     -0.501824    33A     -0.491672
      34A     -0.448983    35A     -0.435593    36A     -0.402104

  @DF-RHF Final Energy:  -439.13414537846859

   => Energetics <=

    Nuclear Repulsion Energy =            485.0069955291635893
    One-Electron Energy =               -1560.5844549377231942
    Two-Electron Energy =                 636.4433140300910736
    Total Energy =                       -439.1341453784685882
  Basis Set: (AUG-CC-PVTZ AUX)
    Blend: AUG-CC-PVTZ-RI
    Molecular point group: c1

    Geometry (in Angstrom), charge = 0, multiplicity = 1:

       Center              X                  Y                   Z               Mass
    ------------   -----------------  -----------------  -----------------  -----------------
         O            2.853289930056    -0.528914773004    -0.435239937691    15.994914619570
         O            0.496166930056    -1.512655773004     0.183316062309    15.994914619570
         N           -0.652109069944     0.378325226996    -0.375917937691    14.003074004430
         C           -1.973187069944    -0.189024773004    -0.108529937691    12.000000000000
         C            1.770818430056     0.453865326996    -0.374991237691    12.000000000000
         C           -3.009087069944     0.563566226996    -0.931252937691    12.000000000000
         C           -2.281030069944    -0.167225773004     1.385377062309    12.000000000000
         C            0.486546930056    -0.324855773004    -0.173930937691    12.000000000000
         C            2.045759930056     1.403809226996     0.767101062309    12.000000000000
         H           -1.924262069944    -1.230243773004    -0.442480937691     1.007825032230
         H           -0.585970069944     1.359557226996    -0.620626937691     1.007825032230
         H            1.773937930056     0.961660226996    -1.333460937691     1.007825032230
         H           -4.001141069944     0.131051226996    -0.777392937691     1.007825032230
         H           -3.054273069944     1.615730226996    -0.627550937691     1.007825032230
         H           -2.772737069944     0.516341226996    -1.997676937691     1.007825032230
         H           -1.514074069944    -0.721565773004     1.930729062309     1.007825032230
         H           -3.252787069944    -0.629555773004     1.585405062309     1.007825032230
         H           -2.305138069944     0.863312226996     1.753976062309     1.007825032230
         H            3.031118930056     1.859785226996     0.648403062309     1.007825032230
         H            2.024963930056     0.863787226996     1.717609062309     1.007825032230
         H            1.290993930056     2.196713226996     0.792748062309     1.007825032230
         H            2.438031930056    -1.361432773004    -0.121079937691     1.007825032230

  Basis Set: AUG-CC-PVTZ
    Blend: AUG-CC-PVTZ
  Basis Set: (AUG-CC-PVTZ AUX)
    Blend: AUG-CC-PVTZ-JKFIT
	 Reference Energy          =    -439.1341453784685882 [Eh]
	 Singles Energy            =      -0.0000000000000000 [Eh]
	 Same-Spin Energy          =      -0.4462508160732668 [Eh]
	 Opposite-Spin Energy      =      -1.4650035352312476 [Eh]
	 Correlation Energy        =      -1.9112543513045144 [Eh]
	 Total Energy              =    -441.0453997297731235 [Eh]

	 ================> DF-SCS-MP2 Energies <==================
	-----------------------------------------------------------
	 SCS Same-Spin Scale       =       0.3333333333333333 [-]
	 SCS Opposite-Spin Scale   =       1.2000000000000000 [-]
	 SCS Same-Spin Energy      =      -0.1487502720244223 [Eh]
	 SCS Opposite-Spin Energy  =      -1.7580042422774971 [Eh]
	 SCS Correlation Energy    =      -1.9067545143019193 [Eh]
	 SCS Total Energy          =    -441.0408998927704829 [Eh]
	-----------------------------------------------------------

  Dipole Moment: [D]
     X:    -3.4875      Y:     3.2409      Z:    -0.1557     Total:     4.7635

*** Psi4 exiting successfully. Buy a developer a beer!
