                               Psi4 1.3.2 release

  ==> Input File <==

--------------------------------------------------------------------------
#psi4
#
memory 32 gb

molecule  {
0 1
  O       -2.8756320     0.4615000    -0.3051040
  O       -0.5004331     1.5377286     0.0549885
  N        0.6685077    -0.3548881    -0.3319343
  C        1.9647450     0.2268840    -0.0956960
  C       -1.8012180    -0.4504720    -0.3698720
  C        3.0067800    -0.5070980    -0.9241520
  C        2.2930000     0.2310680     1.3932270
  C       -0.4931590     0.3235730    -0.1949090
  C       -1.9724170    -1.5121580     0.7102480
  H        1.8788190     1.2611790    -0.4401960
  H        0.6035260    -1.3822150    -0.4365740
  H       -1.7868920    -0.9288770    -1.3618540
  H        3.9904500    -0.0508330    -0.7882090
  H        3.0812650    -1.5550640    -0.6116920
  H        2.7529100    -0.4768670    -1.9861430
  H        1.5225120     0.7762450     1.9430400
  H        3.2574000     0.7146530     1.5762130
  H        2.3438960    -0.7932520     1.7757830
  H       -2.9590570    -1.9673470     0.6070900
  H       -1.9090200    -1.0432980     1.6949070
  H       -1.2193110    -2.3035120     0.6420620
  H       -2.4442120     1.3312090    -0.1521090
units angstrom
no_reorient  #important for SAPT in psi4, default
symmetry c1  #important for SAPT in psi4, default
}

set PROPERTIES_ORIGIN ["COM"]
properties('MP2/aug-cc-pvtz', properties = ['dipole'])
--------------------------------------------------------------------------

    Molecular point group: c1
  Charge       = 0
  Multiplicity = 1
  Basis Set: AUG-CC-PVTZ
    Blend: AUG-CC-PVTZ
  Basis Set: (AUG-CC-PVTZ AUX)
    Blend: AUG-CC-PVTZ-JKFIT

    Orbital Energies [Eh]
    ---------------------

    Doubly Occupied:

       1A    -20.550023     2A    -20.531168     3A    -15.595828
       4A    -11.358056     5A    -11.299845     6A    -11.274707
       7A    -11.231913     8A    -11.231568     9A    -11.220989
      10A     -1.397577    11A     -1.348174    12A     -1.247677
      13A     -1.071758    14A     -1.024541    15A     -0.949080
      16A     -0.896706    17A     -0.824188    18A     -0.789601
      19A     -0.737842    20A     -0.679309    21A     -0.650383
      22A     -0.631538    23A     -0.629164    24A     -0.594985
      25A     -0.582498    26A     -0.568196    27A     -0.554285
      28A     -0.548904    29A     -0.539820    30A     -0.530457
      31A     -0.513925    32A     -0.502280    33A     -0.490097
      34A     -0.446441    35A     -0.435149    36A     -0.398635

  @DF-RHF Final Energy:  -439.13626187816851

   => Energetics <=

    Nuclear Repulsion Energy =            485.5756909930875622
    One-Electron Energy =               -1561.6692905850181887
    Two-Electron Energy =                 636.9573377137620582
    Total Energy =                       -439.1362618781685114
  Basis Set: (AUG-CC-PVTZ AUX)
    Blend: AUG-CC-PVTZ-RI
    Molecular point group: c1

    Geometry (in Angstrom), charge = 0, multiplicity = 1:

       Center              X                  Y                   Z               Mass
    ------------   -----------------  -----------------  -----------------  -----------------
         O           -2.879580687356     0.459353988796    -0.305554522522    15.994914619570
         O           -0.504381787356     1.535582588796     0.054537977478    15.994914619570
         N            0.664559012644    -0.357034111204    -0.332384822522    14.003074004430
         C            1.960796312644     0.224737988796    -0.096146522522    12.000000000000
         C           -1.805166687356    -0.452618011204    -0.370322522522    12.000000000000
         C            3.002831312644    -0.509244011204    -0.924602522522    12.000000000000
         C            2.289051312644     0.228921988796     1.392776477478    12.000000000000
         C           -0.497107687356     0.321426988796    -0.195359522522    12.000000000000
         C           -1.976365687356    -1.514304011204     0.709797477478    12.000000000000
         H            1.874870312644     1.259032988796    -0.440646522522     1.007825032230
         H            0.599577312644    -1.384361011204    -0.437024522522     1.007825032230
         H           -1.790840687356    -0.931023011204    -1.362304522522     1.007825032230
         H            3.986501312644    -0.052979011204    -0.788659522522     1.007825032230
         H            3.077316312644    -1.557210011204    -0.612142522522     1.007825032230
         H            2.748961312644    -0.479013011204    -1.986593522522     1.007825032230
         H            1.518563312644     0.774098988796     1.942589477478     1.007825032230
         H            3.253451312644     0.712506988796     1.575762477478     1.007825032230
         H            2.339947312644    -0.795398011204     1.775332477478     1.007825032230
         H           -2.963005687356    -1.969493011204     0.606639477478     1.007825032230
         H           -1.912968687356    -1.045444011204     1.694456477478     1.007825032230
         H           -1.223259687356    -2.305658011204     0.641611477478     1.007825032230
         H           -2.448160687356     1.329062988796    -0.152559522522     1.007825032230

  Basis Set: AUG-CC-PVTZ
    Blend: AUG-CC-PVTZ
  Basis Set: (AUG-CC-PVTZ AUX)
    Blend: AUG-CC-PVTZ-JKFIT
	 Reference Energy          =    -439.1362618781685114 [Eh]
	 Singles Energy            =      -0.0000000000000000 [Eh]
	 Same-Spin Energy          =      -0.4462976268030722 [Eh]
	 Opposite-Spin Energy      =      -1.4639989431824294 [Eh]
	 Correlation Energy        =      -1.9102965699855017 [Eh]
	 Total Energy              =    -441.0465584481540304 [Eh]

	 ================> DF-SCS-MP2 Energies <==================
	-----------------------------------------------------------
	 SCS Same-Spin Scale       =       0.3333333333333333 [-]
	 SCS Opposite-Spin Scale   =       1.2000000000000000 [-]
	 SCS Same-Spin Energy      =      -0.1487658756010241 [Eh]
	 SCS Opposite-Spin Energy  =      -1.7567987318189153 [Eh]
	 SCS Correlation Energy    =      -1.9055646074199393 [Eh]
	 SCS Total Energy          =    -441.0418264855884445 [Eh]
	-----------------------------------------------------------

  Dipole Moment: [D]
     X:     3.3292      Y:    -3.0927      Z:    -0.1579     Total:     4.5468

*** Psi4 exiting successfully. Buy a developer a beer!
