                               Psi4 1.3.2 release

  ==> Input File <==

--------------------------------------------------------------------------
#psi4
#
memory 32 gb

molecule  {
0 1
  O       -2.8756320     0.4615000    -0.3051040
  O       -0.5220660     1.5374290     0.0548780
  N        0.6562510    -0.3746370    -0.3360270
  C        1.9647450     0.2268840    -0.0956960
  C       -1.7933170    -0.4412110    -0.3680356
  C        3.0067800    -0.5070980    -0.9241520
  C        2.2930000     0.2310680     1.3932270
  C       -0.4931590     0.3235730    -0.1949090
  C       -1.9724170    -1.5121580     0.7102480
  H        1.8788190     1.2611790    -0.4401960
  H        0.6035260    -1.3822150    -0.4365740
  H       -1.7868920    -0.9288770    -1.3618540
  H        3.9904500    -0.0508330    -0.7882090
  H        3.0812650    -1.5550640    -0.6116920
  H        2.7529100    -0.4768670    -1.9861430
  H        1.5225120     0.7762450     1.9430400
  H        3.2574000     0.7146530     1.5762130
  H        2.3438960    -0.7932520     1.7757830
  H       -2.9590570    -1.9673470     0.6070900
  H       -1.9090200    -1.0432980     1.6949070
  H       -1.2193110    -2.3035120     0.6420620
  H       -2.4365406     1.3273745    -0.1521837
units angstrom
no_reorient  #important for SAPT in psi4, default
symmetry c1  #important for SAPT in psi4, default
}

set PROPERTIES_ORIGIN ["COM"]
properties('MP2/aug-cc-pvtz', properties = ['dipole'])
--------------------------------------------------------------------------

    Molecular point group: c1
  Charge       = 0
  Multiplicity = 1
  Basis Set: AUG-CC-PVTZ
    Blend: AUG-CC-PVTZ
  Basis Set: (AUG-CC-PVTZ AUX)
    Blend: AUG-CC-PVTZ-JKFIT

    Orbital Energies [Eh]
    ---------------------

    Doubly Occupied:

       1A    -20.548194     2A    -20.532810     3A    -15.595962
       4A    -11.358474     5A    -11.297242     6A    -11.277452
       7A    -11.232439     8A    -11.231109     9A    -11.222423
      10A     -1.398372    11A     -1.346418    12A     -1.248405
      13A     -1.072695    14A     -1.022998    15A     -0.950000
      16A     -0.896747    17A     -0.822294    18A     -0.794981
      19A     -0.737662    20A     -0.678840    21A     -0.649280
      22A     -0.632524    23A     -0.628956    24A     -0.597222
      25A     -0.581328    26A     -0.566364    27A     -0.555277
      28A     -0.548519    29A     -0.539610    30A     -0.529848
      31A     -0.513975    32A     -0.502982    33A     -0.491814
      34A     -0.443626    35A     -0.436263    36A     -0.401625

  @DF-RHF Final Energy:  -439.13751562798853

   => Energetics <=

    Nuclear Repulsion Energy =            485.5092823654728136
    One-Electron Energy =               -1561.5241373967469372
    Two-Electron Energy =                 636.8773394032857595
    Total Energy =                       -439.1375156279884777
  Basis Set: (AUG-CC-PVTZ AUX)
    Blend: AUG-CC-PVTZ-RI
    Molecular point group: c1

    Geometry (in Angstrom), charge = 0, multiplicity = 1:

       Center              X                  Y                   Z               Mass
    ------------   -----------------  -----------------  -----------------  -----------------
         O           -2.876414238502     0.460681807422    -0.305271396478    15.994914619570
         O           -0.522848238502     1.536610807422     0.054710603522    15.994914619570
         N            0.655468761498    -0.375455192578    -0.336194396478    14.003074004430
         C            1.963962761498     0.226065807422    -0.095863396478    12.000000000000
         C           -1.794099238502    -0.442029192578    -0.368202996478    12.000000000000
         C            3.005997761498    -0.507916192578    -0.924319396478    12.000000000000
         C            2.292217761498     0.230249807422     1.393059603522    12.000000000000
         C           -0.493941238502     0.322754807422    -0.195076396478    12.000000000000
         C           -1.973199238502    -1.512976192578     0.710080603522    12.000000000000
         H            1.878036761498     1.260360807422    -0.440363396478     1.007825032230
         H            0.602743761498    -1.383033192578    -0.436741396478     1.007825032230
         H           -1.787674238502    -0.929695192578    -1.362021396478     1.007825032230
         H            3.989667761498    -0.051651192578    -0.788376396478     1.007825032230
         H            3.080482761498    -1.555882192578    -0.611859396478     1.007825032230
         H            2.752127761498    -0.477685192578    -1.986310396478     1.007825032230
         H            1.521729761498     0.775426807422     1.942872603522     1.007825032230
         H            3.256617761498     0.713834807422     1.576045603522     1.007825032230
         H            2.343113761498    -0.794070192578     1.775615603522     1.007825032230
         H           -2.959839238502    -1.968165192578     0.606922603522     1.007825032230
         H           -1.909802238502    -1.044116192578     1.694739603522     1.007825032230
         H           -1.220093238502    -2.304330192578     0.641894603522     1.007825032230
         H           -2.437322838502     1.326556307422    -0.152351096478     1.007825032230

  Basis Set: AUG-CC-PVTZ
    Blend: AUG-CC-PVTZ
  Basis Set: (AUG-CC-PVTZ AUX)
    Blend: AUG-CC-PVTZ-JKFIT
	 Reference Energy          =    -439.1375156279885346 [Eh]
	 Singles Energy            =      -0.0000000000000000 [Eh]
	 Same-Spin Energy          =      -0.4461034580534056 [Eh]
	 Opposite-Spin Energy      =      -1.4637531218621707 [Eh]
	 Correlation Energy        =      -1.9098565799155762 [Eh]
	 Total Energy              =    -441.0473722079041181 [Eh]

	 ================> DF-SCS-MP2 Energies <==================
	-----------------------------------------------------------
	 SCS Same-Spin Scale       =       0.3333333333333333 [-]
	 SCS Opposite-Spin Scale   =       1.2000000000000000 [-]
	 SCS Same-Spin Energy      =      -0.1487011526844685 [Eh]
	 SCS Opposite-Spin Energy  =      -1.7565037462346047 [Eh]
	 SCS Correlation Energy    =      -1.9052048989190733 [Eh]
	 SCS Total Energy          =    -441.0427205269076012 [Eh]
	-----------------------------------------------------------

  Dipole Moment: [D]
     X:     3.4706      Y:    -3.0596      Z:    -0.1434     Total:     4.6289

*** Psi4 exiting successfully. Buy a developer a beer!
