                               Psi4 1.3.2 release

  ==> Input File <==

--------------------------------------------------------------------------
#psi4
#
memory 32 gb

molecule  {
0 1
  O       -2.8756320     0.4615000    -0.3051040
  O       -0.5220660     1.5374290     0.0548780
  N        0.6562510    -0.3746370    -0.3360270
  C        1.9647450     0.2268840    -0.0956960
  C       -1.8012180    -0.4504720    -0.3698720
  C        3.0067800    -0.5070980    -0.9241520
  C        2.2930000     0.2310680     1.3932270
  C       -0.4782534     0.3075531    -0.2436231
  C       -1.9724170    -1.5121580     0.7102480
  H        1.8788190     1.2611790    -0.4401960
  H        0.6035260    -1.3822150    -0.4365740
  H       -1.7521509    -0.9135950    -1.3679774
  H        3.9904500    -0.0508330    -0.7882090
  H        3.0812650    -1.5550640    -0.6116920
  H        2.7529100    -0.4768670    -1.9861430
  H        1.5225120     0.7762450     1.9430400
  H        3.2574000     0.7146530     1.5762130
  H        2.3438960    -0.7932520     1.7757830
  H       -2.9590570    -1.9673470     0.6070900
  H       -1.9090200    -1.0432980     1.6949070
  H       -1.2193110    -2.3035120     0.6420620
  H       -2.4442120     1.3312090    -0.1521090
units angstrom
no_reorient  #important for SAPT in psi4, default
symmetry c1  #important for SAPT in psi4, default
}

set PROPERTIES_ORIGIN ["COM"]
properties('MP2/aug-cc-pvtz', properties = ['dipole'])
--------------------------------------------------------------------------

    Molecular point group: c1
  Charge       = 0
  Multiplicity = 1
  Basis Set: AUG-CC-PVTZ
    Blend: AUG-CC-PVTZ
  Basis Set: (AUG-CC-PVTZ AUX)
    Blend: AUG-CC-PVTZ-JKFIT

    Orbital Energies [Eh]
    ---------------------

    Doubly Occupied:

       1A    -20.547405     2A    -20.525300     3A    -15.600952
       4A    -11.357156     5A    -11.297925     6A    -11.279824
       7A    -11.234076     8A    -11.231572     9A    -11.223598
      10A     -1.386032    11A     -1.341152    12A     -1.252283
      13A     -1.076010    14A     -1.024719    15A     -0.951393
      16A     -0.897858    17A     -0.825555    18A     -0.800679
      19A     -0.733021    20A     -0.678191    21A     -0.651162
      22A     -0.630776    23A     -0.626995    24A     -0.595945
      25A     -0.580446    26A     -0.566761    27A     -0.556676
      28A     -0.550040    29A     -0.539879    30A     -0.529133
      31A     -0.507752    32A     -0.501596    33A     -0.491718
      34A     -0.445236    35A     -0.429953    36A     -0.401981

  @DF-RHF Final Energy:  -439.13350380281383

   => Energetics <=

    Nuclear Repulsion Energy =            485.2239598715178772
    One-Electron Energy =               -1560.9734334836241487
    Two-Electron Energy =                 636.6159698092923236
    Total Energy =                       -439.1335038028138342
  Basis Set: (AUG-CC-PVTZ AUX)
    Blend: AUG-CC-PVTZ-RI
    Molecular point group: c1

    Geometry (in Angstrom), charge = 0, multiplicity = 1:

       Center              X                  Y                   Z               Mass
    ------------   -----------------  -----------------  -----------------  -----------------
         O           -2.877263523652     0.462848980217    -0.300597657839    15.994914619570
         O           -0.523697523652     1.538777980217     0.059384342161    15.994914619570
         N            0.654619476348    -0.373288019783    -0.331520657839    14.003074004430
         C            1.963113476348     0.228232980217    -0.091189657839    12.000000000000
         C           -1.802849523652    -0.449123019783    -0.365365657839    12.000000000000
         C            3.005148476348    -0.505749019783    -0.919645657839    12.000000000000
         C            2.291368476348     0.232416980217     1.397733342161    12.000000000000
         C           -0.479884923652     0.308902080217    -0.239116757839    12.000000000000
         C           -1.974048523652    -1.510809019783     0.714754342161    12.000000000000
         H            1.877187476348     1.262527980217    -0.435689657839     1.007825032230
         H            0.601894476348    -1.380866019783    -0.432067657839     1.007825032230
         H           -1.753782423652    -0.912246019783    -1.363471057839     1.007825032230
         H            3.988818476348    -0.049484019783    -0.783702657839     1.007825032230
         H            3.079633476348    -1.553715019783    -0.607185657839     1.007825032230
         H            2.751278476348    -0.475518019783    -1.981636657839     1.007825032230
         H            1.520880476348     0.777593980217     1.947546342161     1.007825032230
         H            3.255768476348     0.716001980217     1.580719342161     1.007825032230
         H            2.342264476348    -0.791903019783     1.780289342161     1.007825032230
         H           -2.960688523652    -1.965998019783     0.611596342161     1.007825032230
         H           -1.910651523652    -1.041949019783     1.699413342161     1.007825032230
         H           -1.220942523652    -2.302163019783     0.646568342161     1.007825032230
         H           -2.445843523652     1.332557980217    -0.147602657839     1.007825032230

  Basis Set: AUG-CC-PVTZ
    Blend: AUG-CC-PVTZ
  Basis Set: (AUG-CC-PVTZ AUX)
    Blend: AUG-CC-PVTZ-JKFIT
	 Reference Energy          =    -439.1335038028138342 [Eh]
	 Singles Energy            =      -0.0000000000000000 [Eh]
	 Same-Spin Energy          =      -0.4465350105067360 [Eh]
	 Opposite-Spin Energy      =      -1.4645610030188498 [Eh]
	 Correlation Energy        =      -1.9110960135255859 [Eh]
	 Total Energy              =    -441.0445998163394279 [Eh]

	 ================> DF-SCS-MP2 Energies <==================
	-----------------------------------------------------------
	 SCS Same-Spin Scale       =       0.3333333333333333 [-]
	 SCS Opposite-Spin Scale   =       1.2000000000000000 [-]
	 SCS Same-Spin Energy      =      -0.1488450035022453 [Eh]
	 SCS Opposite-Spin Energy  =      -1.7574732036226197 [Eh]
	 SCS Correlation Energy    =      -1.9063182071248650 [Eh]
	 SCS Total Energy          =    -441.0398220099386890 [Eh]
	-----------------------------------------------------------

  Dipole Moment: [D]
     X:     3.6324      Y:    -3.2191      Z:    -0.1784     Total:     4.8569

*** Psi4 exiting successfully. Buy a developer a beer!
