                               Psi4 1.3.2 release

  ==> Input File <==

--------------------------------------------------------------------------
#psi4
#
memory 32 gb

molecule  {
0 1
  O       -2.8756320     0.4615000    -0.3051040
  O       -0.5220660     1.5374290     0.0548780
  N        0.6562510    -0.3746370    -0.3360270
  C        1.9752795     0.2036904    -0.0963518
  C       -1.8012180    -0.4504720    -0.3698720
  C        3.0067800    -0.5070980    -0.9241520
  C        2.2930000     0.2310680     1.3932270
  C       -0.4931590     0.3235730    -0.1949090
  C       -1.9724170    -1.5121580     0.7102480
  H        1.8788190     1.2611790    -0.4401960
  H        0.6210335    -1.3832132    -0.4341943
  H       -1.7868920    -0.9288770    -1.3618540
  H        3.9904500    -0.0508330    -0.7882090
  H        3.0812650    -1.5550640    -0.6116920
  H        2.7529100    -0.4768670    -1.9861430
  H        1.5225120     0.7762450     1.9430400
  H        3.2574000     0.7146530     1.5762130
  H        2.3438960    -0.7932520     1.7757830
  H       -2.9590570    -1.9673470     0.6070900
  H       -1.9090200    -1.0432980     1.6949070
  H       -1.2193110    -2.3035120     0.6420620
  H       -2.4442120     1.3312090    -0.1521090
units angstrom
no_reorient  #important for SAPT in psi4, default
symmetry c1  #important for SAPT in psi4, default
}

set PROPERTIES_ORIGIN ["COM"]
properties('MP2/aug-cc-pvtz', properties = ['dipole'])
--------------------------------------------------------------------------

    Molecular point group: c1
  Charge       = 0
  Multiplicity = 1
  Basis Set: AUG-CC-PVTZ
    Blend: AUG-CC-PVTZ
  Basis Set: (AUG-CC-PVTZ AUX)
    Blend: AUG-CC-PVTZ-JKFIT

    Orbital Energies [Eh]
    ---------------------

    Doubly Occupied:

       1A    -20.547788     2A    -20.532701     3A    -15.595777
       4A    -11.359068     5A    -11.297386     6A    -11.277659
       7A    -11.232235     8A    -11.230612     9A    -11.222437
      10A     -1.397271    11A     -1.345901    12A     -1.248263
      13A     -1.073988    14A     -1.024362    15A     -0.951788
      16A     -0.895423    17A     -0.820094    18A     -0.795406
      19A     -0.736615    20A     -0.677757    21A     -0.648933
      22A     -0.632221    23A     -0.631059    24A     -0.597390
      25A     -0.582356    26A     -0.567475    27A     -0.555202
      28A     -0.548257    29A     -0.539700    30A     -0.529889
      31A     -0.511931    32A     -0.506857    33A     -0.486015
      34A     -0.444890    35A     -0.434590    36A     -0.401413

  @DF-RHF Final Energy:  -439.13654467644278

   => Energetics <=

    Nuclear Repulsion Energy =            485.3525563008957420
    One-Electron Energy =               -1561.2167847827386140
    Two-Electron Energy =                 636.7276838054001473
    Total Energy =                       -439.1365446764427816
  Basis Set: (AUG-CC-PVTZ AUX)
    Blend: AUG-CC-PVTZ-RI
    Molecular point group: c1

    Geometry (in Angstrom), charge = 0, multiplicity = 1:

       Center              X                  Y                   Z               Mass
    ------------   -----------------  -----------------  -----------------  -----------------
         O           -2.876730918661     0.463630797093    -0.305062136995    15.994914619570
         O           -0.523164918661     1.539559797093     0.054919863005    15.994914619570
         N            0.655152081339    -0.372506202907    -0.335985136995    14.003074004430
         C            1.974180581339     0.205821197093    -0.096309936995    12.000000000000
         C           -1.802316918661    -0.448341202907    -0.369830136995    12.000000000000
         C            3.005681081339    -0.504967202907    -0.924110136995    12.000000000000
         C            2.291901081339     0.233198797093     1.393268863005    12.000000000000
         C           -0.494257918661     0.325703797093    -0.194867136995    12.000000000000
         C           -1.973515918661    -1.510027202907     0.710289863005    12.000000000000
         H            1.877720081339     1.263309797093    -0.440154136995     1.007825032230
         H            0.619934581339    -1.381082402907    -0.434152436995     1.007825032230
         H           -1.787990918661    -0.926746202907    -1.361812136995     1.007825032230
         H            3.989351081339    -0.048702202907    -0.788167136995     1.007825032230
         H            3.080166081339    -1.552933202907    -0.611650136995     1.007825032230
         H            2.751811081339    -0.474736202907    -1.986101136995     1.007825032230
         H            1.521413081339     0.778375797093     1.943081863005     1.007825032230
         H            3.256301081339     0.716783797093     1.576254863005     1.007825032230
         H            2.342797081339    -0.791121202907     1.775824863005     1.007825032230
         H           -2.960155918661    -1.965216202907     0.607131863005     1.007825032230
         H           -1.910118918661    -1.041167202907     1.694948863005     1.007825032230
         H           -1.220409918661    -2.301381202907     0.642103863005     1.007825032230
         H           -2.445310918661     1.333339797093    -0.152067136995     1.007825032230

  Basis Set: AUG-CC-PVTZ
    Blend: AUG-CC-PVTZ
  Basis Set: (AUG-CC-PVTZ AUX)
    Blend: AUG-CC-PVTZ-JKFIT
	 Reference Energy          =    -439.1365446764427816 [Eh]
	 Singles Energy            =      -0.0000000000000000 [Eh]
	 Same-Spin Energy          =      -0.4462362233979356 [Eh]
	 Opposite-Spin Energy      =      -1.4639198197341550 [Eh]
	 Correlation Energy        =      -1.9101560431320905 [Eh]
	 Total Energy              =    -441.0467007195748579 [Eh]

	 ================> DF-SCS-MP2 Energies <==================
	-----------------------------------------------------------
	 SCS Same-Spin Scale       =       0.3333333333333333 [-]
	 SCS Opposite-Spin Scale   =       1.2000000000000000 [-]
	 SCS Same-Spin Energy      =      -0.1487454077993119 [Eh]
	 SCS Opposite-Spin Energy  =      -1.7567037836809860 [Eh]
	 SCS Correlation Energy    =      -1.9054491914802978 [Eh]
	 SCS Total Energy          =    -441.0419938679230540 [Eh]
	-----------------------------------------------------------

  Dipole Moment: [D]
     X:     3.4803      Y:    -3.0675      Z:    -0.1479     Total:     4.6415

*** Psi4 exiting successfully. Buy a developer a beer!
