                               Psi4 1.3.2 release

  ==> Input File <==

--------------------------------------------------------------------------
#psi4
#
memory 32 gb

molecule  {
0 1
  O       -2.8756320     0.4615000    -0.3051040
  O       -0.5220660     1.5374290     0.0548780
  N        0.6738753    -0.4184607    -0.3168941
  C        1.9647450     0.2268840    -0.0956960
  C       -1.8012180    -0.4504720    -0.3698720
  C        3.0067800    -0.5070980    -0.9241520
  C        2.2930000     0.2310680     1.3932270
  C       -0.4931590     0.3235730    -0.1949090
  C       -1.9724170    -1.5121580     0.7102480
  H        1.9151985     1.2668496    -0.4301305
  H        0.6035260    -1.3822150    -0.4365740
  H       -1.7868920    -0.9288770    -1.3618540
  H        3.9904500    -0.0508330    -0.7882090
  H        3.0812650    -1.5550640    -0.6116920
  H        2.7529100    -0.4768670    -1.9861430
  H        1.5225120     0.7762450     1.9430400
  H        3.2574000     0.7146530     1.5762130
  H        2.3438960    -0.7932520     1.7757830
  H       -2.9590570    -1.9673470     0.6070900
  H       -1.9090200    -1.0432980     1.6949070
  H       -1.2193110    -2.3035120     0.6420620
  H       -2.4442120     1.3312090    -0.1521090
units angstrom
no_reorient  #important for SAPT in psi4, default
symmetry c1  #important for SAPT in psi4, default
}

set PROPERTIES_ORIGIN ["COM"]
properties('MP2/aug-cc-pvtz', properties = ['dipole'])
--------------------------------------------------------------------------

    Molecular point group: c1
  Charge       = 0
  Multiplicity = 1
  Basis Set: AUG-CC-PVTZ
    Blend: AUG-CC-PVTZ
  Basis Set: (AUG-CC-PVTZ AUX)
    Blend: AUG-CC-PVTZ-JKFIT

    Orbital Energies [Eh]
    ---------------------

    Doubly Occupied:

       1A    -20.548902     2A    -20.539393     3A    -15.591700
       4A    -11.364178     5A    -11.298229     6A    -11.276181
       7A    -11.231200     8A    -11.230279     9A    -11.220250
      10A     -1.398272    11A     -1.346817    12A     -1.246058
      13A     -1.069709    14A     -1.023847    15A     -0.948415
      16A     -0.894516    17A     -0.822517    18A     -0.795706
      19A     -0.735664    20A     -0.681499    21A     -0.653195
      22A     -0.637057    23A     -0.625357    24A     -0.596301
      25A     -0.581997    26A     -0.567562    27A     -0.553912
      28A     -0.545850    29A     -0.539011    30A     -0.529393
      31A     -0.516321    32A     -0.502477    33A     -0.488986
      34A     -0.445949    35A     -0.436073    36A     -0.400772

  @DF-RHF Final Energy:  -439.13443867502485

   => Energetics <=

    Nuclear Repulsion Energy =            484.7742403587234321
    One-Electron Energy =               -1560.0502678428015315
    Two-Electron Energy =                 636.1415888090531325
    Total Energy =                       -439.1344386750248532
  Basis Set: (AUG-CC-PVTZ AUX)
    Blend: AUG-CC-PVTZ-RI
    Molecular point group: c1

    Geometry (in Angstrom), charge = 0, multiplicity = 1:

       Center              X                  Y                   Z               Mass
    ------------   -----------------  -----------------  -----------------  -----------------
         O           -2.877794273068     0.466137553732    -0.307224963642    15.994914619570
         O           -0.524228273068     1.542066553732     0.052757036358    15.994914619570
         N            0.671713026932    -0.413823146268    -0.319015063642    14.003074004430
         C            1.962582726932     0.231521553732    -0.097816963642    12.000000000000
         C           -1.803380273068    -0.445834446268    -0.371992963642    12.000000000000
         C            3.004617726932    -0.502460446268    -0.926272963642    12.000000000000
         C            2.290837726932     0.235705553732     1.391106036358    12.000000000000
         C           -0.495321273068     0.328210553732    -0.197029963642    12.000000000000
         C           -1.974579273068    -1.507520446268     0.708127036358    12.000000000000
         H            1.913036226932     1.271487153732    -0.432251463642     1.007825032230
         H            0.601363726932    -1.377577446268    -0.438694963642     1.007825032230
         H           -1.789054273068    -0.924239446268    -1.363974963642     1.007825032230
         H            3.988287726932    -0.046195446268    -0.790329963642     1.007825032230
         H            3.079102726932    -1.550426446268    -0.613812963642     1.007825032230
         H            2.750747726932    -0.472229446268    -1.988263963642     1.007825032230
         H            1.520349726932     0.780882553732     1.940919036358     1.007825032230
         H            3.255237726932     0.719290553732     1.574092036358     1.007825032230
         H            2.341733726932    -0.788614446268     1.773662036358     1.007825032230
         H           -2.961219273068    -1.962709446268     0.604969036358     1.007825032230
         H           -1.911182273068    -1.038660446268     1.692786036358     1.007825032230
         H           -1.221473273068    -2.298874446268     0.639941036358     1.007825032230
         H           -2.446374273068     1.335846553732    -0.154229963642     1.007825032230

  Basis Set: AUG-CC-PVTZ
    Blend: AUG-CC-PVTZ
  Basis Set: (AUG-CC-PVTZ AUX)
    Blend: AUG-CC-PVTZ-JKFIT
	 Reference Energy          =    -439.1344386750248532 [Eh]
	 Singles Energy            =      -0.0000000000000000 [Eh]
	 Same-Spin Energy          =      -0.4459222323150234 [Eh]
	 Opposite-Spin Energy      =      -1.4637901002634548 [Eh]
	 Correlation Energy        =      -1.9097123325784782 [Eh]
	 Total Energy              =    -441.0441510076033182 [Eh]

	 ================> DF-SCS-MP2 Energies <==================
	-----------------------------------------------------------
	 SCS Same-Spin Scale       =       0.3333333333333333 [-]
	 SCS Opposite-Spin Scale   =       1.2000000000000000 [-]
	 SCS Same-Spin Energy      =      -0.1486407441050078 [Eh]
	 SCS Opposite-Spin Energy  =      -1.7565481203161457 [Eh]
	 SCS Correlation Energy    =      -1.9051888644211534 [Eh]
	 SCS Total Energy          =    -441.0396275394460304 [Eh]
	-----------------------------------------------------------

  Dipole Moment: [D]
     X:     3.2960      Y:    -2.9311      Z:    -0.1693     Total:     4.4140

*** Psi4 exiting successfully. Buy a developer a beer!
