                               Psi4 1.3.2 release

  ==> Input File <==

--------------------------------------------------------------------------
#psi4
#
memory 32 gb

molecule  {
0 1
  O       -2.8756320     0.4615000    -0.3051040
  O       -0.5220660     1.5374290     0.0548780
  N        0.6562510    -0.3746370    -0.3360270
  C        1.9647450     0.2268840    -0.0956960
  C       -1.8012180    -0.4504720    -0.3698720
  C        3.0067800    -0.5070980    -0.9241520
  C        2.2930000     0.2310680     1.3932270
  C       -0.4931590     0.3235730    -0.1949090
  C       -1.9724170    -1.5121580     0.7102480
  H        1.8788190     1.2611790    -0.4401960
  H        0.6035260    -1.3822150    -0.4365740
  H       -1.7868920    -0.9288770    -1.3618540
  H        3.9904500    -0.0508330    -0.7882090
  H        3.0812650    -1.5550640    -0.6116920
  H        2.7529100    -0.4768670    -1.9861430
  H        1.5225120     0.7762450     1.9430400
  H        3.2574000     0.7146530     1.5762130
  H        2.3438960    -0.7932520     1.7757830
  H       -2.9590570    -1.9673470     0.6070900
  H       -1.9090200    -1.0432980     1.6949070
  H       -1.2193110    -2.3035120     0.6420620
  H       -2.4881084     1.2427173    -0.1676760
units angstrom
no_reorient  #important for SAPT in psi4, default
symmetry c1  #important for SAPT in psi4, default
}

set PROPERTIES_ORIGIN ["COM"]
properties('MP2/aug-cc-pvtz', properties = ['dipole'])
--------------------------------------------------------------------------

    Molecular point group: c1
  Charge       = 0
  Multiplicity = 1
  Basis Set: AUG-CC-PVTZ
    Blend: AUG-CC-PVTZ
  Basis Set: (AUG-CC-PVTZ AUX)
    Blend: AUG-CC-PVTZ-JKFIT

    Orbital Energies [Eh]
    ---------------------

    Doubly Occupied:

       1A    -20.542947     2A    -20.530360     3A    -15.595125
       4A    -11.357865     5A    -11.299250     6A    -11.276869
       7A    -11.232051     8A    -11.231877     9A    -11.221937
      10A     -1.405074    11A     -1.363290    12A     -1.247247
      13A     -1.073489    14A     -1.028368    15A     -0.949540
      16A     -0.896435    17A     -0.825811    18A     -0.796123
      19A     -0.747749    20A     -0.681760    21A     -0.653319
      22A     -0.633342    23A     -0.628834    24A     -0.596724
      25A     -0.584198    26A     -0.572014    27A     -0.554971
      28A     -0.549100    29A     -0.540980    30A     -0.531381
      31A     -0.519535    32A     -0.502324    33A     -0.491314
      34A     -0.449764    35A     -0.432416    36A     -0.400604

  @DF-RHF Final Energy:  -439.13385354866188

   => Energetics <=

    Nuclear Repulsion Energy =            485.8529282217544392
    One-Electron Energy =               -1562.0855860461563225
    Two-Electron Energy =                 637.0988042757401217
    Total Energy =                       -439.1338535486618184
  Basis Set: (AUG-CC-PVTZ AUX)
    Blend: AUG-CC-PVTZ-RI
    Molecular point group: c1

    Geometry (in Angstrom), charge = 0, multiplicity = 1:

       Center              X                  Y                   Z               Mass
    ------------   -----------------  -----------------  -----------------  -----------------
         O           -2.875294563950     0.462180355817    -0.304984196856    15.994914619570
         O           -0.521728563950     1.538109355817     0.054997803144    15.994914619570
         N            0.656588436050    -0.373956644183    -0.335907196856    14.003074004430
         C            1.965082436050     0.227564355817    -0.095576196856    12.000000000000
         C           -1.800880563950    -0.449791644183    -0.369752196856    12.000000000000
         C            3.007117436050    -0.506417644183    -0.924032196856    12.000000000000
         C            2.293337436050     0.231748355817     1.393346803144    12.000000000000
         C           -0.492821563950     0.324253355817    -0.194789196856    12.000000000000
         C           -1.972079563950    -1.511477644183     0.710367803144    12.000000000000
         H            1.879156436050     1.261859355817    -0.440076196856     1.007825032230
         H            0.603863436050    -1.381534644183    -0.436454196856     1.007825032230
         H           -1.786554563950    -0.928196644183    -1.361734196856     1.007825032230
         H            3.990787436050    -0.050152644183    -0.788089196856     1.007825032230
         H            3.081602436050    -1.554383644183    -0.611572196856     1.007825032230
         H            2.753247436050    -0.476186644183    -1.986023196856     1.007825032230
         H            1.522849436050     0.776925355817     1.943159803144     1.007825032230
         H            3.257737436050     0.715333355817     1.576332803144     1.007825032230
         H            2.344233436050    -0.792571644183     1.775902803144     1.007825032230
         H           -2.958719563950    -1.966666644183     0.607209803144     1.007825032230
         H           -1.908682563950    -1.042617644183     1.695026803144     1.007825032230
         H           -1.218973563950    -2.302831644183     0.642181803144     1.007825032230
         H           -2.487770963950     1.243397655817    -0.167556196856     1.007825032230

  Basis Set: AUG-CC-PVTZ
    Blend: AUG-CC-PVTZ
  Basis Set: (AUG-CC-PVTZ AUX)
    Blend: AUG-CC-PVTZ-JKFIT
	 Reference Energy          =    -439.1338535486618753 [Eh]
	 Singles Energy            =      -0.0000000000000000 [Eh]
	 Same-Spin Energy          =      -0.4445040204554971 [Eh]
	 Opposite-Spin Energy      =      -1.4606800527060342 [Eh]
	 Correlation Energy        =      -1.9051840731615313 [Eh]
	 Total Energy              =    -441.0390376218234110 [Eh]

	 ================> DF-SCS-MP2 Energies <==================
	-----------------------------------------------------------
	 SCS Same-Spin Scale       =       0.3333333333333333 [-]
	 SCS Opposite-Spin Scale   =       1.2000000000000000 [-]
	 SCS Same-Spin Energy      =      -0.1481680068184990 [Eh]
	 SCS Opposite-Spin Energy  =      -1.7528160632472409 [Eh]
	 SCS Correlation Energy    =      -1.9009840700657399 [Eh]
	 SCS Total Energy          =    -441.0348376187276358 [Eh]
	-----------------------------------------------------------

  Dipole Moment: [D]
     X:     3.3452      Y:    -3.1706      Z:    -0.1635     Total:     4.6119

*** Psi4 exiting successfully. Buy a developer a beer!
