                               Psi4 1.3.2 release

  ==> Input File <==

--------------------------------------------------------------------------
#psi4
#
memory 32 gb

molecule  {
0 1
  O       -2.8756320     0.4615000    -0.3051040
  O       -0.5220660     1.5374290     0.0548780
  N        0.6562510    -0.3746370    -0.3360270
  C        1.9647450     0.2268840    -0.0956960
  C       -1.8746222    -0.4680063    -0.3957940
  C        3.0067800    -0.5070980    -0.9241520
  C        2.2930000     0.2310680     1.3932270
  C       -0.4931590     0.3235730    -0.1949090
  C       -1.9724170    -1.5121580     0.7102480
  H        1.8788190     1.2611790    -0.4401960
  H        0.6035260    -1.3822150    -0.4365740
  H       -1.7868920    -0.9288770    -1.3618540
  H        3.9904500    -0.0508330    -0.7882090
  H        3.0812650    -1.5550640    -0.6116920
  H        2.7529100    -0.4768670    -1.9861430
  H        1.5225120     0.7762450     1.9430400
  H        3.2574000     0.7146530     1.5762130
  H        2.3438960    -0.7932520     1.7757830
  H       -2.9686688    -1.9328372     0.5625709
  H       -1.9090200    -1.0432980     1.6949070
  H       -1.2193110    -2.3035120     0.6420620
  H       -2.4442120     1.3312090    -0.1521090
units angstrom
no_reorient  #important for SAPT in psi4, default
symmetry c1  #important for SAPT in psi4, default
}

set PROPERTIES_ORIGIN ["COM"]
properties('MP2/aug-cc-pvtz', properties = ['dipole'])
--------------------------------------------------------------------------

    Molecular point group: c1
  Charge       = 0
  Multiplicity = 1
  Basis Set: AUG-CC-PVTZ
    Blend: AUG-CC-PVTZ
  Basis Set: (AUG-CC-PVTZ AUX)
    Blend: AUG-CC-PVTZ-JKFIT

    Orbital Energies [Eh]
    ---------------------

    Doubly Occupied:

       1A    -20.550355     2A    -20.530873     3A    -15.594297
       4A    -11.355387     5A    -11.298204     6A    -11.276151
       7A    -11.231584     8A    -11.228887     9A    -11.221487
      10A     -1.398326    11A     -1.357333    12A     -1.245318
      13A     -1.067825    14A     -1.022379    15A     -0.949062
      16A     -0.883584    17A     -0.823979    18A     -0.794645
      19A     -0.737169    20A     -0.682025    21A     -0.654472
      22A     -0.629778    23A     -0.628340    24A     -0.596207
      25A     -0.589849    26A     -0.571476    27A     -0.554405
      28A     -0.545316    29A     -0.542827    30A     -0.532521
      31A     -0.506807    32A     -0.501938    33A     -0.489731
      34A     -0.447539    35A     -0.419362    36A     -0.400319

  @DF-RHF Final Energy:  -439.13256705088281

   => Energetics <=

    Nuclear Repulsion Energy =            484.6177211679802213
    One-Electron Energy =               -1559.7810690632086335
    Two-Electron Energy =                 636.0307808443457134
    Total Energy =                       -439.1325670508828125
  Basis Set: (AUG-CC-PVTZ AUX)
    Blend: AUG-CC-PVTZ-RI
    Molecular point group: c1

    Geometry (in Angstrom), charge = 0, multiplicity = 1:

       Center              X                  Y                   Z               Mass
    ------------   -----------------  -----------------  -----------------  -----------------
         O           -2.868838940782     0.462839784888    -0.302388799512    15.994914619570
         O           -0.515272940782     1.538768784888     0.057593200488    15.994914619570
         N            0.663044059218    -0.373297215112    -0.333311799512    14.003074004430
         C            1.971538059218     0.228223784888    -0.092980799512    12.000000000000
         C           -1.867829140782    -0.466666515112    -0.393078799512    12.000000000000
         C            3.013573059218    -0.505758215112    -0.921436799512    12.000000000000
         C            2.299793059218     0.232407784888     1.395942200488    12.000000000000
         C           -0.486365940782     0.324912784888    -0.192193799512    12.000000000000
         C           -1.965623940782    -1.510818215112     0.712963200488    12.000000000000
         H            1.885612059218     1.262518784888    -0.437480799512     1.007825032230
         H            0.610319059218    -1.380875215112    -0.433858799512     1.007825032230
         H           -1.780098940782    -0.927537215112    -1.359138799512     1.007825032230
         H            3.997243059218    -0.049493215112    -0.785493799512     1.007825032230
         H            3.088058059218    -1.553724215112    -0.608976799512     1.007825032230
         H            2.759703059218    -0.475527215112    -1.983427799512     1.007825032230
         H            1.529305059218     0.777584784888     1.945755200488     1.007825032230
         H            3.264193059218     0.715992784888     1.578928200488     1.007825032230
         H            2.350689059218    -0.791912215112     1.778498200488     1.007825032230
         H           -2.961875740782    -1.931497415112     0.565286100488     1.007825032230
         H           -1.902226940782    -1.041958215112     1.697622200488     1.007825032230
         H           -1.212517940782    -2.302172215112     0.644777200488     1.007825032230
         H           -2.437418940782     1.332548784888    -0.149393799512     1.007825032230

  Basis Set: AUG-CC-PVTZ
    Blend: AUG-CC-PVTZ
  Basis Set: (AUG-CC-PVTZ AUX)
    Blend: AUG-CC-PVTZ-JKFIT
	 Reference Energy          =    -439.1325670508828125 [Eh]
	 Singles Energy            =      -0.0000000000000000 [Eh]
	 Same-Spin Energy          =      -0.4460082272793228 [Eh]
	 Opposite-Spin Energy      =      -1.4630560553204148 [Eh]
	 Correlation Energy        =      -1.9090642825997377 [Eh]
	 Total Energy              =    -441.0416313334825418 [Eh]

	 ================> DF-SCS-MP2 Energies <==================
	-----------------------------------------------------------
	 SCS Same-Spin Scale       =       0.3333333333333333 [-]
	 SCS Opposite-Spin Scale   =       1.2000000000000000 [-]
	 SCS Same-Spin Energy      =      -0.1486694090931076 [Eh]
	 SCS Opposite-Spin Energy  =      -1.7556672663844977 [Eh]
	 SCS Correlation Energy    =      -1.9043366754776052 [Eh]
	 SCS Total Energy          =    -441.0369037263604355 [Eh]
	-----------------------------------------------------------

  Dipole Moment: [D]
     X:     3.3653      Y:    -2.9792      Z:    -0.1929     Total:     4.4986

*** Psi4 exiting successfully. Buy a developer a beer!
