                               Psi4 1.3.2 release

  ==> Input File <==

--------------------------------------------------------------------------
#psi4
#
memory 32 gb

molecule  {
0 1
  O       -2.8659320     0.4739381    -0.3240105
  O       -0.5220660     1.5374290     0.0548780
  N        0.6562510    -0.3746370    -0.3360270
  C        1.9647450     0.2268840    -0.0956960
  C       -1.8012180    -0.4504720    -0.3698720
  C        3.0067800    -0.5070980    -0.9241520
  C        2.2930000     0.2310680     1.3932270
  C       -0.4931590     0.3235730    -0.1949090
  C       -1.9498601    -1.5237014     0.7021493
  H        1.8788190     1.2611790    -0.4401960
  H        0.6035260    -1.3822150    -0.4365740
  H       -1.7868920    -0.9288770    -1.3618540
  H        3.9904500    -0.0508330    -0.7882090
  H        3.0812650    -1.5550640    -0.6116920
  H        2.7529100    -0.4768670    -1.9861430
  H        1.5225120     0.7762450     1.9430400
  H        3.2574000     0.7146530     1.5762130
  H        2.3438960    -0.7932520     1.7757830
  H       -2.9590570    -1.9673470     0.6070900
  H       -1.9090200    -1.0432980     1.6949070
  H       -1.2193110    -2.3035120     0.6420620
  H       -2.4442120     1.3312090    -0.1521090
units angstrom
no_reorient  #important for SAPT in psi4, default
symmetry c1  #important for SAPT in psi4, default
}

set PROPERTIES_ORIGIN ["COM"]
properties('MP2/aug-cc-pvtz', properties = ['dipole'])
--------------------------------------------------------------------------

    Molecular point group: c1
  Charge       = 0
  Multiplicity = 1
  Basis Set: AUG-CC-PVTZ
    Blend: AUG-CC-PVTZ
  Basis Set: (AUG-CC-PVTZ AUX)
    Blend: AUG-CC-PVTZ-JKFIT

    Orbital Energies [Eh]
    ---------------------

    Doubly Occupied:

       1A    -20.547380     2A    -20.531740     3A    -15.595360
       4A    -11.357568     5A    -11.297875     6A    -11.277021
       7A    -11.232183     8A    -11.231673     9A    -11.222153
      10A     -1.397577    11A     -1.347277    12A     -1.247695
      13A     -1.072571    14A     -1.025057    15A     -0.949724
      16A     -0.894804    17A     -0.822993    18A     -0.794890
      19A     -0.737749    20A     -0.679325    21A     -0.650060
      22A     -0.632526    23A     -0.628758    24A     -0.597485
      25A     -0.582618    26A     -0.569056    27A     -0.554995
      28A     -0.547948    29A     -0.538990    30A     -0.530648
      31A     -0.511821    32A     -0.502506    33A     -0.491229
      34A     -0.445673    35A     -0.433199    36A     -0.401103

  @DF-RHF Final Energy:  -439.13765501624152

   => Energetics <=

    Nuclear Repulsion Energy =            485.5029640139048865
    One-Electron Energy =               -1561.5187794030498480
    Two-Electron Energy =                 636.8781603729034941
    Total Energy =                       -439.1376550162415242
  Basis Set: (AUG-CC-PVTZ AUX)
    Blend: AUG-CC-PVTZ-RI
    Molecular point group: c1

    Geometry (in Angstrom), charge = 0, multiplicity = 1:

       Center              X                  Y                   Z               Mass
    ------------   -----------------  -----------------  -----------------  -----------------
         O           -2.869180320036     0.473477221432    -0.320962251619    15.994914619570
         O           -0.525314320036     1.536968121432     0.057926248381    15.994914619570
         N            0.653002679964    -0.375097878568    -0.332978751619    14.003074004430
         C            1.961496679964     0.226423121432    -0.092647751619    12.000000000000
         C           -1.804466320036    -0.450932878568    -0.366823751619    12.000000000000
         C            3.003531679964    -0.507558878568    -0.921103751619    12.000000000000
         C            2.289751679964     0.230607121432     1.396275248381    12.000000000000
         C           -0.496407320036     0.323112121432    -0.191860751619    12.000000000000
         C           -1.953108420036    -1.524162278568     0.705197548381    12.000000000000
         H            1.875570679964     1.260718121432    -0.437147751619     1.007825032230
         H            0.600277679964    -1.382675878568    -0.433525751619     1.007825032230
         H           -1.790140320036    -0.929337878568    -1.358805751619     1.007825032230
         H            3.987201679964    -0.051293878568    -0.785160751619     1.007825032230
         H            3.078016679964    -1.555524878568    -0.608643751619     1.007825032230
         H            2.749661679964    -0.477327878568    -1.983094751619     1.007825032230
         H            1.519263679964     0.775784121432     1.946088248381     1.007825032230
         H            3.254151679964     0.714192121432     1.579261248381     1.007825032230
         H            2.340647679964    -0.793712878568     1.778831248381     1.007825032230
         H           -2.962305320036    -1.967807878568     0.610138248381     1.007825032230
         H           -1.912268320036    -1.043758878568     1.697955248381     1.007825032230
         H           -1.222559320036    -2.303972878568     0.645110248381     1.007825032230
         H           -2.447460320036     1.330748121432    -0.149060751619     1.007825032230

  Basis Set: AUG-CC-PVTZ
    Blend: AUG-CC-PVTZ
  Basis Set: (AUG-CC-PVTZ AUX)
    Blend: AUG-CC-PVTZ-JKFIT
	 Reference Energy          =    -439.1376550162415242 [Eh]
	 Singles Energy            =      -0.0000000000000000 [Eh]
	 Same-Spin Energy          =      -0.4458693089937278 [Eh]
	 Opposite-Spin Energy      =      -1.4632595962729904 [Eh]
	 Correlation Energy        =      -1.9091289052667182 [Eh]
	 Total Energy              =    -441.0467839215082222 [Eh]

	 ================> DF-SCS-MP2 Energies <==================
	-----------------------------------------------------------
	 SCS Same-Spin Scale       =       0.3333333333333333 [-]
	 SCS Opposite-Spin Scale   =       1.2000000000000000 [-]
	 SCS Same-Spin Energy      =      -0.1486231029979093 [Eh]
	 SCS Opposite-Spin Energy  =      -1.7559115155275884 [Eh]
	 SCS Correlation Energy    =      -1.9045346185254977 [Eh]
	 SCS Total Energy          =    -441.0421896347669986 [Eh]
	-----------------------------------------------------------

  Dipole Moment: [D]
     X:     3.4355      Y:    -3.0990      Z:    -0.1053     Total:     4.6279

*** Psi4 exiting successfully. Buy a developer a beer!
