                               Psi4 1.3.2 release

  ==> Input File <==

--------------------------------------------------------------------------
#psi4
#
memory 32 gb

molecule  {
0 1
  O       -2.8756320     0.4615000    -0.3051040
  O       -0.5220660     1.5374290     0.0548780
  N        0.6562510    -0.3746370    -0.3360270
  C        1.9424835     0.2727145    -0.0946043
  C       -1.8012180    -0.4504720    -0.3698720
  C        3.0067800    -0.5070980    -0.9241520
  C        2.2930000     0.2310680     1.3932270
  C       -0.4931590     0.3235730    -0.1949090
  C       -1.9724170    -1.5121580     0.7102480
  H        1.8788190     1.2611790    -0.4401960
  H        0.5685646    -1.3792982    -0.4412408
  H       -1.7868920    -0.9288770    -1.3618540
  H        3.9904500    -0.0508330    -0.7882090
  H        3.0812650    -1.5550640    -0.6116920
  H        2.7529100    -0.4768670    -1.9861430
  H        1.5225120     0.7762450     1.9430400
  H        3.2574000     0.7146530     1.5762130
  H        2.3438960    -0.7932520     1.7757830
  H       -2.9590570    -1.9673470     0.6070900
  H       -1.9090200    -1.0432980     1.6949070
  H       -1.2193110    -2.3035120     0.6420620
  H       -2.4442120     1.3312090    -0.1521090
units angstrom
no_reorient  #important for SAPT in psi4, default
symmetry c1  #important for SAPT in psi4, default
}

set PROPERTIES_ORIGIN ["COM"]
properties('MP2/aug-cc-pvtz', properties = ['dipole'])
--------------------------------------------------------------------------

    Molecular point group: c1
  Charge       = 0
  Multiplicity = 1
  Basis Set: AUG-CC-PVTZ
    Blend: AUG-CC-PVTZ
  Basis Set: (AUG-CC-PVTZ AUX)
    Blend: AUG-CC-PVTZ-JKFIT

    Orbital Energies [Eh]
    ---------------------

    Doubly Occupied:

       1A    -20.547796     2A    -20.532082     3A    -15.595781
       4A    -11.356809     5A    -11.297259     6A    -11.276921
       7A    -11.232482     8A    -11.231158     9A    -11.222344
      10A     -1.397403    11A     -1.346001    12A     -1.247715
      13A     -1.069278    14A     -1.022874    15A     -0.945938
      16A     -0.894405    17A     -0.828371    18A     -0.793157
      19A     -0.736311    20A     -0.682344    21A     -0.652153
      22A     -0.632867    23A     -0.624058    24A     -0.596484
      25A     -0.580543    26A     -0.566974    27A     -0.554862
      28A     -0.547734    29A     -0.538931    30A     -0.531391
      31A     -0.514712    32A     -0.503020    33A     -0.490841
      34A     -0.445045    35A     -0.433945    36A     -0.400793

  @DF-RHF Final Energy:  -439.13521936240812

   => Energetics <=

    Nuclear Repulsion Energy =            485.3032003776135070
    One-Electron Energy =               -1561.1352828706003493
    Two-Electron Energy =                 636.6968631305787767
    Total Energy =                       -439.1352193624081792
  Basis Set: (AUG-CC-PVTZ AUX)
    Blend: AUG-CC-PVTZ-RI
    Molecular point group: c1

    Geometry (in Angstrom), charge = 0, multiplicity = 1:

       Center              X                  Y                   Z               Mass
    ------------   -----------------  -----------------  -----------------  -----------------
         O           -2.873325504760     0.457282445193    -0.305167925928    15.994914619570
         O           -0.519759504760     1.533211445193     0.054814074072    15.994914619570
         N            0.658557495240    -0.378854554807    -0.336090925928    14.003074004430
         C            1.944789995240     0.268496945193    -0.094668225928    12.000000000000
         C           -1.798911504760    -0.454689554807    -0.369935925928    12.000000000000
         C            3.009086495240    -0.511315554807    -0.924215925928    12.000000000000
         C            2.295306495240     0.226850445193     1.393163074072    12.000000000000
         C           -0.490852504760     0.319355445193    -0.194972925928    12.000000000000
         C           -1.970110504760    -1.516375554807     0.710184074072    12.000000000000
         H            1.881125495240     1.256961445193    -0.440259925928     1.007825032230
         H            0.570871095240    -1.383515754807    -0.441304725928     1.007825032230
         H           -1.784585504760    -0.933094554807    -1.361917925928     1.007825032230
         H            3.992756495240    -0.055050554807    -0.788272925928     1.007825032230
         H            3.083571495240    -1.559281554807    -0.611755925928     1.007825032230
         H            2.755216495240    -0.481084554807    -1.986206925928     1.007825032230
         H            1.524818495240     0.772027445193     1.942976074072     1.007825032230
         H            3.259706495240     0.710435445193     1.576149074072     1.007825032230
         H            2.346202495240    -0.797469554807     1.775719074072     1.007825032230
         H           -2.956750504760    -1.971564554807     0.607026074072     1.007825032230
         H           -1.906713504760    -1.047515554807     1.694843074072     1.007825032230
         H           -1.217004504760    -2.307729554807     0.641998074072     1.007825032230
         H           -2.441905504760     1.326991445193    -0.152172925928     1.007825032230

  Basis Set: AUG-CC-PVTZ
    Blend: AUG-CC-PVTZ
  Basis Set: (AUG-CC-PVTZ AUX)
    Blend: AUG-CC-PVTZ-JKFIT
	 Reference Energy          =    -439.1352193624081224 [Eh]
	 Singles Energy            =      -0.0000000000000000 [Eh]
	 Same-Spin Energy          =      -0.4457731936964923 [Eh]
	 Opposite-Spin Energy      =      -1.4634192636634293 [Eh]
	 Correlation Energy        =      -1.9091924573599215 [Eh]
	 Total Energy              =    -441.0444118197680154 [Eh]

	 ================> DF-SCS-MP2 Energies <==================
	-----------------------------------------------------------
	 SCS Same-Spin Scale       =       0.3333333333333333 [-]
	 SCS Opposite-Spin Scale   =       1.2000000000000000 [-]
	 SCS Same-Spin Energy      =      -0.1485910645654974 [Eh]
	 SCS Opposite-Spin Energy  =      -1.7561031163961152 [Eh]
	 SCS Correlation Energy    =      -1.9046941809616125 [Eh]
	 SCS Total Energy          =    -441.0399135433697211 [Eh]
	-----------------------------------------------------------

  Dipole Moment: [D]
     X:     3.4118      Y:    -3.0458      Z:    -0.1328     Total:     4.5755

*** Psi4 exiting successfully. Buy a developer a beer!
