                               Psi4 1.3.2 release

  ==> Input File <==

--------------------------------------------------------------------------
#psi4
#
memory 32 gb

molecule  {
0 1
  O       -2.8756320     0.4615000    -0.3051040
  O       -0.5220660     1.5374290     0.0548780
  N        0.6562510    -0.3746370    -0.3360270
  C        1.9647450     0.2268840    -0.0956960
  C       -1.8012180    -0.4504720    -0.3698720
  C        3.0067800    -0.5070980    -0.9241520
  C        2.2930000     0.2310680     1.3932270
  C       -0.4931590     0.3235730    -0.1949090
  C       -1.9724170    -1.5121580     0.7102480
  H        1.8788190     1.2611790    -0.4401960
  H        0.5931261    -1.5809573    -0.4564067
  H       -1.7868920    -0.9288770    -1.3618540
  H        3.9904500    -0.0508330    -0.7882090
  H        3.0812650    -1.5550640    -0.6116920
  H        2.7529100    -0.4768670    -1.9861430
  H        1.5225120     0.7762450     1.9430400
  H        3.2574000     0.7146530     1.5762130
  H        2.3438960    -0.7932520     1.7757830
  H       -2.9590570    -1.9673470     0.6070900
  H       -1.9090200    -1.0432980     1.6949070
  H       -1.2193110    -2.3035120     0.6420620
  H       -2.4442120     1.3312090    -0.1521090
units angstrom
no_reorient  #important for SAPT in psi4, default
symmetry c1  #important for SAPT in psi4, default
}

set PROPERTIES_ORIGIN ["COM"]
properties('MP2/aug-cc-pvtz', properties = ['dipole'])
--------------------------------------------------------------------------

    Molecular point group: c1
  Charge       = 0
  Multiplicity = 1
  Basis Set: AUG-CC-PVTZ
    Blend: AUG-CC-PVTZ
  Basis Set: (AUG-CC-PVTZ AUX)
    Blend: AUG-CC-PVTZ-JKFIT

    Orbital Energies [Eh]
    ---------------------

    Doubly Occupied:

       1A    -20.547074     2A    -20.531926     3A    -15.610988
       4A    -11.357888     5A    -11.296415     6A    -11.277700
       7A    -11.231839     8A    -11.230313     9A    -11.221786
      10A     -1.396005    11A     -1.344956    12A     -1.232106
      13A     -1.069828    14A     -1.021321    15A     -0.949019
      16A     -0.893233    17A     -0.819353    18A     -0.761642
      19A     -0.733920    20A     -0.676951    21A     -0.644823
      22A     -0.628095    23A     -0.622048    24A     -0.590227
      25A     -0.580660    26A     -0.566345    27A     -0.554514
      28A     -0.547011    29A     -0.538247    30A     -0.529752
      31A     -0.508420    32A     -0.502262    33A     -0.490433
      34A     -0.444217    35A     -0.433242    36A     -0.398778

  @DF-RHF Final Energy:  -439.10737766882545

   => Energetics <=

    Nuclear Repulsion Energy =            484.2678706765388483
    One-Electron Energy =               -1559.1838240318675162
    Two-Electron Energy =                 635.8085756865031044
    Total Energy =                       -439.1073776688255066
  Basis Set: (AUG-CC-PVTZ AUX)
    Blend: AUG-CC-PVTZ-RI
    Molecular point group: c1

    Geometry (in Angstrom), charge = 0, multiplicity = 1:

       Center              X                  Y                   Z               Mass
    ------------   -----------------  -----------------  -----------------  -----------------
         O           -2.875552077255     0.463027936802    -0.304951403146    15.994914619570
         O           -0.521986077255     1.538956936802     0.055030596854    15.994914619570
         N            0.656330922745    -0.373109063198    -0.335874403146    14.003074004430
         C            1.964824922745     0.228411936802    -0.095543403146    12.000000000000
         C           -1.801138077255    -0.448944063198    -0.369719403146    12.000000000000
         C            3.006859922745    -0.505570063198    -0.923999403146    12.000000000000
         C            2.293079922745     0.232595936802     1.393379596854    12.000000000000
         C           -0.493079077255     0.325100936802    -0.194756403146    12.000000000000
         C           -1.972337077255    -1.510630063198     0.710400596854    12.000000000000
         H            1.878898922745     1.262706936802    -0.440043403146     1.007825032230
         H            0.593206022745    -1.579429363198    -0.456254103146     1.007825032230
         H           -1.786812077255    -0.927349063198    -1.361701403146     1.007825032230
         H            3.990529922745    -0.049305063198    -0.788056403146     1.007825032230
         H            3.081344922745    -1.553536063198    -0.611539403146     1.007825032230
         H            2.752989922745    -0.475339063198    -1.985990403146     1.007825032230
         H            1.522591922745     0.777772936802     1.943192596854     1.007825032230
         H            3.257479922745     0.716180936802     1.576365596854     1.007825032230
         H            2.343975922745    -0.791724063198     1.775935596854     1.007825032230
         H           -2.958977077255    -1.965819063198     0.607242596854     1.007825032230
         H           -1.908940077255    -1.041770063198     1.695059596854     1.007825032230
         H           -1.219231077255    -2.301984063198     0.642214596854     1.007825032230
         H           -2.444132077255     1.332736936802    -0.151956403146     1.007825032230

  Basis Set: AUG-CC-PVTZ
    Blend: AUG-CC-PVTZ
  Basis Set: (AUG-CC-PVTZ AUX)
    Blend: AUG-CC-PVTZ-JKFIT
	 Reference Energy          =    -439.1073776688254497 [Eh]
	 Singles Energy            =      -0.0000000000000000 [Eh]
	 Same-Spin Energy          =      -0.4478107211120168 [Eh]
	 Opposite-Spin Energy      =      -1.4681386080137770 [Eh]
	 Correlation Energy        =      -1.9159493291257939 [Eh]
	 Total Energy              =    -441.0233269979512443 [Eh]

	 ================> DF-SCS-MP2 Energies <==================
	-----------------------------------------------------------
	 SCS Same-Spin Scale       =       0.3333333333333333 [-]
	 SCS Opposite-Spin Scale   =       1.2000000000000000 [-]
	 SCS Same-Spin Energy      =      -0.1492702403706723 [Eh]
	 SCS Opposite-Spin Energy  =      -1.7617663296165325 [Eh]
	 SCS Correlation Energy    =      -1.9110365699872047 [Eh]
	 SCS Total Energy          =    -441.0184142388126816 [Eh]
	-----------------------------------------------------------

  Dipole Moment: [D]
     X:     3.4903      Y:    -3.1829      Z:    -0.1564     Total:     4.7263

*** Psi4 exiting successfully. Buy a developer a beer!
