                               Psi4 1.3.2 release

  ==> Input File <==

--------------------------------------------------------------------------
#psi4
#
memory 32 gb

molecule  {
0 1
  O       -2.8756320     0.4615000    -0.3051040
  O       -0.5220660     1.5374290     0.0548780
  N        0.6562510    -0.3746370    -0.3360270
  C        2.1439847     0.3092814    -0.0627750
  C       -1.8012180    -0.4504720    -0.3698720
  C        3.0067800    -0.5070980    -0.9241520
  C        2.2930000     0.2310680     1.3932270
  C       -0.4931590     0.3235730    -0.1949090
  C       -1.9724170    -1.5121580     0.7102480
  H        1.8788190     1.2611790    -0.4401960
  H        0.6035260    -1.3822150    -0.4365740
  H       -1.7868920    -0.9288770    -1.3618540
  H        3.9904500    -0.0508330    -0.7882090
  H        3.0812650    -1.5550640    -0.6116920
  H        2.7529100    -0.4768670    -1.9861430
  H        1.5225120     0.7762450     1.9430400
  H        3.2574000     0.7146530     1.5762130
  H        2.3438960    -0.7932520     1.7757830
  H       -2.9590570    -1.9673470     0.6070900
  H       -1.9090200    -1.0432980     1.6949070
  H       -1.2193110    -2.3035120     0.6420620
  H       -2.4442120     1.3312090    -0.1521090
units angstrom
no_reorient  #important for SAPT in psi4, default
symmetry c1  #important for SAPT in psi4, default
}

set PROPERTIES_ORIGIN ["COM"]
properties('MP2/aug-cc-pvtz', properties = ['dipole'])
--------------------------------------------------------------------------

    Molecular point group: c1
  Charge       = 0
  Multiplicity = 1
  Basis Set: AUG-CC-PVTZ
    Blend: AUG-CC-PVTZ
  Basis Set: (AUG-CC-PVTZ AUX)
    Blend: AUG-CC-PVTZ-JKFIT

    Orbital Energies [Eh]
    ---------------------

    Doubly Occupied:

       1A    -20.541174     2A    -20.521501     3A    -15.576906
       4A    -11.346270     5A    -11.292870     6A    -11.289187
       7A    -11.238766     8A    -11.230182     9A    -11.224841
      10A     -1.386062    11A     -1.337308    12A     -1.211084
      13A     -1.090588    14A     -1.019783    15A     -0.968592
      16A     -0.880479    17A     -0.818553    18A     -0.774855
      19A     -0.729441    20A     -0.668780    21A     -0.647656
      22A     -0.641235    23A     -0.622050    24A     -0.596152
      25A     -0.581685    26A     -0.566966    27A     -0.560741
      28A     -0.537940    29A     -0.534054    30A     -0.526691
      31A     -0.523560    32A     -0.511693    33A     -0.482477
      34A     -0.438377    35A     -0.419405    36A     -0.394377

  @DF-RHF Final Energy:  -439.10780571333476

   => Energetics <=

    Nuclear Repulsion Energy =            483.0233604400330591
    One-Electron Energy =               -1556.7977747927568544
    Two-Electron Energy =                 634.6666086393890964
    Total Energy =                       -439.1078057133347556
  Basis Set: (AUG-CC-PVTZ AUX)
    Blend: AUG-CC-PVTZ-RI
    Molecular point group: c1

    Geometry (in Angstrom), charge = 0, multiplicity = 1:

       Center              X                  Y                   Z               Mass
    ------------   -----------------  -----------------  -----------------  -----------------
         O           -2.892039081350     0.453957647065    -0.308117359645    15.994914619570
         O           -0.538473081350     1.529886647065     0.051864640355    15.994914619570
         N            0.639843918650    -0.382179352935    -0.339040359645    14.003074004430
         C            2.127577618650     0.301739047065    -0.065788359645    12.000000000000
         C           -1.817625081350    -0.458014352935    -0.372885359645    12.000000000000
         C            2.990372918650    -0.514640352935    -0.927165359645    12.000000000000
         C            2.276592918650     0.223525647065     1.390213640355    12.000000000000
         C           -0.509566081350     0.316030647065    -0.197922359645    12.000000000000
         C           -1.988824081350    -1.519700352935     0.707234640355    12.000000000000
         H            1.862411918650     1.253636647065    -0.443209359645     1.007825032230
         H            0.587118918650    -1.389757352935    -0.439587359645     1.007825032230
         H           -1.803299081350    -0.936419352935    -1.364867359645     1.007825032230
         H            3.974042918650    -0.058375352935    -0.791222359645     1.007825032230
         H            3.064857918650    -1.562606352935    -0.614705359645     1.007825032230
         H            2.736502918650    -0.484409352935    -1.989156359645     1.007825032230
         H            1.506104918650     0.768702647065     1.940026640355     1.007825032230
         H            3.240992918650     0.707110647065     1.573199640355     1.007825032230
         H            2.327488918650    -0.800794352935     1.772769640355     1.007825032230
         H           -2.975464081350    -1.974889352935     0.604076640355     1.007825032230
         H           -1.925427081350    -1.050840352935     1.691893640355     1.007825032230
         H           -1.235718081350    -2.311054352935     0.639048640355     1.007825032230
         H           -2.460619081350     1.323666647065    -0.155122359645     1.007825032230

  Basis Set: AUG-CC-PVTZ
    Blend: AUG-CC-PVTZ
  Basis Set: (AUG-CC-PVTZ AUX)
    Blend: AUG-CC-PVTZ-JKFIT
	 Reference Energy          =    -439.1078057133347556 [Eh]
	 Singles Energy            =      -0.0000000000000000 [Eh]
	 Same-Spin Energy          =      -0.4469794610885065 [Eh]
	 Opposite-Spin Energy      =      -1.4658285016467638 [Eh]
	 Correlation Energy        =      -1.9128079627352703 [Eh]
	 Total Energy              =    -441.0206136760700133 [Eh]

	 ================> DF-SCS-MP2 Energies <==================
	-----------------------------------------------------------
	 SCS Same-Spin Scale       =       0.3333333333333333 [-]
	 SCS Opposite-Spin Scale   =       1.2000000000000000 [-]
	 SCS Same-Spin Energy      =      -0.1489931536961688 [Eh]
	 SCS Opposite-Spin Energy  =      -1.7589942019761164 [Eh]
	 SCS Correlation Energy    =      -1.9079873556722853 [Eh]
	 SCS Total Energy          =    -441.0157930690070316 [Eh]
	-----------------------------------------------------------

  Dipole Moment: [D]
     X:     4.2379      Y:    -3.0017      Z:    -0.0245     Total:     5.1933

*** Psi4 exiting successfully. Buy a developer a beer!
