                               Psi4 1.3.2 release

  ==> Input File <==

--------------------------------------------------------------------------
#psi4
#
memory 32 gb

molecule  {
0 1
  O       -2.8756320     0.4615000    -0.3051040
  O       -0.5220660     1.5374290     0.0548780
  N        0.6562510    -0.3746370    -0.3360270
  C        1.9647450     0.2268840    -0.0956960
  C       -1.8012180    -0.4504720    -0.3698720
  C        3.0067800    -0.5070980    -0.9241520
  C        2.2930000     0.2310680     1.3932270
  C       -0.5053354     0.3034006    -0.1962521
  C       -1.9724170    -1.5121580     0.7102480
  H        1.8788190     1.2611790    -0.4401960
  H        0.5858938    -1.3812528    -0.4354128
  H       -1.7868920    -0.9288770    -1.3618540
  H        3.9904500    -0.0508330    -0.7882090
  H        3.0812650    -1.5550640    -0.6116920
  H        2.7529100    -0.4768670    -1.9861430
  H        1.5225120     0.7762450     1.9430400
  H        3.2574000     0.7146530     1.5762130
  H        2.3438960    -0.7932520     1.7757830
  H       -2.9590570    -1.9673470     0.6070900
  H       -1.9090200    -1.0432980     1.6949070
  H       -1.2193110    -2.3035120     0.6420620
  H       -2.4442120     1.3312090    -0.1521090
units angstrom
no_reorient  #important for SAPT in psi4, default
symmetry c1  #important for SAPT in psi4, default
}

set PROPERTIES_ORIGIN ["COM"]
properties('MP2/aug-cc-pvtz', properties = ['dipole'])
--------------------------------------------------------------------------

    Molecular point group: c1
  Charge       = 0
  Multiplicity = 1
  Basis Set: AUG-CC-PVTZ
    Blend: AUG-CC-PVTZ
  Basis Set: (AUG-CC-PVTZ AUX)
    Blend: AUG-CC-PVTZ-JKFIT

    Orbital Energies [Eh]
    ---------------------

    Doubly Occupied:

       1A    -20.548571     2A    -20.529425     3A    -15.597317
       4A    -11.359430     5A    -11.298473     6A    -11.278210
       7A    -11.232509     8A    -11.232301     9A    -11.222338
      10A     -1.389993    11A     -1.343083    12A     -1.246038
      13A     -1.074514    14A     -1.026423    15A     -0.949879
      16A     -0.899180    17A     -0.824238    18A     -0.792568
      19A     -0.738021    20A     -0.679161    21A     -0.650946
      22A     -0.629643    23A     -0.628391    24A     -0.594155
      25A     -0.581828    26A     -0.568331    27A     -0.555084
      28A     -0.548756    29A     -0.539343    30A     -0.528748
      31A     -0.511267    32A     -0.501352    33A     -0.490811
      34A     -0.445723    35A     -0.435926    36A     -0.400255

  @DF-RHF Final Energy:  -439.13517451628201

   => Energetics <=

    Nuclear Repulsion Energy =            485.2655012549234357
    One-Electron Energy =               -1561.0568855434303259
    Two-Electron Energy =                 636.6562097722247699
    Total Energy =                       -439.1351745162820635
  Basis Set: (AUG-CC-PVTZ AUX)
    Blend: AUG-CC-PVTZ-RI
    Molecular point group: c1

    Geometry (in Angstrom), charge = 0, multiplicity = 1:

       Center              X                  Y                   Z               Mass
    ------------   -----------------  -----------------  -----------------  -----------------
         O           -2.874381886726     0.463339174617    -0.304989856117    15.994914619570
         O           -0.520815886726     1.539268174617     0.054992143883    15.994914619570
         N            0.657501113274    -0.372797825383    -0.335912856117    14.003074004430
         C            1.965995113274     0.228723174617    -0.095581856117    12.000000000000
         C           -1.799967886726    -0.448632825383    -0.369757856117    12.000000000000
         C            3.008030113274    -0.505258825383    -0.924037856117    12.000000000000
         C            2.294250113274     0.232907174617     1.393341143883    12.000000000000
         C           -0.504085286726     0.305239774617    -0.196137956117    12.000000000000
         C           -1.971166886726    -1.510318825383     0.710362143883    12.000000000000
         H            1.880069113274     1.263018174617    -0.440081856117     1.007825032230
         H            0.587143913274    -1.379413625383    -0.435298656117     1.007825032230
         H           -1.785641886726    -0.927037825383    -1.361739856117     1.007825032230
         H            3.991700113274    -0.048993825383    -0.788094856117     1.007825032230
         H            3.082515113274    -1.553224825383    -0.611577856117     1.007825032230
         H            2.754160113274    -0.475027825383    -1.986028856117     1.007825032230
         H            1.523762113274     0.778084174617     1.943154143883     1.007825032230
         H            3.258650113274     0.716492174617     1.576327143883     1.007825032230
         H            2.345146113274    -0.791412825383     1.775897143883     1.007825032230
         H           -2.957806886726    -1.965507825383     0.607204143883     1.007825032230
         H           -1.907769886726    -1.041458825383     1.695021143883     1.007825032230
         H           -1.218060886726    -2.301672825383     0.642176143883     1.007825032230
         H           -2.442961886726     1.333048174617    -0.151994856117     1.007825032230

  Basis Set: AUG-CC-PVTZ
    Blend: AUG-CC-PVTZ
  Basis Set: (AUG-CC-PVTZ AUX)
    Blend: AUG-CC-PVTZ-JKFIT
	 Reference Energy          =    -439.1351745162820066 [Eh]
	 Singles Energy            =      -0.0000000000000000 [Eh]
	 Same-Spin Energy          =      -0.4465461914546577 [Eh]
	 Opposite-Spin Energy      =      -1.4646171244329267 [Eh]
	 Correlation Energy        =      -1.9111633158875843 [Eh]
	 Total Energy              =    -441.0463378321695700 [Eh]

	 ================> DF-SCS-MP2 Energies <==================
	-----------------------------------------------------------
	 SCS Same-Spin Scale       =       0.3333333333333333 [-]
	 SCS Opposite-Spin Scale   =       1.2000000000000000 [-]
	 SCS Same-Spin Energy      =      -0.1488487304848859 [Eh]
	 SCS Opposite-Spin Energy  =      -1.7575405493195120 [Eh]
	 SCS Correlation Energy    =      -1.9063892798043978 [Eh]
	 SCS Total Energy          =    -441.0415637960863933 [Eh]
	-----------------------------------------------------------

  Dipole Moment: [D]
     X:     3.4293      Y:    -3.1607      Z:    -0.1496     Total:     4.6661

*** Psi4 exiting successfully. Buy a developer a beer!
