                               Psi4 1.4a3.dev225

  ==> Input File <==

--------------------------------------------------------------------------
#psi4
#
memory 32 gb

molecule  {
0 1
  O        2.9110620    -0.5703060    -0.4523520
  O        0.5539390    -1.5540470     0.1662040
  N       -0.5943370     0.3369340    -0.3930300
  C       -1.9154150    -0.2304160    -0.1256420
  C        1.8655780     0.3788930    -0.3941620
  C       -2.9513150     0.5221750    -0.9483650
  C       -2.2232580    -0.2086170     1.3682650
  C        0.5443190    -0.3662470    -0.1910430
  C        2.1113214     1.3946135     0.7874426
  H       -1.8664900    -1.2716350    -0.4595930
  H       -0.5281980     1.3181660    -0.6377390
  H        1.8317100     0.9202690    -1.3505730
  H       -3.9433690     0.0896600    -0.7945050
  H       -2.9965010     1.5743390    -0.6446630
  H       -2.7149650     0.4749500    -2.0147890
  H       -1.4563020    -0.7629570     1.9136170
  H       -3.1950150    -0.6709470     1.5682930
  H       -2.2473660     0.8219210     1.7368640
  H        3.0888910     1.8183940     0.6312910
  H        2.0827360     0.8223960     1.7004970
  H        1.3487660     2.1553220     0.7756360
  H        2.4958040    -1.4028240    -0.1381920
units angstrom
no_reorient  #important for SAPT in psi4, default
symmetry c1  #important for SAPT in psi4, default
}

set PROPERTIES_ORIGIN ["COM"]
properties('MP2/aug-cc-pvtz', properties = ['dipole'])
--------------------------------------------------------------------------

    Molecular point group: c1
  Charge       = 0
  Multiplicity = 1
  Basis Set: AUG-CC-PVTZ
    Blend: AUG-CC-PVTZ
  Basis Set: (AUG-CC-PVTZ AUX)
    Blend: AUG-CC-PVTZ-JKFIT

    Orbital Energies [Eh]
    ---------------------

    Doubly Occupied:

       1A    -20.548953     2A    -20.531357     3A    -15.596029
       4A    -11.357821     5A    -11.299438     6A    -11.278043
       7A    -11.233458     8A    -11.228540     9A    -11.221047
      10A     -1.395274    11A     -1.345123    12A     -1.246528
      13A     -1.069838    14A     -1.017706    15A     -0.949553
      16A     -0.896445    17A     -0.821517    18A     -0.794618
      19A     -0.736063    20A     -0.676907    21A     -0.641351
      22A     -0.633295    23A     -0.628585    24A     -0.595738
      25A     -0.576831    26A     -0.575010    27A     -0.555348
      28A     -0.550359    29A     -0.543335    30A     -0.529698
      31A     -0.512670    32A     -0.501985    33A     -0.491421
      34A     -0.443020    35A     -0.429378    36A     -0.401073

  @DF-RHF Final Energy:  -439.13606004205758

   => Energetics <=

    Nuclear Repulsion Energy =            484.2268369487586597
    One-Electron Energy =               -1559.0190859192762218
    Two-Electron Energy =                 635.6561889284598692
    Total Energy =                       -439.1360600420575793
  Basis Set: (AUG-CC-PVTZ AUX)
    Blend: AUG-CC-PVTZ-RI
    Molecular point group: c1

    Geometry (in Angstrom), charge = 0, multiplicity = 1:

       Center              X                  Y                   Z               Mass
    ------------   -----------------  -----------------  -----------------  -----------------
         O            2.849191190043    -0.528787939432    -0.438479878216    15.994914619570
         O            0.492068190043    -1.512528939432     0.180076121784    15.994914619570
         N           -0.656207809957     0.378452060568    -0.379157878216    14.003074004430
         C           -1.977285809957    -0.188897939432    -0.111769878216    12.000000000000
         C            1.803707190043     0.420411060568    -0.380289878216    12.000000000000
         C           -3.013185809957     0.563693060568    -0.934492878216    12.000000000000
         C           -2.285128809957    -0.167098939432     1.382137121784    12.000000000000
         C            0.482448190043    -0.324728939432    -0.177170878216    12.000000000000
         C            2.049450590043     1.436131560568     0.801314721784    12.000000000000
         H           -1.928360809957    -1.230116939432    -0.445720878216     1.007825032230
         H           -0.590068809957     1.359684060568    -0.623866878216     1.007825032230
         H            1.769839190043     0.961787060568    -1.336700878216     1.007825032230
         H           -4.005239809957     0.131178060568    -0.780632878216     1.007825032230
         H           -3.058371809957     1.615857060568    -0.630790878216     1.007825032230
         H           -2.776835809957     0.516468060568    -2.000916878216     1.007825032230
         H           -1.518172809957    -0.721438939432     1.927489121784     1.007825032230
         H           -3.256885809957    -0.629428939432     1.582165121784     1.007825032230
         H           -2.309236809957     0.863439060568     1.750736121784     1.007825032230
         H            3.027020190043     1.859912060568     0.645163121784     1.007825032230
         H            2.020865190043     0.863914060568     1.714369121784     1.007825032230
         H            1.286895190043     2.196840060568     0.789508121784     1.007825032230
         H            2.433933190043    -1.361305939432    -0.124319878216     1.007825032230

  Basis Set: AUG-CC-PVTZ
    Blend: AUG-CC-PVTZ
  Basis Set: (AUG-CC-PVTZ AUX)
    Blend: AUG-CC-PVTZ-JKFIT
	 Reference Energy          =    -439.1360600420575793 [Eh]
	 Singles Energy            =      -0.0000000000000000 [Eh]
	 Same-Spin Energy          =      -0.4457314620395308 [Eh]
	 Opposite-Spin Energy      =      -1.4637080694278091 [Eh]
	 Correlation Energy        =      -1.9094395314673398 [Eh]
	 Total Energy              =    -441.0454995735249213 [Eh]

	 ================> DF-SCS-MP2 Energies <==================
	-----------------------------------------------------------
	 SCS Same-Spin Scale       =       0.3333333333333333 [-]
	 SCS Opposite-Spin Scale   =       1.2000000000000000 [-]
	 SCS Same-Spin Energy      =      -0.1485771540131769 [Eh]
	 SCS Opposite-Spin Energy  =      -1.7564496833133709 [Eh]
	 SCS Correlation Energy    =      -1.9050268373265478 [Eh]
	 SCS Total Energy          =    -441.0410868793841246 [Eh]
	-----------------------------------------------------------

  Dipole Moment: [D]
     X:    -3.3746      Y:     3.1098      Z:    -0.2035     Total:     4.5935

*** Psi4 exiting successfully. Buy a developer a beer!
