                               Psi4 1.3.2 release

  ==> Input File <==

--------------------------------------------------------------------------
#psi4
#
memory 32 gb

molecule  {
0 1
  O       -2.8940472     0.4357943    -0.2673560
  O       -0.5220660     1.5374290     0.0548780
  N        0.6562510    -0.3746370    -0.3360270
  C        1.9647450     0.2268840    -0.0956960
  C       -1.8012180    -0.4504720    -0.3698720
  C        3.0067800    -0.5070980    -0.9241520
  C        2.2930000     0.2310680     1.3932270
  C       -0.4931590     0.3235730    -0.1949090
  C       -2.0173675    -1.4881047     0.7254559
  H        1.8788190     1.2611790    -0.4401960
  H        0.6035260    -1.3822150    -0.4365740
  H       -1.7868920    -0.9288770    -1.3618540
  H        3.9904500    -0.0508330    -0.7882090
  H        3.0812650    -1.5550640    -0.6116920
  H        2.7529100    -0.4768670    -1.9861430
  H        1.5225120     0.7762450     1.9430400
  H        3.2574000     0.7146530     1.5762130
  H        2.3438960    -0.7932520     1.7757830
  H       -2.9590570    -1.9673470     0.6070900
  H       -1.9090200    -1.0432980     1.6949070
  H       -1.2193110    -2.3035120     0.6420620
  H       -2.4442120     1.3312090    -0.1521090
units angstrom
no_reorient  #important for SAPT in psi4, default
symmetry c1  #important for SAPT in psi4, default
}

set PROPERTIES_ORIGIN ["COM"]
properties('MP2/aug-cc-pvtz', properties = ['dipole'])
--------------------------------------------------------------------------

    Molecular point group: c1
  Charge       = 0
  Multiplicity = 1
  Basis Set: AUG-CC-PVTZ
    Blend: AUG-CC-PVTZ
  Basis Set: (AUG-CC-PVTZ AUX)
    Blend: AUG-CC-PVTZ-JKFIT

    Orbital Energies [Eh]
    ---------------------

    Doubly Occupied:

       1A    -20.548971     2A    -20.534004     3A    -15.596405
       4A    -11.359766     5A    -11.296627     6A    -11.277655
       7A    -11.232546     8A    -11.229850     9A    -11.222554
      10A     -1.397053    11A     -1.343417    12A     -1.248606
      13A     -1.071738    14A     -1.021506    15A     -0.950124
      16A     -0.896080    17A     -0.821624    18A     -0.795296
      19A     -0.734105    20A     -0.678371    21A     -0.650098
      22A     -0.632447    23A     -0.628960    24A     -0.596707
      25A     -0.580970    26A     -0.568544    27A     -0.555180
      28A     -0.550500    29A     -0.536825    30A     -0.524862
      31A     -0.511931    32A     -0.503382    33A     -0.492030
      34A     -0.443057    35A     -0.436273    36A     -0.402049

  @DF-RHF Final Energy:  -439.13173600056462

   => Energetics <=

    Nuclear Repulsion Energy =            485.0302440598730982
    One-Electron Energy =               -1560.5837411477768910
    Two-Electron Energy =                 636.4217610873392914
    Total Energy =                       -439.1317360005646151
  Basis Set: (AUG-CC-PVTZ AUX)
    Blend: AUG-CC-PVTZ-RI
    Molecular point group: c1

    Geometry (in Angstrom), charge = 0, multiplicity = 1:

       Center              X                  Y                   Z               Mass
    ------------   -----------------  -----------------  -----------------  -----------------
         O           -2.887685751608     0.436728950952    -0.273353607291    15.994914619570
         O           -0.515704551608     1.538363650952     0.048880392709    15.994914619570
         N            0.662612448392    -0.373702349048    -0.342024607291    14.003074004430
         C            1.971106448392     0.227818650952    -0.101693607291    12.000000000000
         C           -1.794856551608    -0.449537349048    -0.375869607291    12.000000000000
         C            3.013141448392    -0.506163349048    -0.930149607291    12.000000000000
         C            2.299361448392     0.232002650952     1.387229392709    12.000000000000
         C           -0.486797551608     0.324507650952    -0.200906607291    12.000000000000
         C           -2.011006051608    -1.487170049048     0.719458292709    12.000000000000
         H            1.885180448392     1.262113650952    -0.446193607291     1.007825032230
         H            0.609887448392    -1.381280349048    -0.442571607291     1.007825032230
         H           -1.780530551608    -0.927942349048    -1.367851607291     1.007825032230
         H            3.996811448392    -0.049898349048    -0.794206607291     1.007825032230
         H            3.087626448392    -1.554129349048    -0.617689607291     1.007825032230
         H            2.759271448392    -0.475932349048    -1.992140607291     1.007825032230
         H            1.528873448392     0.777179650952     1.937042392709     1.007825032230
         H            3.263761448392     0.715587650952     1.570215392709     1.007825032230
         H            2.350257448392    -0.792317349048     1.769785392709     1.007825032230
         H           -2.952695551608    -1.966412349048     0.601092392709     1.007825032230
         H           -1.902658551608    -1.042363349048     1.688909392709     1.007825032230
         H           -1.212949551608    -2.302577349048     0.636064392709     1.007825032230
         H           -2.437850551608     1.332143650952    -0.158106607291     1.007825032230

  Basis Set: AUG-CC-PVTZ
    Blend: AUG-CC-PVTZ
  Basis Set: (AUG-CC-PVTZ AUX)
    Blend: AUG-CC-PVTZ-JKFIT
	 Reference Energy          =    -439.1317360005646151 [Eh]
	 Singles Energy            =      -0.0000000000000000 [Eh]
	 Same-Spin Energy          =      -0.4465073498008516 [Eh]
	 Opposite-Spin Energy      =      -1.4647679446643069 [Eh]
	 Correlation Energy        =      -1.9112752944651585 [Eh]
	 Total Energy              =    -441.0430112950297712 [Eh]

	 ================> DF-SCS-MP2 Energies <==================
	-----------------------------------------------------------
	 SCS Same-Spin Scale       =       0.3333333333333333 [-]
	 SCS Opposite-Spin Scale   =       1.2000000000000000 [-]
	 SCS Same-Spin Energy      =      -0.1488357832669505 [Eh]
	 SCS Opposite-Spin Energy  =      -1.7577215335971683 [Eh]
	 SCS Correlation Energy    =      -1.9065573168641188 [Eh]
	 SCS Total Energy          =    -441.0382933174287245 [Eh]
	-----------------------------------------------------------

  Dipole Moment: [D]
     X:     3.4956      Y:    -2.9666      Z:    -0.2211     Total:     4.5901

*** Psi4 exiting successfully. Buy a developer a beer!
