                               Psi4 1.3.2 release

  ==> Input File <==

--------------------------------------------------------------------------
#psi4
#
memory 32 gb

molecule  {
0 1
  O       -2.8756320     0.4615000    -0.3051040
  O       -0.5220660     1.5374290     0.0548780
  N        0.6562510    -0.3746370    -0.3360270
  C        1.9647450     0.2268840    -0.0956960
  C       -1.8773763    -0.3858281    -0.3652810
  C        3.0067800    -0.5070980    -0.9241520
  C        2.2930000     0.2310680     1.3932270
  C       -0.4931590     0.3235730    -0.1949090
  C       -1.9724170    -1.5121580     0.7102480
  H        1.8788190     1.2611790    -0.4401960
  H        0.6035260    -1.3822150    -0.4365740
  H       -1.7868920    -0.9288770    -1.3618540
  H        3.9904500    -0.0508330    -0.7882090
  H        3.0812650    -1.5550640    -0.6116920
  H        2.7529100    -0.4768670    -1.9861430
  H        1.5225120     0.7762450     1.9430400
  H        3.2574000     0.7146530     1.5762130
  H        2.3438960    -0.7932520     1.7757830
  H       -2.9590570    -1.9673470     0.6070900
  H       -1.9090200    -1.0432980     1.6949070
  H       -1.2193110    -2.3035120     0.6420620
  H       -2.4442120     1.3312090    -0.1521090
units angstrom
no_reorient  #important for SAPT in psi4, default
symmetry c1  #important for SAPT in psi4, default
}

set PROPERTIES_ORIGIN ["COM"]
properties('MP2/aug-cc-pvtz', properties = ['dipole'])
--------------------------------------------------------------------------

    Molecular point group: c1
  Charge       = 0
  Multiplicity = 1
  Basis Set: AUG-CC-PVTZ
    Blend: AUG-CC-PVTZ
  Basis Set: (AUG-CC-PVTZ AUX)
    Blend: AUG-CC-PVTZ-JKFIT

    Orbital Energies [Eh]
    ---------------------

    Doubly Occupied:

       1A    -20.558375     2A    -20.530411     3A    -15.594897
       4A    -11.355425     5A    -11.300742     6A    -11.276850
       7A    -11.231675     8A    -11.227391     9A    -11.221552
      10A     -1.418478    11A     -1.371278    12A     -1.245661
      13A     -1.067016    14A     -1.013454    15A     -0.949157
      16A     -0.886083    17A     -0.823809    18A     -0.794335
      19A     -0.753640    20A     -0.681068    21A     -0.653280
      22A     -0.631972    23A     -0.630206    24A     -0.600959
      25A     -0.595555    26A     -0.567695    27A     -0.554712
      28A     -0.546750    29A     -0.543205    30A     -0.532788
      31A     -0.511004    32A     -0.502383    33A     -0.490898
      34A     -0.432171    35A     -0.424397    36A     -0.399613

  @DF-RHF Final Energy:  -439.12891039828531

   => Energetics <=

    Nuclear Repulsion Energy =            485.5525621902352214
    One-Electron Energy =               -1561.5251687794336704
    Two-Electron Energy =                 636.8436961909130787
    Total Energy =                       -439.1289103982853703
  Basis Set: (AUG-CC-PVTZ AUX)
    Blend: AUG-CC-PVTZ-RI
    Molecular point group: c1

    Geometry (in Angstrom), charge = 0, multiplicity = 1:

       Center              X                  Y                   Z               Mass
    ------------   -----------------  -----------------  -----------------  -----------------
         O           -2.868660732204     0.455582747972    -0.305524118385    15.994914619570
         O           -0.515094732204     1.531511747972     0.054457881615    15.994914619570
         N            0.663222267796    -0.380554252028    -0.336447118385    14.003074004430
         C            1.971716267796     0.220966747972    -0.096116118385    12.000000000000
         C           -1.870405032204    -0.391745352028    -0.365701118385    12.000000000000
         C            3.013751267796    -0.513015252028    -0.924572118385    12.000000000000
         C            2.299971267796     0.225150747972     1.392806881615    12.000000000000
         C           -0.486187732204     0.317655747972    -0.195329118385    12.000000000000
         C           -1.965445732204    -1.518075252028     0.709827881615    12.000000000000
         H            1.885790267796     1.255261747972    -0.440616118385     1.007825032230
         H            0.610497267796    -1.388132252028    -0.436994118385     1.007825032230
         H           -1.779920732204    -0.934794252028    -1.362274118385     1.007825032230
         H            3.997421267796    -0.056750252028    -0.788629118385     1.007825032230
         H            3.088236267796    -1.560981252028    -0.612112118385     1.007825032230
         H            2.759881267796    -0.482784252028    -1.986563118385     1.007825032230
         H            1.529483267796     0.770327747972     1.942619881615     1.007825032230
         H            3.264371267796     0.708735747972     1.575792881615     1.007825032230
         H            2.350867267796    -0.799169252028     1.775362881615     1.007825032230
         H           -2.952085732204    -1.973264252028     0.606669881615     1.007825032230
         H           -1.902048732204    -1.049215252028     1.694486881615     1.007825032230
         H           -1.212339732204    -2.309429252028     0.641641881615     1.007825032230
         H           -2.437240732204     1.325291747972    -0.152529118385     1.007825032230

  Basis Set: AUG-CC-PVTZ
    Blend: AUG-CC-PVTZ
  Basis Set: (AUG-CC-PVTZ AUX)
    Blend: AUG-CC-PVTZ-JKFIT
	 Reference Energy          =    -439.1289103982853135 [Eh]
	 Singles Energy            =      -0.0000000000000000 [Eh]
	 Same-Spin Energy          =      -0.4460559618712410 [Eh]
	 Opposite-Spin Energy      =      -1.4623320337779044 [Eh]
	 Correlation Energy        =      -1.9083879956491454 [Eh]
	 Total Energy              =    -441.0372983939344635 [Eh]

	 ================> DF-SCS-MP2 Energies <==================
	-----------------------------------------------------------
	 SCS Same-Spin Scale       =       0.3333333333333333 [-]
	 SCS Opposite-Spin Scale   =       1.2000000000000000 [-]
	 SCS Same-Spin Energy      =      -0.1486853206237470 [Eh]
	 SCS Opposite-Spin Energy  =      -1.7547984405334853 [Eh]
	 SCS Correlation Energy    =      -1.9034837611572324 [Eh]
	 SCS Total Energy          =    -441.0323941594425605 [Eh]
	-----------------------------------------------------------

  Dipole Moment: [D]
     X:     3.2122      Y:    -2.7857      Z:    -0.1532     Total:     4.2546

*** Psi4 exiting successfully. Buy a developer a beer!
