                               Psi4 1.3.2 release

  ==> Input File <==

--------------------------------------------------------------------------
#psi4
#
memory 32 gb

molecule  {
0 1
  O       -2.8756320     0.4615000    -0.3051040
  O       -0.5220660     1.5374290     0.0548780
  N        0.6562510    -0.3746370    -0.3360270
  C        1.9647450     0.2268840    -0.0956960
  C       -1.8012180    -0.4504720    -0.3698720
  C        3.0067800    -0.5070980    -0.9241520
  C        2.2930000     0.2310680     1.3932270
  C       -0.4931590     0.3235730    -0.1949090
  C       -1.9724170    -1.5121580     0.7102480
  H        1.8788190     1.2611790    -0.4401960
  H        0.6035260    -1.3822150    -0.4365740
  H       -1.7842906    -1.0157483    -1.5419834
  H        3.9904500    -0.0508330    -0.7882090
  H        3.0812650    -1.5550640    -0.6116920
  H        2.7529100    -0.4768670    -1.9861430
  H        1.5225120     0.7762450     1.9430400
  H        3.2574000     0.7146530     1.5762130
  H        2.3438960    -0.7932520     1.7757830
  H       -2.9590570    -1.9673470     0.6070900
  H       -1.9090200    -1.0432980     1.6949070
  H       -1.2193110    -2.3035120     0.6420620
  H       -2.4442120     1.3312090    -0.1521090
units angstrom
no_reorient  #important for SAPT in psi4, default
symmetry c1  #important for SAPT in psi4, default
}

set PROPERTIES_ORIGIN ["COM"]
properties('MP2/aug-cc-pvtz', properties = ['dipole'])
--------------------------------------------------------------------------

    Molecular point group: c1
  Charge       = 0
  Multiplicity = 1
  Basis Set: AUG-CC-PVTZ
    Blend: AUG-CC-PVTZ
  Basis Set: (AUG-CC-PVTZ AUX)
    Blend: AUG-CC-PVTZ-JKFIT

    Orbital Energies [Eh]
    ---------------------

    Doubly Occupied:

       1A    -20.553024     2A    -20.534156     3A    -15.595502
       4A    -11.360808     5A    -11.320290     6A    -11.277263
       7A    -11.233439     8A    -11.232171     9A    -11.222418
      10A     -1.399179    11A     -1.349056    12A     -1.248063
      13A     -1.071259    14A     -1.021620    15A     -0.949865
      16A     -0.892526    17A     -0.818426    18A     -0.791730
      19A     -0.734501    20A     -0.674162    21A     -0.639727
      22A     -0.632831    23A     -0.627309    24A     -0.597080
      25A     -0.583706    26A     -0.568694    27A     -0.555198
      28A     -0.548877    29A     -0.539247    30A     -0.525526
      31A     -0.512258    32A     -0.503063    33A     -0.491844
      34A     -0.440423    35A     -0.431300    36A     -0.400376

  @DF-RHF Final Energy:  -439.11783833623144

   => Energetics <=

    Nuclear Repulsion Energy =            484.3584410824533393
    One-Electron Energy =               -1559.1987280924604420
    Two-Electron Energy =                 635.7224486737757161
    Total Energy =                       -439.1178383362314435
  Basis Set: (AUG-CC-PVTZ AUX)
    Blend: AUG-CC-PVTZ-RI
    Molecular point group: c1

    Geometry (in Angstrom), charge = 0, multiplicity = 1:

       Center              X                  Y                   Z               Mass
    ------------   -----------------  -----------------  -----------------  -----------------
         O           -2.875652028228     0.462167898558    -0.303719079378    15.994914619570
         O           -0.522086028228     1.538096898558     0.056262920622    15.994914619570
         N            0.656230971772    -0.373969101442    -0.334642079378    14.003074004430
         C            1.964724971772     0.227551898558    -0.094311079378    12.000000000000
         C           -1.801238028228    -0.449804101442    -0.368487079378    12.000000000000
         C            3.006759971772    -0.506430101442    -0.922767079378    12.000000000000
         C            2.292979971772     0.231735898558     1.394611920622    12.000000000000
         C           -0.493179028228     0.324240898558    -0.193524079378    12.000000000000
         C           -1.972437028228    -1.511490101442     0.711632920622    12.000000000000
         H            1.878798971772     1.261846898558    -0.438811079378     1.007825032230
         H            0.603505971772    -1.381547101442    -0.435189079378     1.007825032230
         H           -1.784310628228    -1.015080401442    -1.540598479378     1.007825032230
         H            3.990429971772    -0.050165101442    -0.786824079378     1.007825032230
         H            3.081244971772    -1.554396101442    -0.610307079378     1.007825032230
         H            2.752889971772    -0.476199101442    -1.984758079378     1.007825032230
         H            1.522491971772     0.776912898558     1.944424920622     1.007825032230
         H            3.257379971772     0.715320898558     1.577597920622     1.007825032230
         H            2.343875971772    -0.792584101442     1.777167920622     1.007825032230
         H           -2.959077028228    -1.966679101442     0.608474920622     1.007825032230
         H           -1.909040028228    -1.042630101442     1.696291920622     1.007825032230
         H           -1.219331028228    -2.302844101442     0.643446920622     1.007825032230
         H           -2.444232028228     1.331876898558    -0.150724079378     1.007825032230

  Basis Set: AUG-CC-PVTZ
    Blend: AUG-CC-PVTZ
  Basis Set: (AUG-CC-PVTZ AUX)
    Blend: AUG-CC-PVTZ-JKFIT
	 Reference Energy          =    -439.1178383362314435 [Eh]
	 Singles Energy            =      -0.0000000000000000 [Eh]
	 Same-Spin Energy          =      -0.4464058598598656 [Eh]
	 Opposite-Spin Energy      =      -1.4656713417878489 [Eh]
	 Correlation Energy        =      -1.9120772016477146 [Eh]
	 Total Energy              =    -441.0299155378791625 [Eh]

	 ================> DF-SCS-MP2 Energies <==================
	-----------------------------------------------------------
	 SCS Same-Spin Scale       =       0.3333333333333333 [-]
	 SCS Opposite-Spin Scale   =       1.2000000000000000 [-]
	 SCS Same-Spin Energy      =      -0.1488019532866219 [Eh]
	 SCS Opposite-Spin Energy  =      -1.7588056101454186 [Eh]
	 SCS Correlation Energy    =      -1.9076075634320404 [Eh]
	 SCS Total Energy          =    -441.0254458996635094 [Eh]
	-----------------------------------------------------------

  Dipole Moment: [D]
     X:     3.4084      Y:    -2.9561      Z:     0.0064     Total:     4.5117

*** Psi4 exiting successfully. Buy a developer a beer!
