                               Psi4 1.3.2 release

  ==> Input File <==

--------------------------------------------------------------------------
#psi4
#
memory 32 gb

molecule  {
0 1
  O       -2.8756320     0.4615000    -0.3051040
  O       -0.5004345     1.5376877     0.0551870
  N        0.6562510    -0.3746370    -0.3360270
  C        1.9647450     0.2268840    -0.0956960
  C       -1.7871725    -0.4727470    -0.3742960
  C        3.0067800    -0.5070980    -0.9241520
  C        2.2930000     0.2310680     1.3932270
  C       -0.4931590     0.3235730    -0.1949090
  C       -1.9724170    -1.5121580     0.7102480
  H        1.8788190     1.2611790    -0.4401960
  H        0.6035260    -1.3822150    -0.4365740
  H       -1.7868920    -0.9288770    -1.3618540
  H        3.9904500    -0.0508330    -0.7882090
  H        3.0812650    -1.5550640    -0.6116920
  H        2.7529100    -0.4768670    -1.9861430
  H        1.5225120     0.7762450     1.9430400
  H        3.2574000     0.7146530     1.5762130
  H        2.3438960    -0.7932520     1.7757830
  H       -2.9590570    -1.9673470     0.6070900
  H       -1.9090200    -1.0432980     1.6949070
  H       -1.2193110    -2.3035120     0.6420620
  H       -2.4442120     1.3312090    -0.1521090
units angstrom
no_reorient  #important for SAPT in psi4, default
symmetry c1  #important for SAPT in psi4, default
}

set PROPERTIES_ORIGIN ["COM"]
properties('MP2/aug-cc-pvtz', properties = ['dipole'])
--------------------------------------------------------------------------

    Molecular point group: c1
  Charge       = 0
  Multiplicity = 1
  Basis Set: AUG-CC-PVTZ
    Blend: AUG-CC-PVTZ
  Basis Set: (AUG-CC-PVTZ AUX)
    Blend: AUG-CC-PVTZ-JKFIT

    Orbital Energies [Eh]
    ---------------------

    Doubly Occupied:

       1A    -20.546442     2A    -20.532555     3A    -15.594740
       4A    -11.358830     5A    -11.298180     6A    -11.276462
       7A    -11.231983     8A    -11.231891     9A    -11.221876
      10A     -1.395069    11A     -1.338850    12A     -1.247049
      13A     -1.073219    14A     -1.026814    15A     -0.949417
      16A     -0.896580    17A     -0.822195    18A     -0.794782
      19A     -0.733430    20A     -0.678447    21A     -0.649773
      22A     -0.631949    23A     -0.628063    24A     -0.596760
      25A     -0.580211    26A     -0.567741    27A     -0.554555
      28A     -0.548496    29A     -0.537165    30A     -0.530492
      31A     -0.511800    32A     -0.502356    33A     -0.490757
      34A     -0.448394    35A     -0.435390    36A     -0.400877

  @DF-RHF Final Energy:  -439.13643383523157

   => Energetics <=

    Nuclear Repulsion Energy =            485.2144600484930947
    One-Electron Energy =               -1560.9746077784689078
    Two-Electron Energy =                 636.6237138947443555
    Total Energy =                       -439.1364338352315144
  Basis Set: (AUG-CC-PVTZ AUX)
    Blend: AUG-CC-PVTZ-RI
    Molecular point group: c1

    Geometry (in Angstrom), charge = 0, multiplicity = 1:

       Center              X                  Y                   Z               Mass
    ------------   -----------------  -----------------  -----------------  -----------------
         O           -2.879556980282     0.463507473235    -0.304736614179    15.994914619570
         O           -0.504359480282     1.539695173235     0.055554385821    15.994914619570
         N            0.652326019718    -0.372629526765    -0.335659614179    14.003074004430
         C            1.960820019718     0.228891473235    -0.095328614179    12.000000000000
         C           -1.791097480282    -0.470739526765    -0.373928614179    12.000000000000
         C            3.002855019718    -0.505090526765    -0.923784614179    12.000000000000
         C            2.289075019718     0.233075473235     1.393594385821    12.000000000000
         C           -0.497083980282     0.325580473235    -0.194541614179    12.000000000000
         C           -1.976341980282    -1.510150526765     0.710615385821    12.000000000000
         H            1.874894019718     1.263186473235    -0.439828614179     1.007825032230
         H            0.599601019718    -1.380207526765    -0.436206614179     1.007825032230
         H           -1.790816980282    -0.926869526765    -1.361486614179     1.007825032230
         H            3.986525019718    -0.048825526765    -0.787841614179     1.007825032230
         H            3.077340019718    -1.553056526765    -0.611324614179     1.007825032230
         H            2.748985019718    -0.474859526765    -1.985775614179     1.007825032230
         H            1.518587019718     0.778252473235     1.943407385821     1.007825032230
         H            3.253475019718     0.716660473235     1.576580385821     1.007825032230
         H            2.339971019718    -0.791244526765     1.776150385821     1.007825032230
         H           -2.962981980282    -1.965339526765     0.607457385821     1.007825032230
         H           -1.912944980282    -1.041290526765     1.695274385821     1.007825032230
         H           -1.223235980282    -2.301504526765     0.642429385821     1.007825032230
         H           -2.448136980282     1.333216473235    -0.151741614179     1.007825032230

  Basis Set: AUG-CC-PVTZ
    Blend: AUG-CC-PVTZ
  Basis Set: (AUG-CC-PVTZ AUX)
    Blend: AUG-CC-PVTZ-JKFIT
	 Reference Energy          =    -439.1364338352315713 [Eh]
	 Singles Energy            =      -0.0000000000000000 [Eh]
	 Same-Spin Energy          =      -0.4461190144509938 [Eh]
	 Opposite-Spin Energy      =      -1.4641939794145895 [Eh]
	 Correlation Energy        =      -1.9103129938655834 [Eh]
	 Total Energy              =    -441.0467468290971738 [Eh]

	 ================> DF-SCS-MP2 Energies <==================
	-----------------------------------------------------------
	 SCS Same-Spin Scale       =       0.3333333333333333 [-]
	 SCS Opposite-Spin Scale   =       1.2000000000000000 [-]
	 SCS Same-Spin Energy      =      -0.1487063381503312 [Eh]
	 SCS Opposite-Spin Energy  =      -1.7570327752975075 [Eh]
	 SCS Correlation Energy    =      -1.9057391134478388 [Eh]
	 SCS Total Energy          =    -441.0421729486794220 [Eh]
	-----------------------------------------------------------

  Dipole Moment: [D]
     X:     3.4349      Y:    -3.1302      Z:    -0.1433     Total:     4.6494

*** Psi4 exiting successfully. Buy a developer a beer!
