                               Psi4 1.3.2 release

  ==> Input File <==

--------------------------------------------------------------------------
#psi4
#
memory 32 gb

molecule  {
0 1
  O       -2.8756320     0.4615000    -0.3051040
  O       -0.5220660     1.5374290     0.0548780
  N        0.6328099    -0.3075443    -0.3641702
  C        1.9647450     0.2268840    -0.0956960
  C       -1.8012180    -0.4504720    -0.3698720
  C        3.0067800    -0.5070980    -0.9241520
  C        2.2930000     0.2310680     1.3932270
  C       -0.4931590     0.3235730    -0.1949090
  C       -1.9724170    -1.5121580     0.7102480
  H        1.8244599     1.2503130    -0.4545036
  H        0.6035260    -1.3822150    -0.4365740
  H       -1.7868920    -0.9288770    -1.3618540
  H        3.9904500    -0.0508330    -0.7882090
  H        3.0812650    -1.5550640    -0.6116920
  H        2.7529100    -0.4768670    -1.9861430
  H        1.5225120     0.7762450     1.9430400
  H        3.2574000     0.7146530     1.5762130
  H        2.3438960    -0.7932520     1.7757830
  H       -2.9590570    -1.9673470     0.6070900
  H       -1.9090200    -1.0432980     1.6949070
  H       -1.2193110    -2.3035120     0.6420620
  H       -2.4442120     1.3312090    -0.1521090
units angstrom
no_reorient  #important for SAPT in psi4, default
symmetry c1  #important for SAPT in psi4, default
}

set PROPERTIES_ORIGIN ["COM"]
properties('MP2/aug-cc-pvtz', properties = ['dipole'])
--------------------------------------------------------------------------

    Molecular point group: c1
  Charge       = 0
  Multiplicity = 1
  Basis Set: AUG-CC-PVTZ
    Blend: AUG-CC-PVTZ
  Basis Set: (AUG-CC-PVTZ AUX)
    Blend: AUG-CC-PVTZ-JKFIT

    Orbital Energies [Eh]
    ---------------------

    Doubly Occupied:

       1A    -20.546315     2A    -20.522517     3A    -15.601428
       4A    -11.349614     5A    -11.296340     6A    -11.279395
       7A    -11.235363     8A    -11.230191     9A    -11.225418
      10A     -1.397485    11A     -1.345438    12A     -1.250875
      13A     -1.076696    14A     -1.024352    15A     -0.952094
      16A     -0.896840    17A     -0.827733    18A     -0.786982
      19A     -0.737189    20A     -0.676007    21A     -0.646506
      22A     -0.633729    23A     -0.627291    24A     -0.595565
      25A     -0.581172    26A     -0.566992    27A     -0.556915
      28A     -0.551949    29A     -0.540234    30A     -0.531560
      31A     -0.506441    32A     -0.503597    33A     -0.492744
      34A     -0.443567    35A     -0.431157    36A     -0.402007

  @DF-RHF Final Energy:  -439.12932926882524

   => Energetics <=

    Nuclear Repulsion Energy =            486.1758636865230301
    One-Electron Energy =               -1562.8709891881271687
    Two-Electron Energy =                 637.5657962327790074
    Total Energy =                       -439.1293292688252450
  Basis Set: (AUG-CC-PVTZ AUX)
    Blend: AUG-CC-PVTZ-RI
    Molecular point group: c1

    Geometry (in Angstrom), charge = 0, multiplicity = 1:

       Center              X                  Y                   Z               Mass
    ------------   -----------------  -----------------  -----------------  -----------------
         O           -2.872710232063     0.454416977734    -0.301987719720    15.994914619570
         O           -0.519144232063     1.530345977734     0.057994280280    15.994914619570
         N            0.635731667937    -0.314627322266    -0.361053919720    14.003074004430
         C            1.967666767937     0.219800977734    -0.092579719720    12.000000000000
         C           -1.798296232063    -0.457555022266    -0.366755719720    12.000000000000
         C            3.009701767937    -0.514181022266    -0.921035719720    12.000000000000
         C            2.295921767937     0.223984977734     1.396343280280    12.000000000000
         C           -0.490237232063     0.316489977734    -0.191792719720    12.000000000000
         C           -1.969495232063    -1.519241022266     0.713364280280    12.000000000000
         H            1.827381667937     1.243229977734    -0.451387319720     1.007825032230
         H            0.606447767937    -1.389298022266    -0.433457719720     1.007825032230
         H           -1.783970232063    -0.935960022266    -1.358737719720     1.007825032230
         H            3.993371767937    -0.057916022266    -0.785092719720     1.007825032230
         H            3.084186767937    -1.562147022266    -0.608575719720     1.007825032230
         H            2.755831767937    -0.483950022266    -1.983026719720     1.007825032230
         H            1.525433767937     0.769161977734     1.946156280280     1.007825032230
         H            3.260321767937     0.707569977734     1.579329280280     1.007825032230
         H            2.346817767937    -0.800335022266     1.778899280280     1.007825032230
         H           -2.956135232063    -1.974430022266     0.610206280280     1.007825032230
         H           -1.906098232063    -1.050381022266     1.698023280280     1.007825032230
         H           -1.216389232063    -2.310595022266     0.645178280280     1.007825032230
         H           -2.441290232063     1.324125977734    -0.148992719720     1.007825032230

  Basis Set: AUG-CC-PVTZ
    Blend: AUG-CC-PVTZ
  Basis Set: (AUG-CC-PVTZ AUX)
    Blend: AUG-CC-PVTZ-JKFIT
	 Reference Energy          =    -439.1293292688252450 [Eh]
	 Singles Energy            =      -0.0000000000000000 [Eh]
	 Same-Spin Energy          =      -0.4465008702436952 [Eh]
	 Opposite-Spin Energy      =      -1.4642079002804120 [Eh]
	 Correlation Energy        =      -1.9107087705241073 [Eh]
	 Total Energy              =    -441.0400380393493265 [Eh]

	 ================> DF-SCS-MP2 Energies <==================
	-----------------------------------------------------------
	 SCS Same-Spin Scale       =       0.3333333333333333 [-]
	 SCS Opposite-Spin Scale   =       1.2000000000000000 [-]
	 SCS Same-Spin Energy      =      -0.1488336234145651 [Eh]
	 SCS Opposite-Spin Energy  =      -1.7570494803364944 [Eh]
	 SCS Correlation Energy    =      -1.9058831037510595 [Eh]
	 SCS Total Energy          =    -441.0352123725763249 [Eh]
	-----------------------------------------------------------

  Dipole Moment: [D]
     X:     3.6781      Y:    -3.2268      Z:    -0.1068     Total:     4.8941

*** Psi4 exiting successfully. Buy a developer a beer!
