                               Psi4 1.3.2 release

  ==> Input File <==

--------------------------------------------------------------------------
#psi4
#
memory 32 gb

molecule  {
0 1
  O       -2.8756320     0.4615000    -0.3051040
  O       -0.5220660     1.5374290     0.0548780
  N        0.6562510    -0.3746370    -0.3360270
  C        1.9647450     0.2268840    -0.0956960
  C       -1.8503209    -0.5045555    -0.3807817
  C        3.0067800    -0.5070980    -0.9241520
  C        2.2930000     0.2310680     1.3932270
  C       -0.4931590     0.3235730    -0.1949090
  C       -1.9724170    -1.5121580     0.7102480
  H        1.8788190     1.2611790    -0.4401960
  H        0.6035260    -1.3822150    -0.4365740
  H       -1.7868920    -0.9288770    -1.3618540
  H        3.9904500    -0.0508330    -0.7882090
  H        3.0812650    -1.5550640    -0.6116920
  H        2.7529100    -0.4768670    -1.9861430
  H        1.5225120     0.7762450     1.9430400
  H        3.2574000     0.7146530     1.5762130
  H        2.3438960    -0.7932520     1.7757830
  H       -2.9590570    -1.9673470     0.6070900
  H       -1.9090200    -1.0432980     1.6949070
  H       -1.2193110    -2.3035120     0.6420620
  H       -2.4909095     1.3528154    -0.1519055
units angstrom
no_reorient  #important for SAPT in psi4, default
symmetry c1  #important for SAPT in psi4, default
}

set PROPERTIES_ORIGIN ["COM"]
properties('MP2/aug-cc-pvtz', properties = ['dipole'])
--------------------------------------------------------------------------

    Molecular point group: c1
  Charge       = 0
  Multiplicity = 1
  Basis Set: AUG-CC-PVTZ
    Blend: AUG-CC-PVTZ
  Basis Set: (AUG-CC-PVTZ AUX)
    Blend: AUG-CC-PVTZ-JKFIT

    Orbital Energies [Eh]
    ---------------------

    Doubly Occupied:

       1A    -20.545419     2A    -20.530160     3A    -15.593895
       4A    -11.356239     5A    -11.298836     6A    -11.275749
       7A    -11.231397     8A    -11.229482     9A    -11.221373
      10A     -1.391008    11A     -1.343079    12A     -1.245268
      13A     -1.069954    14A     -1.029530    15A     -0.948904
      16A     -0.885828    17A     -0.823549    18A     -0.794577
      19A     -0.728508    20A     -0.680658    21A     -0.653311
      22A     -0.630878    23A     -0.627228    24A     -0.595718
      25A     -0.587036    26A     -0.569655    27A     -0.554051
      28A     -0.546155    29A     -0.539226    30A     -0.531747
      31A     -0.503616    32A     -0.501518    33A     -0.489240
      34A     -0.451918    35A     -0.420835    36A     -0.399786

  @DF-RHF Final Energy:  -439.13255981567556

   => Energetics <=

    Nuclear Repulsion Energy =            484.2912932218530955
    One-Electron Energy =               -1559.1970423967848092
    Two-Electron Energy =                 635.7731893592562074
    Total Energy =                       -439.1325598156755632
  Basis Set: (AUG-CC-PVTZ AUX)
    Blend: AUG-CC-PVTZ-RI
    Molecular point group: c1

    Geometry (in Angstrom), charge = 0, multiplicity = 1:

       Center              X                  Y                   Z               Mass
    ------------   -----------------  -----------------  -----------------  -----------------
         O           -2.870778300967     0.466284584833    -0.304106796336    15.994914619570
         O           -0.517212300967     1.542213584833     0.055875203664    15.994914619570
         N            0.661104699033    -0.369852415167    -0.335029796336    14.003074004430
         C            1.969598699033     0.231668584833    -0.094698796336    12.000000000000
         C           -1.845467200967    -0.499770915167    -0.379784496336    12.000000000000
         C            3.011633699033    -0.502313415167    -0.923154796336    12.000000000000
         C            2.297853699033     0.235852584833     1.394224203664    12.000000000000
         C           -0.488305300967     0.328357584833    -0.193911796336    12.000000000000
         C           -1.967563300967    -1.507373415167     0.711245203664    12.000000000000
         H            1.883672699033     1.265963584833    -0.439198796336     1.007825032230
         H            0.608379699033    -1.377430415167    -0.435576796336     1.007825032230
         H           -1.782038300967    -0.924092415167    -1.360856796336     1.007825032230
         H            3.995303699033    -0.046048415167    -0.787211796336     1.007825032230
         H            3.086118699033    -1.550279415167    -0.610694796336     1.007825032230
         H            2.757763699033    -0.472082415167    -1.985145796336     1.007825032230
         H            1.527365699033     0.781029584833     1.944037203664     1.007825032230
         H            3.262253699033     0.719437584833     1.577210203664     1.007825032230
         H            2.348749699033    -0.788467415167     1.776780203664     1.007825032230
         H           -2.954203300967    -1.962562415167     0.608087203664     1.007825032230
         H           -1.904166300967    -1.038513415167     1.695904203664     1.007825032230
         H           -1.214457300967    -2.298727415167     0.643059203664     1.007825032230
         H           -2.486055800967     1.357599984833    -0.150908296336     1.007825032230

  Basis Set: AUG-CC-PVTZ
    Blend: AUG-CC-PVTZ
  Basis Set: (AUG-CC-PVTZ AUX)
    Blend: AUG-CC-PVTZ-JKFIT
	 Reference Energy          =    -439.1325598156755632 [Eh]
	 Singles Energy            =      -0.0000000000000000 [Eh]
	 Same-Spin Energy          =      -0.4459451064701140 [Eh]
	 Opposite-Spin Energy      =      -1.4635238091376903 [Eh]
	 Correlation Energy        =      -1.9094689156078042 [Eh]
	 Total Energy              =    -441.0420287312833807 [Eh]

	 ================> DF-SCS-MP2 Energies <==================
	-----------------------------------------------------------
	 SCS Same-Spin Scale       =       0.3333333333333333 [-]
	 SCS Opposite-Spin Scale   =       1.2000000000000000 [-]
	 SCS Same-Spin Energy      =      -0.1486483688233713 [Eh]
	 SCS Opposite-Spin Energy  =      -1.7562285709652283 [Eh]
	 SCS Correlation Energy    =      -1.9048769397885996 [Eh]
	 SCS Total Energy          =    -441.0374367554641708 [Eh]
	-----------------------------------------------------------

  Dipole Moment: [D]
     X:     3.3728      Y:    -3.0654      Z:    -0.1392     Total:     4.5598

*** Psi4 exiting successfully. Buy a developer a beer!
