                               Psi4 1.3.2 release

  ==> Input File <==

--------------------------------------------------------------------------
#psi4
#
memory 32 gb

molecule  {
0 1
  O       -2.8431788     0.4979313    -0.2984427
  O       -0.5220660     1.5374290     0.0548780
  N        0.6562510    -0.3746370    -0.3360270
  C        1.9647450     0.2268840    -0.0956960
  C       -1.8012180    -0.4504720    -0.3698720
  C        3.0067800    -0.5070980    -0.9241520
  C        2.2930000     0.2310680     1.3932270
  C       -0.5215035     0.3686053    -0.1903753
  C       -1.9724170    -1.5121580     0.7102480
  H        1.8788190     1.2611790    -0.4401960
  H        0.6035260    -1.3822150    -0.4365740
  H       -1.7868920    -0.9288770    -1.3618540
  H        3.9904500    -0.0508330    -0.7882090
  H        3.0812650    -1.5550640    -0.6116920
  H        2.7529100    -0.4768670    -1.9861430
  H        1.5225120     0.7762450     1.9430400
  H        3.2574000     0.7146530     1.5762130
  H        2.3438960    -0.7932520     1.7757830
  H       -2.9590570    -1.9673470     0.6070900
  H       -1.9090200    -1.0432980     1.6949070
  H       -1.2193110    -2.3035120     0.6420620
  H       -2.4442120     1.3312090    -0.1521090
units angstrom
no_reorient  #important for SAPT in psi4, default
symmetry c1  #important for SAPT in psi4, default
}

set PROPERTIES_ORIGIN ["COM"]
properties('MP2/aug-cc-pvtz', properties = ['dipole'])
--------------------------------------------------------------------------

    Molecular point group: c1
  Charge       = 0
  Multiplicity = 1
  Basis Set: AUG-CC-PVTZ
    Blend: AUG-CC-PVTZ
  Basis Set: (AUG-CC-PVTZ AUX)
    Blend: AUG-CC-PVTZ-JKFIT

    Orbital Energies [Eh]
    ---------------------

    Doubly Occupied:

       1A    -20.544522     2A    -20.542534     3A    -15.584271
       4A    -11.357793     5A    -11.298694     6A    -11.271712
       7A    -11.232309     8A    -11.228249     9A    -11.218814
      10A     -1.424596    11A     -1.360217    12A     -1.234033
      13A     -1.066021    14A     -1.023140    15A     -0.945985
      16A     -0.894745    17A     -0.818064    18A     -0.785892
      19A     -0.742939    20A     -0.685309    21A     -0.653381
      22A     -0.637450    23A     -0.625219    24A     -0.599613
      25A     -0.584067    26A     -0.570212    27A     -0.551964
      28A     -0.544952    29A     -0.541829    30A     -0.534137
      31A     -0.518190    32A     -0.502883    33A     -0.489203
      34A     -0.448958    35A     -0.435393    36A     -0.395749

  @DF-RHF Final Energy:  -439.13701823682777

   => Energetics <=

    Nuclear Repulsion Energy =            486.0133433489208414
    One-Electron Energy =               -1562.5146425675445698
    Two-Electron Energy =                 637.3642809817959005
    Total Energy =                       -439.1370182368277710
  Basis Set: (AUG-CC-PVTZ AUX)
    Blend: AUG-CC-PVTZ-RI
    Molecular point group: c1

    Geometry (in Angstrom), charge = 0, multiplicity = 1:

       Center              X                  Y                   Z               Mass
    ------------   -----------------  -----------------  -----------------  -----------------
         O           -2.844543890256     0.489364234349    -0.299670321528    15.994914619570
         O           -0.523431090256     1.528861934349     0.053650378472    15.994914619570
         N            0.654885909744    -0.383204065651    -0.337254621528    14.003074004430
         C            1.963379909744     0.218316934349    -0.096923621528    12.000000000000
         C           -1.802583090256    -0.459039065651    -0.371099621528    12.000000000000
         C            3.005414909744    -0.515665065651    -0.925379621528    12.000000000000
         C            2.291634909744     0.222500934349     1.391999378472    12.000000000000
         C           -0.522868590256     0.360038234349    -0.191602921528    12.000000000000
         C           -1.973782090256    -1.520725065651     0.709020378472    12.000000000000
         H            1.877453909744     1.252611934349    -0.441423621528     1.007825032230
         H            0.602160909744    -1.390782065651    -0.437801621528     1.007825032230
         H           -1.788257090256    -0.937444065651    -1.363081621528     1.007825032230
         H            3.989084909744    -0.059400065651    -0.789436621528     1.007825032230
         H            3.079899909744    -1.563631065651    -0.612919621528     1.007825032230
         H            2.751544909744    -0.485434065651    -1.987370621528     1.007825032230
         H            1.521146909744     0.767677934349     1.941812378472     1.007825032230
         H            3.256034909744     0.706085934349     1.574985378472     1.007825032230
         H            2.342530909744    -0.801819065651     1.774555378472     1.007825032230
         H           -2.960422090256    -1.975914065651     0.605862378472     1.007825032230
         H           -1.910385090256    -1.051865065651     1.693679378472     1.007825032230
         H           -1.220676090256    -2.312079065651     0.640834378472     1.007825032230
         H           -2.445577090256     1.322641934349    -0.153336621528     1.007825032230

  Basis Set: AUG-CC-PVTZ
    Blend: AUG-CC-PVTZ
  Basis Set: (AUG-CC-PVTZ AUX)
    Blend: AUG-CC-PVTZ-JKFIT
	 Reference Energy          =    -439.1370182368277710 [Eh]
	 Singles Energy            =      -0.0000000000000000 [Eh]
	 Same-Spin Energy          =      -0.4444869031085942 [Eh]
	 Opposite-Spin Energy      =      -1.4606155239375282 [Eh]
	 Correlation Energy        =      -1.9051024270461225 [Eh]
	 Total Energy              =    -441.0421206638739022 [Eh]

	 ================> DF-SCS-MP2 Energies <==================
	-----------------------------------------------------------
	 SCS Same-Spin Scale       =       0.3333333333333333 [-]
	 SCS Opposite-Spin Scale   =       1.2000000000000000 [-]
	 SCS Same-Spin Energy      =      -0.1481623010361981 [Eh]
	 SCS Opposite-Spin Energy  =      -1.7527386287250339 [Eh]
	 SCS Correlation Energy    =      -1.9009009297612320 [Eh]
	 SCS Total Energy          =    -441.0379191665890062 [Eh]
	-----------------------------------------------------------

  Dipole Moment: [D]
     X:     3.0130      Y:    -2.8375      Z:    -0.1065     Total:     4.1402

*** Psi4 exiting successfully. Buy a developer a beer!
