                               Psi4 1.3.2 release

  ==> Input File <==

--------------------------------------------------------------------------
#psi4
#
memory 32 gb

molecule  {
0 1
  O       -2.8756320     0.4615000    -0.3051040
  O       -0.5220660     1.5374290     0.0548780
  N        0.6562510    -0.3746370    -0.3360270
  C        1.9647450     0.2268840    -0.0956960
  C       -1.8012180    -0.4504720    -0.3698720
  C        3.0067800    -0.5070980    -0.9241520
  C        2.2930000     0.2310680     1.3932270
  C       -0.4931590     0.3235730    -0.1949090
  C       -1.9724170    -1.5121580     0.7102480
  H        1.8788190     1.2611790    -0.4401960
  H        0.6035260    -1.3822150    -0.4365740
  H       -1.7894934    -0.8420057    -1.1817246
  H        3.9904500    -0.0508330    -0.7882090
  H        3.0812650    -1.5550640    -0.6116920
  H        2.7529100    -0.4768670    -1.9861430
  H        1.5225120     0.7762450     1.9430400
  H        3.2574000     0.7146530     1.5762130
  H        2.3438960    -0.7932520     1.7757830
  H       -2.9590570    -1.9673470     0.6070900
  H       -1.9090200    -1.0432980     1.6949070
  H       -1.2193110    -2.3035120     0.6420620
  H       -2.4442120     1.3312090    -0.1521090
units angstrom
no_reorient  #important for SAPT in psi4, default
symmetry c1  #important for SAPT in psi4, default
}

set PROPERTIES_ORIGIN ["COM"]
properties('MP2/aug-cc-pvtz', properties = ['dipole'])
--------------------------------------------------------------------------

    Molecular point group: c1
  Charge       = 0
  Multiplicity = 1
  Basis Set: AUG-CC-PVTZ
    Blend: AUG-CC-PVTZ
  Basis Set: (AUG-CC-PVTZ AUX)
    Blend: AUG-CC-PVTZ-JKFIT

    Orbital Energies [Eh]
    ---------------------

    Doubly Occupied:

       1A    -20.544562     2A    -20.531655     3A    -15.596410
       4A    -11.356959     5A    -11.277471     6A    -11.272214
       7A    -11.232562     8A    -11.229303     9A    -11.222435
      10A     -1.396672    11A     -1.344624    12A     -1.248463
      13A     -1.075890    14A     -1.031334    15A     -0.950059
      16A     -0.903459    17A     -0.833177    18A     -0.799893
      19A     -0.742895    20A     -0.687692    21A     -0.657866
      22A     -0.632101    23A     -0.629086    24A     -0.597449
      25A     -0.580649    26A     -0.566730    27A     -0.555264
      28A     -0.547996    29A     -0.542478    30A     -0.533613
      31A     -0.512186    32A     -0.502841    33A     -0.491488
      34A     -0.449935    35A     -0.434241    36A     -0.402170

  @DF-RHF Final Energy:  -439.10665105878059

   => Energetics <=

    Nuclear Repulsion Energy =            486.5334826747055672
    One-Electron Energy =               -1563.4526235175478632
    Two-Electron Energy =                 637.8124897840617678
    Total Energy =                       -439.1066510587805851
  Basis Set: (AUG-CC-PVTZ AUX)
    Blend: AUG-CC-PVTZ-RI
    Molecular point group: c1

    Geometry (in Angstrom), charge = 0, multiplicity = 1:

       Center              X                  Y                   Z               Mass
    ------------   -----------------  -----------------  -----------------  -----------------
         O           -2.875612030311     0.460832205836    -0.306488665290    15.994914619570
         O           -0.522046030311     1.536761205836     0.053493334710    15.994914619570
         N            0.656270969689    -0.375304794164    -0.337411665290    14.003074004430
         C            1.964764969689     0.226216205836    -0.097080665290    12.000000000000
         C           -1.801198030311    -0.451139794164    -0.371256665290    12.000000000000
         C            3.006799969689    -0.507765794164    -0.925536665290    12.000000000000
         C            2.293019969689     0.230400205836     1.391842334710    12.000000000000
         C           -0.493139030311     0.322905205836    -0.196293665290    12.000000000000
         C           -1.972397030311    -1.512825794164     0.708863334710    12.000000000000
         H            1.878838969689     1.260511205836    -0.441580665290     1.007825032230
         H            0.603545969689    -1.382882794164    -0.437958665290     1.007825032230
         H           -1.789473430311    -0.842673494164    -1.183109265290     1.007825032230
         H            3.990469969689    -0.051500794164    -0.789593665290     1.007825032230
         H            3.081284969689    -1.555731794164    -0.613076665290     1.007825032230
         H            2.752929969689    -0.477534794164    -1.987527665290     1.007825032230
         H            1.522531969689     0.775577205836     1.941655334710     1.007825032230
         H            3.257419969689     0.713985205836     1.574828334710     1.007825032230
         H            2.343915969689    -0.793919794164     1.774398334710     1.007825032230
         H           -2.959037030311    -1.968014794164     0.605705334710     1.007825032230
         H           -1.909000030311    -1.043965794164     1.693522334710     1.007825032230
         H           -1.219291030311    -2.304179794164     0.640677334710     1.007825032230
         H           -2.444192030311     1.330541205836    -0.153493665290     1.007825032230

  Basis Set: AUG-CC-PVTZ
    Blend: AUG-CC-PVTZ
  Basis Set: (AUG-CC-PVTZ AUX)
    Blend: AUG-CC-PVTZ-JKFIT
	 Reference Energy          =    -439.1066510587805851 [Eh]
	 Singles Energy            =      -0.0000000000000000 [Eh]
	 Same-Spin Energy          =      -0.4458899620656375 [Eh]
	 Opposite-Spin Energy      =      -1.4627756684107924 [Eh]
	 Correlation Energy        =      -1.9086656304764300 [Eh]
	 Total Energy              =    -441.0153166892570198 [Eh]

	 ================> DF-SCS-MP2 Energies <==================
	-----------------------------------------------------------
	 SCS Same-Spin Scale       =       0.3333333333333333 [-]
	 SCS Opposite-Spin Scale   =       1.2000000000000000 [-]
	 SCS Same-Spin Energy      =      -0.1486299873552125 [Eh]
	 SCS Opposite-Spin Energy  =      -1.7553308020929508 [Eh]
	 SCS Correlation Energy    =      -1.9039607894481634 [Eh]
	 SCS Total Energy          =    -441.0106118482287343 [Eh]
	-----------------------------------------------------------

  Dipole Moment: [D]
     X:     3.5176      Y:    -3.1161      Z:    -0.2031     Total:     4.7037

*** Psi4 exiting successfully. Buy a developer a beer!
