                               Psi4 1.3.2 release

  ==> Input File <==

--------------------------------------------------------------------------
#psi4
#
memory 32 gb

molecule  {
0 1
  O       -2.8756320     0.4615000    -0.3051040
  O       -0.5220660     1.5374290     0.0548780
  N        0.6562510    -0.3746370    -0.3360270
  C        1.9647450     0.2268840    -0.0956960
  C       -1.8012180    -0.4504720    -0.3698720
  C        3.0067800    -0.5070980    -0.9241520
  C        2.2930000     0.2310680     1.3932270
  C       -0.4903121     0.3162126    -0.1841397
  C       -1.9607738    -1.5085422     0.7155657
  H        1.8788190     1.2611790    -0.4401960
  H        0.6035260    -1.3822150    -0.4365740
  H       -1.7868920    -0.9288770    -1.3618540
  H        3.9904500    -0.0508330    -0.7882090
  H        3.0812650    -1.5550640    -0.6116920
  H        2.7529100    -0.4768670    -1.9861430
  H        1.5225120     0.7762450     1.9430400
  H        3.2574000     0.7146530     1.5762130
  H        2.3438960    -0.7932520     1.7757830
  H       -2.9590570    -1.9673470     0.6070900
  H       -1.9090200    -1.0432980     1.6949070
  H       -1.2193110    -2.3035120     0.6420620
  H       -2.4442120     1.3312090    -0.1521090
units angstrom
no_reorient  #important for SAPT in psi4, default
symmetry c1  #important for SAPT in psi4, default
}

set PROPERTIES_ORIGIN ["COM"]
properties('MP2/aug-cc-pvtz', properties = ['dipole'])
--------------------------------------------------------------------------

    Molecular point group: c1
  Charge       = 0
  Multiplicity = 1
  Basis Set: AUG-CC-PVTZ
    Blend: AUG-CC-PVTZ
  Basis Set: (AUG-CC-PVTZ AUX)
    Blend: AUG-CC-PVTZ-JKFIT

    Orbital Energies [Eh]
    ---------------------

    Doubly Occupied:

       1A    -20.547845     2A    -20.530988     3A    -15.596735
       4A    -11.357833     5A    -11.297466     6A    -11.277702
       7A    -11.232707     8A    -11.230671     9A    -11.222656
      10A     -1.394767    11A     -1.345022    12A     -1.249109
      13A     -1.073161    14A     -1.024389    15A     -0.950264
      16A     -0.894581    17A     -0.823125    18A     -0.795917
      19A     -0.736377    20A     -0.679080    21A     -0.650141
      22A     -0.631392    23A     -0.629095    24A     -0.597074
      25A     -0.581606    26A     -0.566225    27A     -0.555494
      28A     -0.547046    29A     -0.540626    30A     -0.530908
      31A     -0.511437    32A     -0.502580    33A     -0.491428
      34A     -0.445237    35A     -0.433169    36A     -0.401831

  @DF-RHF Final Energy:  -439.13713846491265

   => Energetics <=

    Nuclear Repulsion Energy =            485.4428395244317471
    One-Electron Energy =               -1561.4085956649801119
    Two-Electron Energy =                 636.8286176756356554
    Total Energy =                       -439.1371384649127094
  Basis Set: (AUG-CC-PVTZ AUX)
    Blend: AUG-CC-PVTZ-RI
    Molecular point group: c1

    Geometry (in Angstrom), charge = 0, multiplicity = 1:

       Center              X                  Y                   Z               Mass
    ------------   -----------------  -----------------  -----------------  -----------------
         O           -2.876958408555     0.461842821389    -0.306576426945    15.994914619570
         O           -0.523392408555     1.537771821389     0.053405573055    15.994914619570
         N            0.654924591445    -0.374294178611    -0.337499426945    14.003074004430
         C            1.963418591445     0.227226821389    -0.097168426945    12.000000000000
         C           -1.802544408555    -0.450129178611    -0.371344426945    12.000000000000
         C            3.005453591445    -0.506755178611    -0.925624426945    12.000000000000
         C            2.291673591445     0.231410821389     1.391754573055    12.000000000000
         C           -0.491638508555     0.316555421389    -0.185612126945    12.000000000000
         C           -1.962100208555    -1.508199378611     0.714093273055    12.000000000000
         H            1.877492591445     1.261521821389    -0.441668426945     1.007825032230
         H            0.602199591445    -1.381872178611    -0.438046426945     1.007825032230
         H           -1.788218408555    -0.928534178611    -1.363326426945     1.007825032230
         H            3.989123591445    -0.050490178611    -0.789681426945     1.007825032230
         H            3.079938591445    -1.554721178611    -0.613164426945     1.007825032230
         H            2.751583591445    -0.476524178611    -1.987615426945     1.007825032230
         H            1.521185591445     0.776587821389     1.941567573055     1.007825032230
         H            3.256073591445     0.714995821389     1.574740573055     1.007825032230
         H            2.342569591445    -0.792909178611     1.774310573055     1.007825032230
         H           -2.960383408555    -1.967004178611     0.605617573055     1.007825032230
         H           -1.910346408555    -1.042955178611     1.693434573055     1.007825032230
         H           -1.220637408555    -2.303169178611     0.640589573055     1.007825032230
         H           -2.445538408555     1.331551821389    -0.153581426945     1.007825032230

  Basis Set: AUG-CC-PVTZ
    Blend: AUG-CC-PVTZ
  Basis Set: (AUG-CC-PVTZ AUX)
    Blend: AUG-CC-PVTZ-JKFIT
	 Reference Energy          =    -439.1371384649126526 [Eh]
	 Singles Energy            =      -0.0000000000000000 [Eh]
	 Same-Spin Energy          =      -0.4461663515238813 [Eh]
	 Opposite-Spin Energy      =      -1.4638626844703373 [Eh]
	 Correlation Energy        =      -1.9100290359942187 [Eh]
	 Total Energy              =    -441.0471675009068804 [Eh]

	 ================> DF-SCS-MP2 Energies <==================
	-----------------------------------------------------------
	 SCS Same-Spin Scale       =       0.3333333333333333 [-]
	 SCS Opposite-Spin Scale   =       1.2000000000000000 [-]
	 SCS Same-Spin Energy      =      -0.1487221171746271 [Eh]
	 SCS Opposite-Spin Energy  =      -1.7566352213644048 [Eh]
	 SCS Correlation Energy    =      -1.9053573385390319 [Eh]
	 SCS Total Energy          =    -441.0424958034516862 [Eh]
	-----------------------------------------------------------

  Dipole Moment: [D]
     X:     3.4962      Y:    -3.0944      Z:    -0.1420     Total:     4.6711

*** Psi4 exiting successfully. Buy a developer a beer!
