                               Psi4 1.4a3.dev225

  ==> Input File <==

--------------------------------------------------------------------------
#psi4
#
memory 32 gb

molecule  {
0 1
  O        2.9110620    -0.5703060    -0.4523520
  O        0.5539390    -1.5540470     0.1662040
  N       -0.5943370     0.3369340    -0.3930300
  C       -1.9154150    -0.2304160    -0.1256420
  C        1.8655780     0.3788930    -0.3941620
  C       -2.9513150     0.5221750    -0.9483650
  C       -2.2232580    -0.2086170     1.3682650
  C        0.5443190    -0.3662470    -0.1910430
  C        2.1035320     1.3624180     0.7499890
  H       -1.8664900    -1.2716350    -0.4595930
  H       -0.5314611     1.2697553    -0.6256659
  H        1.8317100     0.9202690    -1.3505730
  H       -3.9433690     0.0896600    -0.7945050
  H       -2.9965010     1.5743390    -0.6446630
  H       -2.7149650     0.4749500    -2.0147890
  H       -1.4563020    -0.7629570     1.9136170
  H       -3.1950150    -0.6709470     1.5682930
  H       -2.2473660     0.8219210     1.7368640
  H        3.0888910     1.8183940     0.6312910
  H        2.0827360     0.8223960     1.7004970
  H        1.3487660     2.1553220     0.7756360
  H        2.4958040    -1.4028240    -0.1381920
units angstrom
no_reorient  #important for SAPT in psi4, default
symmetry c1  #important for SAPT in psi4, default
}

set PROPERTIES_ORIGIN ["COM"]
properties('MP2/aug-cc-pvtz', properties = ['dipole'])
--------------------------------------------------------------------------

    Molecular point group: c1
  Charge       = 0
  Multiplicity = 1
  Basis Set: AUG-CC-PVTZ
    Blend: AUG-CC-PVTZ
  Basis Set: (AUG-CC-PVTZ AUX)
    Blend: AUG-CC-PVTZ-JKFIT

    Orbital Energies [Eh]
    ---------------------

    Doubly Occupied:

       1A    -20.548879     2A    -20.531928     3A    -15.591353
       4A    -11.358259     5A    -11.297910     6A    -11.278068
       7A    -11.233586     8A    -11.230017     9A    -11.221197
      10A     -1.396305    11A     -1.346063    12A     -1.252684
      13A     -1.072126    14A     -1.024373    15A     -0.949850
      16A     -0.894482    17A     -0.823664    18A     -0.804165
      19A     -0.737905    20A     -0.678480    21A     -0.644520
      22A     -0.636234    23A     -0.629336    24A     -0.596244
      25A     -0.582550    26A     -0.571349    27A     -0.555233
      28A     -0.548447    29A     -0.537206    30A     -0.528903
      31A     -0.512510    32A     -0.502247    33A     -0.491593
      34A     -0.446620    35A     -0.432038    36A     -0.402296

  @DF-RHF Final Energy:  -439.13749664980560

   => Energetics <=

    Nuclear Repulsion Energy =            485.3820598610649313
    One-Electron Energy =               -1561.2618759895296989
    Two-Electron Energy =                 636.7423194786592830
    Total Energy =                       -439.1374966498055983
  Basis Set: (AUG-CC-PVTZ AUX)
    Blend: AUG-CC-PVTZ-RI
    Molecular point group: c1

    Geometry (in Angstrom), charge = 0, multiplicity = 1:

       Center              X                  Y                   Z               Mass
    ------------   -----------------  -----------------  -----------------  -----------------
         O            2.849929293769    -0.525468691956    -0.435144305797    15.994914619570
         O            0.492806293769    -1.509209691956     0.183411694203    15.994914619570
         N           -0.655469706231     0.381771308044    -0.375822305797    14.003074004430
         C           -1.976547706231    -0.185578691956    -0.108434305797    12.000000000000
         C            1.804445293769     0.423730308044    -0.376954305797    12.000000000000
         C           -3.012447706231     0.567012308044    -0.931157305797    12.000000000000
         C           -2.284390706231    -0.163779691956     1.385472694203    12.000000000000
         C            0.483186293769    -0.321409691956    -0.173835305797    12.000000000000
         C            2.042399293769     1.407255308044     0.767196694203    12.000000000000
         H           -1.927622706231    -1.226797691956    -0.442385305797     1.007825032230
         H           -0.592593806231     1.314592608044    -0.608458205797     1.007825032230
         H            1.770577293769     0.965106308044    -1.333365305797     1.007825032230
         H           -4.004501706231     0.134497308044    -0.777297305797     1.007825032230
         H           -3.057633706231     1.619176308044    -0.627455305797     1.007825032230
         H           -2.776097706231     0.519787308044    -1.997581305797     1.007825032230
         H           -1.517434706231    -0.718119691956     1.930824694203     1.007825032230
         H           -3.256147706231    -0.626109691956     1.585500694203     1.007825032230
         H           -2.308498706231     0.866758308044     1.754071694203     1.007825032230
         H            3.027758293769     1.863231308044     0.648498694203     1.007825032230
         H            2.021603293769     0.867233308044     1.717704694203     1.007825032230
         H            1.287633293769     2.200159308044     0.792843694203     1.007825032230
         H            2.434671293769    -1.357986691956    -0.120984305797     1.007825032230

  Basis Set: AUG-CC-PVTZ
    Blend: AUG-CC-PVTZ
  Basis Set: (AUG-CC-PVTZ AUX)
    Blend: AUG-CC-PVTZ-JKFIT
	 Reference Energy          =    -439.1374966498055983 [Eh]
	 Singles Energy            =      -0.0000000000000000 [Eh]
	 Same-Spin Energy          =      -0.4455298512657645 [Eh]
	 Opposite-Spin Energy      =      -1.4628799145564340 [Eh]
	 Correlation Energy        =      -1.9084097658221983 [Eh]
	 Total Energy              =    -441.0459064156277691 [Eh]

	 ================> DF-SCS-MP2 Energies <==================
	-----------------------------------------------------------
	 SCS Same-Spin Scale       =       0.3333333333333333 [-]
	 SCS Opposite-Spin Scale   =       1.2000000000000000 [-]
	 SCS Same-Spin Energy      =      -0.1485099504219215 [Eh]
	 SCS Opposite-Spin Energy  =      -1.7554558974677208 [Eh]
	 SCS Correlation Energy    =      -1.9039658478896422 [Eh]
	 SCS Total Energy          =    -441.0414624976952496 [Eh]
	-----------------------------------------------------------

  Dipole Moment: [D]
     X:    -3.3750      Y:     3.0926      Z:    -0.1736     Total:     4.5809

*** Psi4 exiting successfully. Buy a developer a beer!
