                               Psi4 1.3.2 release

  ==> Input File <==

--------------------------------------------------------------------------
#psi4
#
memory 32 gb

molecule  {
0 1
  O       -2.8756320     0.4615000    -0.3051040
  O       -0.5220660     1.5374290     0.0548780
  N        0.6562510    -0.3746370    -0.3360270
  C        1.9647450     0.2268840    -0.0956960
  C       -1.8012180    -0.4504720    -0.3698720
  C        3.0067800    -0.5070980    -0.9241520
  C        2.2930000     0.2310680     1.3932270
  C       -0.4954909     0.4214941    -0.1747588
  C       -1.9724170    -1.5121580     0.7102480
  H        1.8788190     1.2611790    -0.4401960
  H        0.6035260    -1.3822150    -0.4365740
  H       -1.7868920    -0.9288770    -1.3618540
  H        3.9904500    -0.0508330    -0.7882090
  H        3.0812650    -1.5550640    -0.6116920
  H        2.7529100    -0.4768670    -1.9861430
  H        1.5225120     0.7762450     1.9430400
  H        3.2574000     0.7146530     1.5762130
  H        2.3438960    -0.7932520     1.7757830
  H       -2.9590570    -1.9673470     0.6070900
  H       -1.9090200    -1.0432980     1.6949070
  H       -1.2193110    -2.3035120     0.6420620
  H       -2.4442120     1.3312090    -0.1521090
units angstrom
no_reorient  #important for SAPT in psi4, default
symmetry c1  #important for SAPT in psi4, default
}

set PROPERTIES_ORIGIN ["COM"]
properties('MP2/aug-cc-pvtz', properties = ['dipole'])
--------------------------------------------------------------------------

    Molecular point group: c1
  Charge       = 0
  Multiplicity = 1
  Basis Set: AUG-CC-PVTZ
    Blend: AUG-CC-PVTZ
  Basis Set: (AUG-CC-PVTZ AUX)
    Blend: AUG-CC-PVTZ-JKFIT

    Orbital Energies [Eh]
    ---------------------

    Doubly Occupied:

       1A    -20.553288     2A    -20.547755     3A    -15.579894
       4A    -11.355283     5A    -11.293606     6A    -11.270228
       7A    -11.227640     8A    -11.227440     9A    -11.218989
      10A     -1.462173    11A     -1.354202    12A     -1.233281
      13A     -1.059288    14A     -1.015555    15A     -0.945870
      16A     -0.882539    17A     -0.813444    18A     -0.786785
      19A     -0.739285    20A     -0.691410    21A     -0.657085
      22A     -0.638059    23A     -0.626038    24A     -0.607134
      25A     -0.580677    26A     -0.565231    27A     -0.556690
      28A     -0.547831    29A     -0.543379    30A     -0.533565
      31A     -0.527024    32A     -0.504810    33A     -0.490675
      34A     -0.444321    35A     -0.424607    36A     -0.396525

  @DF-RHF Final Energy:  -439.12704852046045

   => Energetics <=

    Nuclear Repulsion Energy =            485.6946273039318953
    One-Electron Energy =               -1561.8401395637736186
    Two-Electron Energy =                 637.0184637393813318
    Total Energy =                       -439.1270485204604483
  Basis Set: (AUG-CC-PVTZ AUX)
    Blend: AUG-CC-PVTZ-RI
    Molecular point group: c1

    Geometry (in Angstrom), charge = 0, multiplicity = 1:

       Center              X                  Y                   Z               Mass
    ------------   -----------------  -----------------  -----------------  -----------------
         O           -2.875418574299     0.452536655207    -0.306948359804    15.994914619570
         O           -0.521852574299     1.528465655207     0.053033640196    15.994914619570
         N            0.656464425701    -0.383600344793    -0.337871359804    14.003074004430
         C            1.964958425701     0.217920655207    -0.097540359804    12.000000000000
         C           -1.801004574299    -0.459435344793    -0.371716359804    12.000000000000
         C            3.006993425701    -0.516061344793    -0.925996359804    12.000000000000
         C            2.293213425701     0.222104655207     1.391382640196    12.000000000000
         C           -0.495277474299     0.412530755207    -0.176603159804    12.000000000000
         C           -1.972203574299    -1.521121344793     0.708403640196    12.000000000000
         H            1.879032425701     1.252215655207    -0.442040359804     1.007825032230
         H            0.603739425701    -1.391178344793    -0.438418359804     1.007825032230
         H           -1.786678574299    -0.937840344793    -1.363698359804     1.007825032230
         H            3.990663425701    -0.059796344793    -0.790053359804     1.007825032230
         H            3.081478425701    -1.564027344793    -0.613536359804     1.007825032230
         H            2.753123425701    -0.485830344793    -1.987987359804     1.007825032230
         H            1.522725425701     0.767281655207     1.941195640196     1.007825032230
         H            3.257613425701     0.705689655207     1.574368640196     1.007825032230
         H            2.344109425701    -0.802215344793     1.773938640196     1.007825032230
         H           -2.958843574299    -1.976310344793     0.605245640196     1.007825032230
         H           -1.908806574299    -1.052261344793     1.693062640196     1.007825032230
         H           -1.219097574299    -2.312475344793     0.640217640196     1.007825032230
         H           -2.443998574299     1.322245655207    -0.153953359804     1.007825032230

  Basis Set: AUG-CC-PVTZ
    Blend: AUG-CC-PVTZ
  Basis Set: (AUG-CC-PVTZ AUX)
    Blend: AUG-CC-PVTZ-JKFIT
	 Reference Energy          =    -439.1270485204604483 [Eh]
	 Singles Energy            =      -0.0000000000000000 [Eh]
	 Same-Spin Energy          =      -0.4440168672995527 [Eh]
	 Opposite-Spin Energy      =      -1.4599826262643445 [Eh]
	 Correlation Energy        =      -1.9039994935638971 [Eh]
	 Total Energy              =    -441.0310480140243499 [Eh]

	 ================> DF-SCS-MP2 Energies <==================
	-----------------------------------------------------------
	 SCS Same-Spin Scale       =       0.3333333333333333 [-]
	 SCS Opposite-Spin Scale   =       1.2000000000000000 [-]
	 SCS Same-Spin Energy      =      -0.1480056224331842 [Eh]
	 SCS Opposite-Spin Energy  =      -1.7519791515172134 [Eh]
	 SCS Correlation Energy    =      -1.8999847739503977 [Eh]
	 SCS Total Energy          =    -441.0270332944108418 [Eh]
	-----------------------------------------------------------

  Dipole Moment: [D]
     X:     3.1033      Y:    -2.4324      Z:    -0.0542     Total:     3.9433

*** Psi4 exiting successfully. Buy a developer a beer!
