                               Psi4 1.3.2 release

  ==> Input File <==

--------------------------------------------------------------------------
#psi4
#
memory 32 gb

molecule  {
0 1
  O       -2.8756320     0.4615000    -0.3051040
  O       -0.5220660     1.5374290     0.0548780
  N        0.6562510    -0.3746370    -0.3360270
  C        1.9647450     0.2268840    -0.0956960
  C       -1.8012180    -0.4504720    -0.3698720
  C        3.0067800    -0.5070980    -0.9241520
  C        2.2930000     0.2310680     1.3932270
  C       -0.4931590     0.3235730    -0.1949090
  C       -1.9724170    -1.5121580     0.7102480
  H        1.8788190     1.2611790    -0.4401960
  H        0.6035260    -1.3822150    -0.4365740
  H       -1.7868920    -0.9288770    -1.3618540
  H        3.9904500    -0.0508330    -0.7882090
  H        3.0812650    -1.5550640    -0.6116920
  H        2.7529100    -0.4768670    -1.9861430
  H        1.5225120     0.7762450     1.9430400
  H        3.2574000     0.7146530     1.5762130
  H        2.3438960    -0.7932520     1.7757830
  H       -2.9590570    -1.9673470     0.6070900
  H       -1.9090200    -1.0432980     1.6949070
  H       -1.2193110    -2.3035120     0.6420620
  H       -2.3564192     1.5081923    -0.1209749
units angstrom
no_reorient  #important for SAPT in psi4, default
symmetry c1  #important for SAPT in psi4, default
}

set PROPERTIES_ORIGIN ["COM"]
properties('MP2/aug-cc-pvtz', properties = ['dipole'])
--------------------------------------------------------------------------

    Molecular point group: c1
  Charge       = 0
  Multiplicity = 1
  Basis Set: AUG-CC-PVTZ
    Blend: AUG-CC-PVTZ
  Basis Set: (AUG-CC-PVTZ AUX)
    Blend: AUG-CC-PVTZ-JKFIT

    Orbital Energies [Eh]
    ---------------------

    Doubly Occupied:

       1A    -20.548147     2A    -20.538855     3A    -15.597720
       4A    -11.360129     5A    -11.293075     6A    -11.278471
       7A    -11.233188     8A    -11.228308     9A    -11.223410
      10A     -1.396961    11A     -1.313732    12A     -1.250282
      13A     -1.071397    14A     -1.016376    15A     -0.950910
      16A     -0.893015    17A     -0.819567    18A     -0.794747
      19A     -0.719389    20A     -0.676382    21A     -0.642861
      22A     -0.629428    23A     -0.629004    24A     -0.598458
      25A     -0.577253    26A     -0.558226    27A     -0.555798
      28A     -0.546934    29A     -0.537104    30A     -0.527645
      31A     -0.504716    32A     -0.494958    33A     -0.484423
      34A     -0.439394    35A     -0.434657    36A     -0.403417

  @DF-RHF Final Energy:  -439.10448784072838

   => Energetics <=

    Nuclear Repulsion Energy =            484.5342693010122730
    One-Electron Energy =               -1559.7408422079374759
    Two-Electron Energy =                 636.1020850661968780
    Total Energy =                       -439.1044878407283250
  Basis Set: (AUG-CC-PVTZ AUX)
    Blend: AUG-CC-PVTZ-RI
    Molecular point group: c1

    Geometry (in Angstrom), charge = 0, multiplicity = 1:

       Center              X                  Y                   Z               Mass
    ------------   -----------------  -----------------  -----------------  -----------------
         O           -2.876306959908     0.460139445726    -0.305343224057    15.994914619570
         O           -0.522740959908     1.536068445726     0.054638775943    15.994914619570
         N            0.655576040092    -0.375997554274    -0.336266224057    14.003074004430
         C            1.964070040092     0.225523445726    -0.095935224057    12.000000000000
         C           -1.801892959908    -0.451832554274    -0.370111224057    12.000000000000
         C            3.006105040092    -0.508458554274    -0.924391224057    12.000000000000
         C            2.292325040092     0.229707445726     1.392987775943    12.000000000000
         C           -0.493833959908     0.322212445726    -0.195148224057    12.000000000000
         C           -1.973091959908    -1.513518554274     0.710008775943    12.000000000000
         H            1.878144040092     1.259818445726    -0.440435224057     1.007825032230
         H            0.602851040092    -1.383575554274    -0.436813224057     1.007825032230
         H           -1.787566959908    -0.930237554274    -1.362093224057     1.007825032230
         H            3.989775040092    -0.052193554274    -0.788448224057     1.007825032230
         H            3.080590040092    -1.556424554274    -0.611931224057     1.007825032230
         H            2.752235040092    -0.478227554274    -1.986382224057     1.007825032230
         H            1.521837040092     0.774884445726     1.942800775943     1.007825032230
         H            3.256725040092     0.713292445726     1.575973775943     1.007825032230
         H            2.343221040092    -0.794612554274     1.775543775943     1.007825032230
         H           -2.959731959908    -1.968707554274     0.606850775943     1.007825032230
         H           -1.909694959908    -1.044658554274     1.694667775943     1.007825032230
         H           -1.219985959908    -2.304872554274     0.641822775943     1.007825032230
         H           -2.357094159908     1.506831745726    -0.121214124057     1.007825032230

  Basis Set: AUG-CC-PVTZ
    Blend: AUG-CC-PVTZ
  Basis Set: (AUG-CC-PVTZ AUX)
    Blend: AUG-CC-PVTZ-JKFIT
	 Reference Energy          =    -439.1044878407283818 [Eh]
	 Singles Energy            =      -0.0000000000000000 [Eh]
	 Same-Spin Energy          =      -0.4492533204004774 [Eh]
	 Opposite-Spin Energy      =      -1.4703008222048322 [Eh]
	 Correlation Energy        =      -1.9195541426053095 [Eh]
	 Total Energy              =    -441.0240419833336887 [Eh]

	 ================> DF-SCS-MP2 Energies <==================
	-----------------------------------------------------------
	 SCS Same-Spin Scale       =       0.3333333333333333 [-]
	 SCS Opposite-Spin Scale   =       1.2000000000000000 [-]
	 SCS Same-Spin Energy      =      -0.1497511068001591 [Eh]
	 SCS Opposite-Spin Energy  =      -1.7643609866457985 [Eh]
	 SCS Correlation Energy    =      -1.9141120934459577 [Eh]
	 SCS Total Energy          =    -441.0185999341743468 [Eh]
	-----------------------------------------------------------

  Dipole Moment: [D]
     X:     3.7998      Y:    -2.8344      Z:    -0.0930     Total:     4.7414

*** Psi4 exiting successfully. Buy a developer a beer!
