                               Psi4 1.4a3.dev225

  ==> Input File <==

--------------------------------------------------------------------------
#psi4
#
memory 32 gb

molecule  {
0 1
  O        2.9110620    -0.5703060    -0.4523520
  O        0.5539390    -1.5540470     0.1662040
  N       -0.5943370     0.3369340    -0.3930300
  C       -1.9154150    -0.2304160    -0.1256420
  C        1.8655780     0.3788930    -0.3941620
  C       -2.9513150     0.5221750    -0.9483650
  C       -2.2232580    -0.2086170     1.3682650
  C        0.5443190    -0.3662470    -0.1910430
  C        2.1035320     1.3624180     0.7499890
  H       -1.8664900    -1.2716350    -0.4595930
  H       -0.5281980     1.3181660    -0.6377390
  H        1.8317100     0.9202690    -1.3505730
  H       -3.9433690     0.0896600    -0.7945050
  H       -2.9965010     1.5743390    -0.6446630
  H       -2.7149650     0.4749500    -2.0147890
  H       -1.4563020    -0.7629570     1.9136170
  H       -3.1950150    -0.6709470     1.5682930
  H       -2.2473660     0.8219210     1.7368640
  H        3.0888910     1.8183940     0.6312910
  H        2.0827360     0.8223960     1.7004970
  H        1.3487660     2.1553220     0.7756360
  H        2.4746594    -1.4452151    -0.1221952
units angstrom
no_reorient  #important for SAPT in psi4, default
symmetry c1  #important for SAPT in psi4, default
}

set PROPERTIES_ORIGIN ["COM"]
properties('MP2/aug-cc-pvtz', properties = ['dipole'])
--------------------------------------------------------------------------

    Molecular point group: c1
  Charge       = 0
  Multiplicity = 1
  Basis Set: AUG-CC-PVTZ
    Blend: AUG-CC-PVTZ
  Basis Set: (AUG-CC-PVTZ AUX)
    Blend: AUG-CC-PVTZ-JKFIT

    Orbital Energies [Eh]
    ---------------------

    Doubly Occupied:

       1A    -20.550114     2A    -20.532874     3A    -15.596553
       4A    -11.358351     5A    -11.296697     6A    -11.278337
       7A    -11.233660     8A    -11.229290     9A    -11.221293
      10A     -1.394597    11A     -1.336866    12A     -1.247196
      13A     -1.070950    14A     -1.021491    15A     -0.949788
      16A     -0.893127    17A     -0.820117    18A     -0.794359
      19A     -0.732541    20A     -0.676935    21A     -0.640086
      22A     -0.634874    23A     -0.628766    24A     -0.595322
      25A     -0.580727    26A     -0.568763    27A     -0.555277
      28A     -0.547966    29A     -0.536184    30A     -0.528304
      31A     -0.507521    32A     -0.502016    33A     -0.491604
      34A     -0.444479    35A     -0.432232    36A     -0.401919

  @DF-RHF Final Energy:  -439.13280931494853

   => Energetics <=

    Nuclear Repulsion Energy =            484.8446071271346227
    One-Electron Energy =               -1560.2924824682609142
    Two-Electron Energy =                 636.3150660261777602
    Total Energy =                       -439.1328093149485312
  Basis Set: (AUG-CC-PVTZ AUX)
    Blend: AUG-CC-PVTZ-RI
    Molecular point group: c1

    Geometry (in Angstrom), charge = 0, multiplicity = 1:

       Center              X                  Y                   Z               Mass
    ------------   -----------------  -----------------  -----------------  -----------------
         O            2.850066762584    -0.525514969242    -0.435174470291    15.994914619570
         O            0.492943762584    -1.509255969242     0.183381529709    15.994914619570
         N           -0.655332237416     0.381725030758    -0.375852470291    14.003074004430
         C           -1.976410237416    -0.185624969242    -0.108464470291    12.000000000000
         C            1.804582762584     0.423684030758    -0.376984470291    12.000000000000
         C           -3.012310237416     0.566966030758    -0.931187470291    12.000000000000
         C           -2.284253237416    -0.163825969242     1.385442529709    12.000000000000
         C            0.483323762584    -0.321455969242    -0.173865470291    12.000000000000
         C            2.042536762584     1.407209030758     0.767166529709    12.000000000000
         H           -1.927485237416    -1.226843969242    -0.442415470291     1.007825032230
         H           -0.589193237416     1.362957030758    -0.620561470291     1.007825032230
         H            1.770714762584     0.965060030758    -1.333395470291     1.007825032230
         H           -4.004364237416     0.134451030758    -0.777327470291     1.007825032230
         H           -3.057496237416     1.619130030758    -0.627485470291     1.007825032230
         H           -2.775960237416     0.519741030758    -1.997611470291     1.007825032230
         H           -1.517297237416    -0.718165969242     1.930794529709     1.007825032230
         H           -3.256010237416    -0.626155969242     1.585470529709     1.007825032230
         H           -2.308361237416     0.866712030758     1.754041529709     1.007825032230
         H            3.027895762584     1.863185030758     0.648468529709     1.007825032230
         H            2.021740762584     0.867187030758     1.717674529709     1.007825032230
         H            1.287770762584     2.200113030758     0.792813529709     1.007825032230
         H            2.413664162584    -1.400424069242    -0.105017670291     1.007825032230

  Basis Set: AUG-CC-PVTZ
    Blend: AUG-CC-PVTZ
  Basis Set: (AUG-CC-PVTZ AUX)
    Blend: AUG-CC-PVTZ-JKFIT
	 Reference Energy          =    -439.1328093149485312 [Eh]
	 Singles Energy            =      -0.0000000000000000 [Eh]
	 Same-Spin Energy          =      -0.4467171065995017 [Eh]
	 Opposite-Spin Energy      =      -1.4653659736611586 [Eh]
	 Correlation Energy        =      -1.9120830802606603 [Eh]
	 Total Energy              =    -441.0448923952092173 [Eh]

	 ================> DF-SCS-MP2 Energies <==================
	-----------------------------------------------------------
	 SCS Same-Spin Scale       =       0.3333333333333333 [-]
	 SCS Opposite-Spin Scale   =       1.2000000000000000 [-]
	 SCS Same-Spin Energy      =      -0.1489057021998339 [Eh]
	 SCS Opposite-Spin Energy  =      -1.7584391683933902 [Eh]
	 SCS Correlation Energy    =      -1.9073448705932241 [Eh]
	 SCS Total Energy          =    -441.0401541855417804 [Eh]
	-----------------------------------------------------------

  Dipole Moment: [D]
     X:    -3.4514      Y:     3.0735      Z:    -0.1647     Total:     4.6244

*** Psi4 exiting successfully. Buy a developer a beer!
