                               Psi4 1.4a3.dev225

  ==> Input File <==

--------------------------------------------------------------------------
#psi4
#
memory 32 gb

molecule  {
0 1
  O        2.9110620    -0.5703060    -0.4523520
  O        0.5539390    -1.5540470     0.1662040
  N       -0.5943370     0.3369340    -0.3930300
  C       -1.9154150    -0.2304160    -0.1256420
  C        1.8655780     0.3788930    -0.3941620
  C       -2.9513150     0.5221750    -0.9483650
  C       -2.2232580    -0.2086170     1.3682650
  C        0.5441639    -0.3470951    -0.1968032
  C        2.1035320     1.3624180     0.7499890
  H       -1.8664900    -1.2716350    -0.4595930
  H       -0.5281980     1.3181660    -0.6377390
  H        1.8317100     0.9202690    -1.3505730
  H       -3.9433690     0.0896600    -0.7945050
  H       -2.9965010     1.5743390    -0.6446630
  H       -2.7149650     0.4749500    -2.0147890
  H       -1.4563020    -0.7629570     1.9136170
  H       -3.1950150    -0.6709470     1.5682930
  H       -2.2473660     0.8219210     1.7368640
  H        3.0888910     1.8183940     0.6312910
  H        2.0827360     0.8223960     1.7004970
  H        1.3487660     2.1553220     0.7756360
  H        2.4958040    -1.4028240    -0.1381920
units angstrom
no_reorient  #important for SAPT in psi4, default
symmetry c1  #important for SAPT in psi4, default
}

set PROPERTIES_ORIGIN ["COM"]
properties('MP2/aug-cc-pvtz', properties = ['dipole'])
--------------------------------------------------------------------------

    Molecular point group: c1
  Charge       = 0
  Multiplicity = 1
  Basis Set: AUG-CC-PVTZ
    Blend: AUG-CC-PVTZ
  Basis Set: (AUG-CC-PVTZ AUX)
    Blend: AUG-CC-PVTZ-JKFIT

    Orbital Energies [Eh]
    ---------------------

    Doubly Occupied:

       1A    -20.548691     2A    -20.527512     3A    -15.599315
       4A    -11.358403     5A    -11.298242     6A    -11.279550
       7A    -11.234470     8A    -11.230442     9A    -11.221704
      10A     -1.387789    11A     -1.342381    12A     -1.248062
      13A     -1.073832    14A     -1.025196    15A     -0.950369
      16A     -0.896136    17A     -0.823426    18A     -0.796384
      19A     -0.737504    20A     -0.677550    21A     -0.643329
      22A     -0.633129    23A     -0.628272    24A     -0.592831
      25A     -0.582111    26A     -0.571312    27A     -0.555940
      28A     -0.549156    29A     -0.536939    30A     -0.527817
      31A     -0.509583    32A     -0.500964    33A     -0.490925
      34A     -0.445909    35A     -0.431832    36A     -0.401459

  @DF-RHF Final Energy:  -439.13563552296353

   => Energetics <=

    Nuclear Repulsion Energy =            485.0216095044361850
    One-Electron Energy =               -1560.5975597322396879
    Two-Electron Energy =                 636.4403147048400342
    Total Energy =                       -439.1356355229635255
  Basis Set: (AUG-CC-PVTZ AUX)
    Blend: AUG-CC-PVTZ-RI
    Molecular point group: c1

    Geometry (in Angstrom), charge = 0, multiplicity = 1:

       Center              X                  Y                   Z               Mass
    ------------   -----------------  -----------------  -----------------  -----------------
         O            2.849918405192    -0.527593968317    -0.434524219580    15.994914619570
         O            0.492795405192    -1.511334968317     0.184031780420    15.994914619570
         N           -0.655480594808     0.379646031683    -0.375202219580    14.003074004430
         C           -1.976558594808    -0.187703968317    -0.107814219580    12.000000000000
         C            1.804434405192     0.421605031683    -0.376334219580    12.000000000000
         C           -3.012458594808     0.564887031683    -0.930537219580    12.000000000000
         C           -2.284401594808    -0.165904968317     1.386092780420    12.000000000000
         C            0.483020305192    -0.304383068317    -0.178975419580    12.000000000000
         C            2.042388405192     1.405130031683     0.767816780420    12.000000000000
         H           -1.927633594808    -1.228922968317    -0.441765219580     1.007825032230
         H           -0.589341594808     1.360878031683    -0.619911219580     1.007825032230
         H            1.770566405192     0.962981031683    -1.332745219580     1.007825032230
         H           -4.004512594808     0.132372031683    -0.776677219580     1.007825032230
         H           -3.057644594808     1.617051031683    -0.626835219580     1.007825032230
         H           -2.776108594808     0.517662031683    -1.996961219580     1.007825032230
         H           -1.517445594808    -0.720244968317     1.931444780420     1.007825032230
         H           -3.256158594808    -0.628234968317     1.586120780420     1.007825032230
         H           -2.308509594808     0.864633031683     1.754691780420     1.007825032230
         H            3.027747405192     1.861106031683     0.649118780420     1.007825032230
         H            2.021592405192     0.865108031683     1.718324780420     1.007825032230
         H            1.287622405192     2.198034031683     0.793463780420     1.007825032230
         H            2.434660405192    -1.360111968317    -0.120364219580     1.007825032230

  Basis Set: AUG-CC-PVTZ
    Blend: AUG-CC-PVTZ
  Basis Set: (AUG-CC-PVTZ AUX)
    Blend: AUG-CC-PVTZ-JKFIT
	 Reference Energy          =    -439.1356355229635255 [Eh]
	 Singles Energy            =      -0.0000000000000000 [Eh]
	 Same-Spin Energy          =      -0.4463635108133877 [Eh]
	 Opposite-Spin Energy      =      -1.4645692102638392 [Eh]
	 Correlation Energy        =      -1.9109327210772269 [Eh]
	 Total Energy              =    -441.0465682440407704 [Eh]

	 ================> DF-SCS-MP2 Energies <==================
	-----------------------------------------------------------
	 SCS Same-Spin Scale       =       0.3333333333333333 [-]
	 SCS Opposite-Spin Scale   =       1.2000000000000000 [-]
	 SCS Same-Spin Energy      =      -0.1487878369377959 [Eh]
	 SCS Opposite-Spin Energy  =      -1.7574830523166070 [Eh]
	 SCS Correlation Energy    =      -1.9062708892544029 [Eh]
	 SCS Total Energy          =    -441.0419064122179407 [Eh]
	-----------------------------------------------------------

  Dipole Moment: [D]
     X:    -3.4515      Y:     3.2395      Z:    -0.2073     Total:     4.7382

*** Psi4 exiting successfully. Buy a developer a beer!
