                               Psi4 1.3.2 release

  ==> Input File <==

--------------------------------------------------------------------------
#psi4
#
memory 32 gb

molecule  {
0 1
  O       -2.8756320     0.4615000    -0.3051040
  O       -0.5220660     1.5374290     0.0548780
  N        0.6562510    -0.3746370    -0.3360270
  C        1.9647450     0.2268840    -0.0956960
  C       -1.9535347    -0.3211843    -0.3606900
  C        3.0067800    -0.5070980    -0.9241520
  C        2.2930000     0.2310680     1.3932270
  C       -0.4931590     0.3235730    -0.1949090
  C       -1.9724170    -1.5121580     0.7102480
  H        1.8788190     1.2611790    -0.4401960
  H        0.6035260    -1.3822150    -0.4365740
  H       -1.7868920    -0.9288770    -1.3618540
  H        3.9904500    -0.0508330    -0.7882090
  H        3.0812650    -1.5550640    -0.6116920
  H        2.7529100    -0.4768670    -1.9861430
  H        1.5225120     0.7762450     1.9430400
  H        3.2574000     0.7146530     1.5762130
  H        2.3438960    -0.7932520     1.7757830
  H       -2.9590570    -1.9673470     0.6070900
  H       -1.9090200    -1.0432980     1.6949070
  H       -1.2193110    -2.3035120     0.6420620
  H       -2.4442120     1.3312090    -0.1521090
units angstrom
no_reorient  #important for SAPT in psi4, default
symmetry c1  #important for SAPT in psi4, default
}

set PROPERTIES_ORIGIN ["COM"]
properties('MP2/aug-cc-pvtz', properties = ['dipole'])
--------------------------------------------------------------------------

    Molecular point group: c1
  Charge       = 0
  Multiplicity = 1
  Basis Set: AUG-CC-PVTZ
    Blend: AUG-CC-PVTZ
  Basis Set: (AUG-CC-PVTZ AUX)
    Blend: AUG-CC-PVTZ-JKFIT

    Orbital Energies [Eh]
    ---------------------

    Doubly Occupied:

       1A    -20.571978     2A    -20.528801     3A    -15.593785
       4A    -11.352248     5A    -11.307655     6A    -11.276223
       7A    -11.230852     8A    -11.223210     9A    -11.220683
      10A     -1.473028    11A     -1.377926    12A     -1.243446
      13A     -1.062895    14A     -1.001451    15A     -0.948293
      16A     -0.877470    17A     -0.831078    18A     -0.796645
      19A     -0.774340    20A     -0.687824    21A     -0.658296
      22A     -0.639158    23A     -0.633258    24A     -0.620064
      25A     -0.596604    26A     -0.566020    27A     -0.553525
      28A     -0.548518    29A     -0.540213    30A     -0.535126
      31A     -0.508043    32A     -0.501525    33A     -0.489878
      34A     -0.414055    35A     -0.409974    36A     -0.394628

  @DF-RHF Final Energy:  -439.09094751226405

   => Energetics <=

    Nuclear Repulsion Energy =            485.9309192998304638
    One-Electron Energy =               -1562.0663011802078017
    Two-Electron Energy =                 637.0444343681132295
    Total Energy =                       -439.0909475122640515
  Basis Set: (AUG-CC-PVTZ AUX)
    Blend: AUG-CC-PVTZ-RI
    Molecular point group: c1

    Geometry (in Angstrom), charge = 0, multiplicity = 1:

       Center              X                  Y                   Z               Mass
    ------------   -----------------  -----------------  -----------------  -----------------
         O           -2.861689425986     0.449665452902    -0.305944364436    15.994914619570
         O           -0.508123425986     1.525594452902     0.054037635564    15.994914619570
         N            0.670193574014    -0.386471547098    -0.336867364436    14.003074004430
         C            1.978687574014     0.215049452902    -0.096536364436    12.000000000000
         C           -1.939592125986    -0.333018847098    -0.361530364436    12.000000000000
         C            3.020722574014    -0.518932547098    -0.924992364436    12.000000000000
         C            2.306942574014     0.219233452902     1.392386635564    12.000000000000
         C           -0.479216425986     0.311738452902    -0.195749364436    12.000000000000
         C           -1.958474425986    -1.523992547098     0.709407635564    12.000000000000
         H            1.892761574014     1.249344452902    -0.441036364436     1.007825032230
         H            0.617468574014    -1.394049547098    -0.437414364436     1.007825032230
         H           -1.772949425986    -0.940711547098    -1.362694364436     1.007825032230
         H            4.004392574014    -0.062667547098    -0.789049364436     1.007825032230
         H            3.095207574014    -1.566898547098    -0.612532364436     1.007825032230
         H            2.766852574014    -0.488701547098    -1.986983364436     1.007825032230
         H            1.536454574014     0.764410452902     1.942199635564     1.007825032230
         H            3.271342574014     0.702818452902     1.575372635564     1.007825032230
         H            2.357838574014    -0.805086547098     1.774942635564     1.007825032230
         H           -2.945114425986    -1.979181547098     0.606249635564     1.007825032230
         H           -1.895077425986    -1.055132547098     1.694066635564     1.007825032230
         H           -1.205368425986    -2.315346547098     0.641221635564     1.007825032230
         H           -2.430269425986     1.319374452902    -0.152949364436     1.007825032230

  Basis Set: AUG-CC-PVTZ
    Blend: AUG-CC-PVTZ
  Basis Set: (AUG-CC-PVTZ AUX)
    Blend: AUG-CC-PVTZ-JKFIT
	 Reference Energy          =    -439.0909475122640515 [Eh]
	 Singles Energy            =      -0.0000000000000000 [Eh]
	 Same-Spin Energy          =      -0.4469303762706137 [Eh]
	 Opposite-Spin Energy      =      -1.4625617325319364 [Eh]
	 Correlation Energy        =      -1.9094921088025503 [Eh]
	 Total Energy              =    -441.0004396210666187 [Eh]

	 ================> DF-SCS-MP2 Energies <==================
	-----------------------------------------------------------
	 SCS Same-Spin Scale       =       0.3333333333333333 [-]
	 SCS Opposite-Spin Scale   =       1.2000000000000000 [-]
	 SCS Same-Spin Energy      =      -0.1489767920902046 [Eh]
	 SCS Opposite-Spin Energy  =      -1.7550740790383237 [Eh]
	 SCS Correlation Energy    =      -1.9040508711285282 [Eh]
	 SCS Total Energy          =    -440.9949983833925558 [Eh]
	-----------------------------------------------------------

  Dipole Moment: [D]
     X:     2.8970      Y:    -2.4232      Z:    -0.1463     Total:     3.7797

*** Psi4 exiting successfully. Buy a developer a beer!
