                               Psi4 1.4a3.dev225

  ==> Input File <==

--------------------------------------------------------------------------
#psi4
#
memory 32 gb

molecule  {
0 1
  O        2.9110620    -0.5703060    -0.4523520
  O        0.5539390    -1.5540470     0.1662040
  N       -0.5943370     0.3369340    -0.3930300
  C       -1.9154150    -0.2304160    -0.1256420
  C        1.8507830     0.3923254    -0.3933385
  C       -2.9513150     0.5221750    -0.9483650
  C       -2.2232580    -0.2086170     1.3682650
  C        0.5443190    -0.3662470    -0.1910430
  C        2.1035320     1.3624180     0.7499890
  H       -1.8664900    -1.2716350    -0.4595930
  H       -0.5281980     1.3181660    -0.6377390
  H        1.8317100     0.9202690    -1.3505730
  H       -3.9433690     0.0896600    -0.7945050
  H       -2.9965010     1.5743390    -0.6446630
  H       -2.7149650     0.4749500    -2.0147890
  H       -1.4563020    -0.7629570     1.9136170
  H       -3.1950150    -0.6709470     1.5682930
  H       -2.2473660     0.8219210     1.7368640
  H        3.0888910     1.8183940     0.6312910
  H        2.0827360     0.8223960     1.7004970
  H        1.3487660     2.1553220     0.7756360
  H        2.4958040    -1.4028240    -0.1381920
units angstrom
no_reorient  #important for SAPT in psi4, default
symmetry c1  #important for SAPT in psi4, default
}

set PROPERTIES_ORIGIN ["COM"]
properties('MP2/aug-cc-pvtz', properties = ['dipole'])
--------------------------------------------------------------------------

    Molecular point group: c1
  Charge       = 0
  Multiplicity = 1
  Basis Set: AUG-CC-PVTZ
    Blend: AUG-CC-PVTZ
  Basis Set: (AUG-CC-PVTZ AUX)
    Blend: AUG-CC-PVTZ-JKFIT

    Orbital Energies [Eh]
    ---------------------

    Doubly Occupied:

       1A    -20.546705     2A    -20.532139     3A    -15.596376
       4A    -11.358657     5A    -11.297413     6A    -11.278195
       7A    -11.233627     8A    -11.230499     9A    -11.221239
      10A     -1.394493    11A     -1.339217    12A     -1.247289
      13A     -1.072527    14A     -1.025416    15A     -0.949739
      16A     -0.895486    17A     -0.821234    18A     -0.795016
      19A     -0.735310    20A     -0.677384    21A     -0.641362
      22A     -0.635520    23A     -0.628813    24A     -0.595241
      25A     -0.580675    26A     -0.571082    27A     -0.555184
      28A     -0.548850    29A     -0.535158    30A     -0.528250
      31A     -0.511532    32A     -0.502085    33A     -0.491499
      34A     -0.447690    35A     -0.433394    36A     -0.401714

  @DF-RHF Final Energy:  -439.13687260017309

   => Energetics <=

    Nuclear Repulsion Energy =            485.0434819157552511
    One-Electron Energy =               -1560.6486849210309629
    Two-Electron Energy =                 636.4683304051025061
    Total Energy =                       -439.1368726001730920
  Basis Set: (AUG-CC-PVTZ AUX)
    Blend: AUG-CC-PVTZ-RI
    Molecular point group: c1

    Geometry (in Angstrom), charge = 0, multiplicity = 1:

       Center              X                  Y                   Z               Mass
    ------------   -----------------  -----------------  -----------------  -----------------
         O            2.851258496711    -0.527070422839    -0.435126871274    15.994914619570
         O            0.494135496711    -1.510811422839     0.183429128726    15.994914619570
         N           -0.654140503289     0.380169577161    -0.375804871274    14.003074004430
         C           -1.975218503289    -0.187180422839    -0.108416871274    12.000000000000
         C            1.790979496711     0.435560977161    -0.376113371274    12.000000000000
         C           -3.011118503289     0.565410577161    -0.931139871274    12.000000000000
         C           -2.283061503289    -0.165381422839     1.385490128726    12.000000000000
         C            0.484515496711    -0.323011422839    -0.173817871274    12.000000000000
         C            2.043728496711     1.405653577161     0.767214128726    12.000000000000
         H           -1.926293503289    -1.228399422839    -0.442367871274     1.007825032230
         H           -0.588001503289     1.361401577161    -0.620513871274     1.007825032230
         H            1.771906496711     0.963504577161    -1.333347871274     1.007825032230
         H           -4.003172503289     0.132895577161    -0.777279871274     1.007825032230
         H           -3.056304503289     1.617574577161    -0.627437871274     1.007825032230
         H           -2.774768503289     0.518185577161    -1.997563871274     1.007825032230
         H           -1.516105503289    -0.719721422839     1.930842128726     1.007825032230
         H           -3.254818503289    -0.627711422839     1.585518128726     1.007825032230
         H           -2.307169503289     0.865156577161     1.754089128726     1.007825032230
         H            3.029087496711     1.861629577161     0.648516128726     1.007825032230
         H            2.022932496711     0.865631577161     1.717722128726     1.007825032230
         H            1.288962496711     2.198557577161     0.792861128726     1.007825032230
         H            2.436000496711    -1.359588422839    -0.120966871274     1.007825032230

  Basis Set: AUG-CC-PVTZ
    Blend: AUG-CC-PVTZ
  Basis Set: (AUG-CC-PVTZ AUX)
    Blend: AUG-CC-PVTZ-JKFIT
	 Reference Energy          =    -439.1368726001730920 [Eh]
	 Singles Energy            =      -0.0000000000000000 [Eh]
	 Same-Spin Energy          =      -0.4460405149756737 [Eh]
	 Opposite-Spin Energy      =      -1.4642262278170226 [Eh]
	 Correlation Energy        =      -1.9102667427926963 [Eh]
	 Total Energy              =    -441.0471393429658065 [Eh]

	 ================> DF-SCS-MP2 Energies <==================
	-----------------------------------------------------------
	 SCS Same-Spin Scale       =       0.3333333333333333 [-]
	 SCS Opposite-Spin Scale   =       1.2000000000000000 [-]
	 SCS Same-Spin Energy      =      -0.1486801716585579 [Eh]
	 SCS Opposite-Spin Energy  =      -1.7570714733804271 [Eh]
	 SCS Correlation Energy    =      -1.9057516450389851 [Eh]
	 SCS Total Energy          =    -441.0426242452120960 [Eh]
	-----------------------------------------------------------

  Dipole Moment: [D]
     X:    -3.4276      Y:     3.1738      Z:    -0.1724     Total:     4.6745

*** Psi4 exiting successfully. Buy a developer a beer!
