                               Psi4 1.3.2 release

  ==> Input File <==

--------------------------------------------------------------------------
#psi4
#
memory 32 gb

molecule  {
0 1
  O       -2.8756320     0.4615000    -0.3051040
  O       -0.5220660     1.5374290     0.0548780
  N        0.6562510    -0.3746370    -0.3360270
  C        1.9647450     0.2268840    -0.0956960
  C       -1.8012180    -0.4504720    -0.3698720
  C        3.0067800    -0.5070980    -0.9241520
  C        2.2930000     0.2310680     1.3932270
  C       -0.4931590     0.3235730    -0.1949090
  C       -1.9724170    -1.5121580     0.7102480
  H        1.8788190     1.2611790    -0.4401960
  H        0.6035260    -1.3822150    -0.4365740
  H       -1.7868920    -0.9288770    -1.3618540
  H        3.9904500    -0.0508330    -0.7882090
  H        3.0812650    -1.5550640    -0.6116920
  H        2.7529100    -0.4768670    -1.9861430
  H        1.5225120     0.7762450     1.9430400
  H        3.2574000     0.7146530     1.5762130
  H        2.3438960    -0.7932520     1.7757830
  H       -2.9590570    -1.9673470     0.6070900
  H       -1.9090200    -1.0432980     1.6949070
  H       -1.2193110    -2.3035120     0.6420620
  H       -2.4003156     1.4197007    -0.1365420
units angstrom
no_reorient  #important for SAPT in psi4, default
symmetry c1  #important for SAPT in psi4, default
}

set PROPERTIES_ORIGIN ["COM"]
properties('MP2/aug-cc-pvtz', properties = ['dipole'])
--------------------------------------------------------------------------

    Molecular point group: c1
  Charge       = 0
  Multiplicity = 1
  Basis Set: AUG-CC-PVTZ
    Blend: AUG-CC-PVTZ
  Basis Set: (AUG-CC-PVTZ AUX)
    Blend: AUG-CC-PVTZ-JKFIT

    Orbital Energies [Eh]
    ---------------------

    Doubly Occupied:

       1A    -20.549461     2A    -20.535259     3A    -15.596565
       4A    -11.359032     5A    -11.295278     6A    -11.277762
       7A    -11.232683     8A    -11.229599     9A    -11.222779
      10A     -1.395960    11A     -1.328652    12A     -1.248997
      13A     -1.071600    14A     -1.019880    15A     -0.950315
      16A     -0.893903    17A     -0.820530    18A     -0.794573
      19A     -0.726804    20A     -0.677123    21A     -0.645980
      22A     -0.631147    23A     -0.628805    24A     -0.597674
      25A     -0.579277    26A     -0.562530    27A     -0.555411
      28A     -0.547392    29A     -0.538093    30A     -0.529138
      31A     -0.504161    32A     -0.501560    33A     -0.491319
      34A     -0.440092    35A     -0.436534    36A     -0.402392

  @DF-RHF Final Energy:  -439.12506549806812

   => Energetics <=

    Nuclear Repulsion Energy =            484.9015427533597631
    One-Electron Energy =               -1560.4167003557133739
    Two-Electron Energy =                 636.3900921042854861
    Total Energy =                       -439.1250654980681247
  Basis Set: (AUG-CC-PVTZ AUX)
    Blend: AUG-CC-PVTZ-RI
    Molecular point group: c1

    Geometry (in Angstrom), charge = 0, multiplicity = 1:

       Center              X                  Y                   Z               Mass
    ------------   -----------------  -----------------  -----------------  -----------------
         O           -2.875969494589     0.460819748577    -0.305223547811    15.994914619570
         O           -0.522403494589     1.536748748577     0.054758452189    15.994914619570
         N            0.655913505411    -0.375317251423    -0.336146547811    14.003074004430
         C            1.964407505411     0.226203748577    -0.095815547811    12.000000000000
         C           -1.801555494589    -0.451152251423    -0.369991547811    12.000000000000
         C            3.006442505411    -0.507778251423    -0.924271547811    12.000000000000
         C            2.292662505411     0.230387748577     1.393107452189    12.000000000000
         C           -0.493496494589     0.322892748577    -0.195028547811    12.000000000000
         C           -1.972754494589    -1.512838251423     0.710128452189    12.000000000000
         H            1.878481505411     1.260498748577    -0.440315547811     1.007825032230
         H            0.603188505411    -1.382895251423    -0.436693547811     1.007825032230
         H           -1.787229494589    -0.929557251423    -1.361973547811     1.007825032230
         H            3.990112505411    -0.051513251423    -0.788328547811     1.007825032230
         H            3.080927505411    -1.555744251423    -0.611811547811     1.007825032230
         H            2.752572505411    -0.477547251423    -1.986262547811     1.007825032230
         H            1.522174505411     0.775564748577     1.942920452189     1.007825032230
         H            3.257062505411     0.713972748577     1.576093452189     1.007825032230
         H            2.343558505411    -0.793932251423     1.775663452189     1.007825032230
         H           -2.959394494589    -1.968027251423     0.606970452189     1.007825032230
         H           -1.909357494589    -1.043978251423     1.694787452189     1.007825032230
         H           -1.219648494589    -2.304192251423     0.641942452189     1.007825032230
         H           -2.400653094589     1.419020448577    -0.136661547811     1.007825032230

  Basis Set: AUG-CC-PVTZ
    Blend: AUG-CC-PVTZ
  Basis Set: (AUG-CC-PVTZ AUX)
    Blend: AUG-CC-PVTZ-JKFIT
	 Reference Energy          =    -439.1250654980681247 [Eh]
	 Singles Energy            =      -0.0000000000000000 [Eh]
	 Same-Spin Energy          =      -0.4476207145445968 [Eh]
	 Opposite-Spin Energy      =      -1.4668707917075532 [Eh]
	 Correlation Energy        =      -1.9144915062521499 [Eh]
	 Total Energy              =    -441.0395570043202724 [Eh]

	 ================> DF-SCS-MP2 Energies <==================
	-----------------------------------------------------------
	 SCS Same-Spin Scale       =       0.3333333333333333 [-]
	 SCS Opposite-Spin Scale   =       1.2000000000000000 [-]
	 SCS Same-Spin Energy      =      -0.1492069048481989 [Eh]
	 SCS Opposite-Spin Energy  =      -1.7602449500490638 [Eh]
	 SCS Correlation Energy    =      -1.9094518548972628 [Eh]
	 SCS Total Energy          =    -441.0345173529653948 [Eh]
	-----------------------------------------------------------

  Dipole Moment: [D]
     X:     3.6102      Y:    -2.9472      Z:    -0.1196     Total:     4.6620

*** Psi4 exiting successfully. Buy a developer a beer!
