                               Psi4 1.3.2 release

  ==> Input File <==

--------------------------------------------------------------------------
#psi4
#
memory 32 gb

molecule  {
0 1
  O       -2.8708227     0.4677540    -0.3145551
  O       -0.5220660     1.5374290     0.0548780
  N        0.6562510    -0.3746370    -0.3360270
  C        1.9647450     0.2268840    -0.0956960
  C       -1.8012180    -0.4504720    -0.3698720
  C        3.0067800    -0.5070980    -0.9241520
  C        2.2930000     0.2310680     1.3932270
  C       -0.4931590     0.3235730    -0.1949090
  C       -1.9611446    -1.5179703     0.7062396
  H        1.8788190     1.2611790    -0.4401960
  H        0.6035260    -1.3822150    -0.4365740
  H       -1.7868920    -0.9288770    -1.3618540
  H        3.9904500    -0.0508330    -0.7882090
  H        3.0812650    -1.5550640    -0.6116920
  H        2.7529100    -0.4768670    -1.9861430
  H        1.5225120     0.7762450     1.9430400
  H        3.2574000     0.7146530     1.5762130
  H        2.3438960    -0.7932520     1.7757830
  H       -2.9590570    -1.9673470     0.6070900
  H       -1.9090200    -1.0432980     1.6949070
  H       -1.2193110    -2.3035120     0.6420620
  H       -2.4442120     1.3312090    -0.1521090
units angstrom
no_reorient  #important for SAPT in psi4, default
symmetry c1  #important for SAPT in psi4, default
}

set PROPERTIES_ORIGIN ["COM"]
properties('MP2/aug-cc-pvtz', properties = ['dipole'])
--------------------------------------------------------------------------

    Molecular point group: c1
  Charge       = 0
  Multiplicity = 1
  Basis Set: AUG-CC-PVTZ
    Blend: AUG-CC-PVTZ
  Basis Set: (AUG-CC-PVTZ AUX)
    Blend: AUG-CC-PVTZ-JKFIT

    Orbital Energies [Eh]
    ---------------------

    Doubly Occupied:

       1A    -20.547560     2A    -20.532100     3A    -15.595534
       4A    -11.357924     5A    -11.297583     6A    -11.277127
       7A    -11.232246     8A    -11.231192     9A    -11.222223
      10A     -1.397412    11A     -1.346588    12A     -1.247842
      13A     -1.072404    14A     -1.024450    15A     -0.949794
      16A     -0.894878    17A     -0.822686    18A     -0.794922
      19A     -0.737103    20A     -0.679142    21A     -0.649929
      22A     -0.632399    23A     -0.628747    24A     -0.597253
      25A     -0.582016    26A     -0.568027    27A     -0.555061
      28A     -0.547864    29A     -0.539570    30A     -0.530549
      31A     -0.512183    32A     -0.502657    33A     -0.491378
      34A     -0.445323    35A     -0.433802    36A     -0.401260

  @DF-RHF Final Energy:  -439.13804022762605

   => Energetics <=

    Nuclear Repulsion Energy =            485.4166529344169021
    One-Electron Energy =               -1561.3519272092964911
    Two-Electron Energy =                 636.7972340472535961
    Total Energy =                       -439.1380402276261066
  Basis Set: (AUG-CC-PVTZ AUX)
    Blend: AUG-CC-PVTZ-RI
    Molecular point group: c1

    Geometry (in Angstrom), charge = 0, multiplicity = 1:

       Center              X                  Y                   Z               Mass
    ------------   -----------------  -----------------  -----------------  -----------------
         O           -2.872441355029     0.467523038948    -0.313034922736    15.994914619570
         O           -0.523684655029     1.537198038948     0.056398177264    15.994914619570
         N            0.654632344971    -0.374867961052    -0.334506822736    14.003074004430
         C            1.963126344971     0.226653038948    -0.094175822736    12.000000000000
         C           -1.802836655029    -0.450702961052    -0.368351822736    12.000000000000
         C            3.005161344971    -0.507328961052    -0.922631822736    12.000000000000
         C            2.291381344971     0.230837038948     1.394747177264    12.000000000000
         C           -0.494777655029     0.323342038948    -0.193388822736    12.000000000000
         C           -1.962763255029    -1.518201261052     0.707759777264    12.000000000000
         H            1.877200344971     1.260948038948    -0.438675822736     1.007825032230
         H            0.601907344971    -1.382445961052    -0.435053822736     1.007825032230
         H           -1.788510655029    -0.929107961052    -1.360333822736     1.007825032230
         H            3.988831344971    -0.051063961052    -0.786688822736     1.007825032230
         H            3.079646344971    -1.555294961052    -0.610171822736     1.007825032230
         H            2.751291344971    -0.477097961052    -1.984622822736     1.007825032230
         H            1.520893344971     0.776014038948     1.944560177264     1.007825032230
         H            3.255781344971     0.714422038948     1.577733177264     1.007825032230
         H            2.342277344971    -0.793482961052     1.777303177264     1.007825032230
         H           -2.960675655029    -1.967577961052     0.608610177264     1.007825032230
         H           -1.910638655029    -1.043528961052     1.696427177264     1.007825032230
         H           -1.220929655029    -2.303742961052     0.643582177264     1.007825032230
         H           -2.445830655029     1.330978038948    -0.150588822736     1.007825032230

  Basis Set: AUG-CC-PVTZ
    Blend: AUG-CC-PVTZ
  Basis Set: (AUG-CC-PVTZ AUX)
    Blend: AUG-CC-PVTZ-JKFIT
	 Reference Energy          =    -439.1380402276260497 [Eh]
	 Singles Energy            =      -0.0000000000000000 [Eh]
	 Same-Spin Energy          =      -0.4459429183918479 [Eh]
	 Opposite-Spin Energy      =      -1.4634304019382331 [Eh]
	 Correlation Energy        =      -1.9093733203300811 [Eh]
	 Total Energy              =    -441.0474135479561255 [Eh]

	 ================> DF-SCS-MP2 Energies <==================
	-----------------------------------------------------------
	 SCS Same-Spin Scale       =       0.3333333333333333 [-]
	 SCS Opposite-Spin Scale   =       1.2000000000000000 [-]
	 SCS Same-Spin Energy      =      -0.1486476394639493 [Eh]
	 SCS Opposite-Spin Energy  =      -1.7561164823258797 [Eh]
	 SCS Correlation Energy    =      -1.9047641217898290 [Eh]
	 SCS Total Energy          =    -441.0428043494158601 [Eh]
	-----------------------------------------------------------

  Dipole Moment: [D]
     X:     3.4477      Y:    -3.0801      Z:    -0.1241     Total:     4.6248

*** Psi4 exiting successfully. Buy a developer a beer!
