                               Psi4 1.4a3.dev225

  ==> Input File <==

--------------------------------------------------------------------------
#psi4
#
memory 32 gb

molecule  {
0 1
  O        2.9110620    -0.5703060    -0.4523520
  O        0.5539390    -1.5540470     0.1662040
  N       -0.5943370     0.3369340    -0.3930300
  C       -1.9154150    -0.2304160    -0.1256420
  C        1.8655780     0.3788930    -0.3941620
  C       -2.9513150     0.5221750    -0.9483650
  C       -2.2232580    -0.2086170     1.3682650
  C        0.5615855    -0.3565093    -0.1936974
  C        2.1035320     1.3624180     0.7499890
  H       -1.8664900    -1.2716350    -0.4595930
  H       -0.5281980     1.3181660    -0.6377390
  H        1.8317100     0.9202690    -1.3505730
  H       -3.9433690     0.0896600    -0.7945050
  H       -2.9965010     1.5743390    -0.6446630
  H       -2.7149650     0.4749500    -2.0147890
  H       -1.4563020    -0.7629570     1.9136170
  H       -3.1950150    -0.6709470     1.5682930
  H       -2.2473660     0.8219210     1.7368640
  H        3.0888910     1.8183940     0.6312910
  H        2.0827360     0.8223960     1.7004970
  H        1.3487660     2.1553220     0.7756360
  H        2.4958040    -1.4028240    -0.1381920
units angstrom
no_reorient  #important for SAPT in psi4, default
symmetry c1  #important for SAPT in psi4, default
}

set PROPERTIES_ORIGIN ["COM"]
properties('MP2/aug-cc-pvtz', properties = ['dipole'])
--------------------------------------------------------------------------

    Molecular point group: c1
  Charge       = 0
  Multiplicity = 1
  Basis Set: AUG-CC-PVTZ
    Blend: AUG-CC-PVTZ
  Basis Set: (AUG-CC-PVTZ AUX)
    Blend: AUG-CC-PVTZ-JKFIT

    Orbital Energies [Eh]
    ---------------------

    Doubly Occupied:

       1A    -20.549672     2A    -20.531327     3A    -15.595841
       4A    -11.359819     5A    -11.298615     6A    -11.277828
       7A    -11.233124     8A    -11.231272     9A    -11.220492
      10A     -1.392611    11A     -1.344850    12A     -1.243003
      13A     -1.071929    14A     -1.025359    15A     -0.949004
      16A     -0.897659    17A     -0.821531    18A     -0.791720
      19A     -0.739348    20A     -0.677463    21A     -0.643186
      22A     -0.633588    23A     -0.628514    24A     -0.592832
      25A     -0.582954    26A     -0.571882    27A     -0.554655
      28A     -0.548144    29A     -0.537020    30A     -0.527473
      31A     -0.512097    32A     -0.500976    33A     -0.490394
      34A     -0.447471    35A     -0.434583    36A     -0.399736

  @DF-RHF Final Energy:  -439.13607271636283

   => Energetics <=

    Nuclear Repulsion Energy =            484.9900495504537048
    One-Electron Energy =               -1560.5362946708401068
    Two-Electron Energy =                 636.4101724040235695
    Total Energy =                       -439.1360727163628326
  Basis Set: (AUG-CC-PVTZ AUX)
    Blend: AUG-CC-PVTZ-RI
    Molecular point group: c1

    Geometry (in Angstrom), charge = 0, multiplicity = 1:

       Center              X                  Y                   Z               Mass
    ------------   -----------------  -----------------  -----------------  -----------------
         O            2.848323685392    -0.526732221339    -0.434808514981    15.994914619570
         O            0.491200685392    -1.510473221339     0.183747485019    15.994914619570
         N           -0.657075314608     0.380507778661    -0.375486514981    14.003074004430
         C           -1.978153314608    -0.186842221339    -0.108098514981    12.000000000000
         C            1.802839685392     0.422466778661    -0.376618514981    12.000000000000
         C           -3.014053314608     0.565748778661    -0.930821514981    12.000000000000
         C           -2.285996314608    -0.165043221339     1.385808485019    12.000000000000
         C            0.498847185392    -0.312935521339    -0.176153914981    12.000000000000
         C            2.040793685392     1.405991778661     0.767532485019    12.000000000000
         H           -1.929228314608    -1.228061221339    -0.442049514981     1.007825032230
         H           -0.590936314608     1.361739778661    -0.620195514981     1.007825032230
         H            1.768971685392     0.963842778661    -1.333029514981     1.007825032230
         H           -4.006107314608     0.133233778661    -0.776961514981     1.007825032230
         H           -3.059239314608     1.617912778661    -0.627119514981     1.007825032230
         H           -2.777703314608     0.518523778661    -1.997245514981     1.007825032230
         H           -1.519040314608    -0.719383221339     1.931160485019     1.007825032230
         H           -3.257753314608    -0.627373221339     1.585836485019     1.007825032230
         H           -2.310104314608     0.865494778661     1.754407485019     1.007825032230
         H            3.026152685392     1.861967778661     0.648834485019     1.007825032230
         H            2.019997685392     0.865969778661     1.718040485019     1.007825032230
         H            1.286027685392     2.198895778661     0.793179485019     1.007825032230
         H            2.433065685392    -1.359250221339    -0.120648514981     1.007825032230

  Basis Set: AUG-CC-PVTZ
    Blend: AUG-CC-PVTZ
  Basis Set: (AUG-CC-PVTZ AUX)
    Blend: AUG-CC-PVTZ-JKFIT
	 Reference Energy          =    -439.1360727163628326 [Eh]
	 Singles Energy            =      -0.0000000000000000 [Eh]
	 Same-Spin Energy          =      -0.4462763240341002 [Eh]
	 Opposite-Spin Energy      =      -1.4644400711343544 [Eh]
	 Correlation Energy        =      -1.9107163951684547 [Eh]
	 Total Energy              =    -441.0467891115312682 [Eh]

	 ================> DF-SCS-MP2 Energies <==================
	-----------------------------------------------------------
	 SCS Same-Spin Scale       =       0.3333333333333333 [-]
	 SCS Opposite-Spin Scale   =       1.2000000000000000 [-]
	 SCS Same-Spin Energy      =      -0.1487587746780334 [Eh]
	 SCS Opposite-Spin Energy  =      -1.7573280853612252 [Eh]
	 SCS Correlation Energy    =      -1.9060868600392586 [Eh]
	 SCS Total Energy          =    -441.0421595764020708 [Eh]
	-----------------------------------------------------------

  Dipole Moment: [D]
     X:    -3.3009      Y:     3.1641      Z:    -0.1858     Total:     4.5762

*** Psi4 exiting successfully. Buy a developer a beer!
