                               Psi4 1.3.2 release

  ==> Input File <==

--------------------------------------------------------------------------
#psi4
#
memory 32 gb

molecule  {
0 1
  O       -2.8756320     0.4615000    -0.3051040
  O       -0.4788007     1.5375766     0.0554199
  N        0.6562510    -0.3746370    -0.3360270
  C        1.9647450     0.2268840    -0.0956960
  C       -1.7727328    -0.4947794    -0.3786653
  C        3.0067800    -0.5070980    -0.9241520
  C        2.2930000     0.2310680     1.3932270
  C       -0.4931590     0.3235730    -0.1949090
  C       -1.9724170    -1.5121580     0.7102480
  H        1.8788190     1.2611790    -0.4401960
  H        0.6035260    -1.3822150    -0.4365740
  H       -1.7868920    -0.9288770    -1.3618540
  H        3.9904500    -0.0508330    -0.7882090
  H        3.0812650    -1.5550640    -0.6116920
  H        2.7529100    -0.4768670    -1.9861430
  H        1.5225120     0.7762450     1.9430400
  H        3.2574000     0.7146530     1.5762130
  H        2.3438960    -0.7932520     1.7757830
  H       -2.9590570    -1.9673470     0.6070900
  H       -1.9090200    -1.0432980     1.6949070
  H       -1.2193110    -2.3035120     0.6420620
  H       -2.4442120     1.3312090    -0.1521090
units angstrom
no_reorient  #important for SAPT in psi4, default
symmetry c1  #important for SAPT in psi4, default
}

set PROPERTIES_ORIGIN ["COM"]
properties('MP2/aug-cc-pvtz', properties = ['dipole'])
--------------------------------------------------------------------------

    Molecular point group: c1
  Charge       = 0
  Multiplicity = 1
  Basis Set: AUG-CC-PVTZ
    Blend: AUG-CC-PVTZ
  Basis Set: (AUG-CC-PVTZ AUX)
    Blend: AUG-CC-PVTZ-JKFIT

    Orbital Energies [Eh]
    ---------------------

    Doubly Occupied:

       1A    -20.545096     2A    -20.532665     3A    -15.593797
       4A    -11.359477     5A    -11.299301     6A    -11.275698
       7A    -11.233196     8A    -11.231479     9A    -11.221474
      10A     -1.393627    11A     -1.331752    12A     -1.246140
      13A     -1.074381    14A     -1.029552    15A     -0.948983
      16A     -0.898191    17A     -0.822077    18A     -0.794674
      19A     -0.731037    20A     -0.677796    21A     -0.649748
      22A     -0.631598    23A     -0.627440    24A     -0.596617
      25A     -0.579837    26A     -0.568130    27A     -0.554056
      28A     -0.548825    29A     -0.534736    30A     -0.531083
      31A     -0.510305    32A     -0.501900    33A     -0.489964
      34A     -0.451057    35A     -0.436152    36A     -0.400310

  @DF-RHF Final Energy:  -439.13330279833866

   => Energetics <=

    Nuclear Repulsion Energy =            485.1160129005422732
    One-Electron Energy =               -1560.7943282429084775
    Two-Electron Energy =                 636.5450125440275997
    Total Energy =                       -439.1333027983386046
  Basis Set: (AUG-CC-PVTZ AUX)
    Blend: AUG-CC-PVTZ-RI
    Molecular point group: c1

    Geometry (in Angstrom), charge = 0, multiplicity = 1:

       Center              X                  Y                   Z               Mass
    ------------   -----------------  -----------------  -----------------  -----------------
         O           -2.883518295778     0.465537806878    -0.304365078100    15.994914619570
         O           -0.486686995778     1.541614406878     0.056158821900    15.994914619570
         N            0.648364704222    -0.370599193122    -0.335288078100    14.003074004430
         C            1.956858704222     0.230921806878    -0.094957078100    12.000000000000
         C           -1.780619095778    -0.490741593122    -0.377926378100    12.000000000000
         C            2.998893704222    -0.503060193122    -0.923413078100    12.000000000000
         C            2.285113704222     0.235105806878     1.393965921900    12.000000000000
         C           -0.501045295778     0.327610806878    -0.194170078100    12.000000000000
         C           -1.980303295778    -1.508120193122     0.710986921900    12.000000000000
         H            1.870932704222     1.265216806878    -0.439457078100     1.007825032230
         H            0.595639704222    -1.378177193122    -0.435835078100     1.007825032230
         H           -1.794778295778    -0.924839193122    -1.361115078100     1.007825032230
         H            3.982563704222    -0.046795193122    -0.787470078100     1.007825032230
         H            3.073378704222    -1.551026193122    -0.610953078100     1.007825032230
         H            2.745023704222    -0.472829193122    -1.985404078100     1.007825032230
         H            1.514625704222     0.780282806878     1.943778921900     1.007825032230
         H            3.249513704222     0.718690806878     1.576951921900     1.007825032230
         H            2.336009704222    -0.789214193122     1.776521921900     1.007825032230
         H           -2.966943295778    -1.963309193122     0.607828921900     1.007825032230
         H           -1.916906295778    -1.039260193122     1.695645921900     1.007825032230
         H           -1.227197295778    -2.299474193122     0.642800921900     1.007825032230
         H           -2.452098295778     1.335246806878    -0.151370078100     1.007825032230

  Basis Set: AUG-CC-PVTZ
    Blend: AUG-CC-PVTZ
  Basis Set: (AUG-CC-PVTZ AUX)
    Blend: AUG-CC-PVTZ-JKFIT
	 Reference Energy          =    -439.1333027983386614 [Eh]
	 Singles Energy            =      -0.0000000000000000 [Eh]
	 Same-Spin Energy          =      -0.4462805194391918 [Eh]
	 Opposite-Spin Energy      =      -1.4648919008112720 [Eh]
	 Correlation Energy        =      -1.9111724202504639 [Eh]
	 Total Energy              =    -441.0444752185891275 [Eh]

	 ================> DF-SCS-MP2 Energies <==================
	-----------------------------------------------------------
	 SCS Same-Spin Scale       =       0.3333333333333333 [-]
	 SCS Opposite-Spin Scale   =       1.2000000000000000 [-]
	 SCS Same-Spin Energy      =      -0.1487601731463973 [Eh]
	 SCS Opposite-Spin Energy  =      -1.7578702809735263 [Eh]
	 SCS Correlation Energy    =      -1.9066304541199235 [Eh]
	 SCS Total Energy          =    -441.0399332524585816 [Eh]
	-----------------------------------------------------------

  Dipole Moment: [D]
     X:     3.4094      Y:    -3.1957      Z:    -0.1416     Total:     4.6751

*** Psi4 exiting successfully. Buy a developer a beer!
