                               Psi4 1.3.2 release

  ==> Input File <==

--------------------------------------------------------------------------
#psi4
#
memory 32 gb

molecule  {
0 1
  O       -2.8756320     0.4615000    -0.3051040
  O       -0.5112502     1.5376250     0.0549428
  N        0.6624233    -0.3647888    -0.3339860
  C        1.9647450     0.2268840    -0.0956960
  C       -1.8012180    -0.4504720    -0.3698720
  C        3.0067800    -0.5070980    -0.9241520
  C        2.2930000     0.2310680     1.3932270
  C       -0.4931590     0.3235730    -0.1949090
  C       -1.9724170    -1.5121580     0.7102480
  H        1.8788190     1.2611790    -0.4401960
  H        0.6035260    -1.3822150    -0.4365740
  H       -1.7868920    -0.9288770    -1.3618540
  H        3.9904500    -0.0508330    -0.7882090
  H        3.0812650    -1.5550640    -0.6116920
  H        2.7529100    -0.4768670    -1.9861430
  H        1.5225120     0.7762450     1.9430400
  H        3.2574000     0.7146530     1.5762130
  H        2.3438960    -0.7932520     1.7757830
  H       -2.9590570    -1.9673470     0.6070900
  H       -1.9090200    -1.0432980     1.6949070
  H       -1.2193110    -2.3035120     0.6420620
  H       -2.4442120     1.3312090    -0.1521090
units angstrom
no_reorient  #important for SAPT in psi4, default
symmetry c1  #important for SAPT in psi4, default
}

set PROPERTIES_ORIGIN ["COM"]
properties('MP2/aug-cc-pvtz', properties = ['dipole'])
--------------------------------------------------------------------------

    Molecular point group: c1
  Charge       = 0
  Multiplicity = 1
  Basis Set: AUG-CC-PVTZ
    Blend: AUG-CC-PVTZ
  Basis Set: (AUG-CC-PVTZ AUX)
    Blend: AUG-CC-PVTZ-JKFIT

    Orbital Energies [Eh]
    ---------------------

    Doubly Occupied:

       1A    -20.548902     2A    -20.531815     3A    -15.595772
       4A    -11.358151     5A    -11.298587     6A    -11.275966
       7A    -11.231936     8A    -11.231348     9A    -11.221638
      10A     -1.397407    11A     -1.347040    12A     -1.247806
      13A     -1.071997    14A     -1.024204    15A     -0.949468
      16A     -0.895837    17A     -0.823223    18A     -0.792321
      19A     -0.737141    20A     -0.679138    21A     -0.650131
      22A     -0.631897    23A     -0.628951    24A     -0.596069
      25A     -0.582046    26A     -0.567743    27A     -0.554698
      28A     -0.548522    29A     -0.539616    30A     -0.530371
      31A     -0.513196    32A     -0.502542    33A     -0.490835
      34A     -0.445684    35A     -0.434796    36A     -0.400043

  @DF-RHF Final Energy:  -439.13731239090754

   => Energetics <=

    Nuclear Repulsion Energy =            485.4521462266883987
    One-Electron Energy =               -1561.4252440799305077
    Two-Electron Energy =                 636.8357854623345702
    Total Energy =                       -439.1373123909074820
  Basis Set: (AUG-CC-PVTZ AUX)
    Blend: AUG-CC-PVTZ-RI
    Molecular point group: c1

    Geometry (in Angstrom), charge = 0, multiplicity = 1:

       Center              X                  Y                   Z               Mass
    ------------   -----------------  -----------------  -----------------  -----------------
         O           -2.877610973593     0.460424187548    -0.305329791159    15.994914619570
         O           -0.513229173593     1.536549187548     0.054717008841    15.994914619570
         N            0.660444326407    -0.365864612452    -0.334211791159    14.003074004430
         C            1.962766026407     0.225808187548    -0.095921791159    12.000000000000
         C           -1.803196973593    -0.451547812452    -0.370097791159    12.000000000000
         C            3.004801026407    -0.508173812452    -0.924377791159    12.000000000000
         C            2.291021026407     0.229992187548     1.393001208841    12.000000000000
         C           -0.495137973593     0.322497187548    -0.195134791159    12.000000000000
         C           -1.974395973593    -1.513233812452     0.710022208841    12.000000000000
         H            1.876840026407     1.260103187548    -0.440421791159     1.007825032230
         H            0.601547026407    -1.383290812452    -0.436799791159     1.007825032230
         H           -1.788870973593    -0.929952812452    -1.362079791159     1.007825032230
         H            3.988471026407    -0.051908812452    -0.788434791159     1.007825032230
         H            3.079286026407    -1.556139812452    -0.611917791159     1.007825032230
         H            2.750931026407    -0.477942812452    -1.986368791159     1.007825032230
         H            1.520533026407     0.775169187548     1.942814208841     1.007825032230
         H            3.255421026407     0.713577187548     1.575987208841     1.007825032230
         H            2.341917026407    -0.794327812452     1.775557208841     1.007825032230
         H           -2.961035973593    -1.968422812452     0.606864208841     1.007825032230
         H           -1.910998973593    -1.044373812452     1.694681208841     1.007825032230
         H           -1.221289973593    -2.304587812452     0.641836208841     1.007825032230
         H           -2.446190973593     1.330133187548    -0.152334791159     1.007825032230

  Basis Set: AUG-CC-PVTZ
    Blend: AUG-CC-PVTZ
  Basis Set: (AUG-CC-PVTZ AUX)
    Blend: AUG-CC-PVTZ-JKFIT
	 Reference Energy          =    -439.1373123909075389 [Eh]
	 Singles Energy            =      -0.0000000000000000 [Eh]
	 Same-Spin Energy          =      -0.4461555494698147 [Eh]
	 Opposite-Spin Energy      =      -1.4637983749724888 [Eh]
	 Correlation Energy        =      -1.9099539244423034 [Eh]
	 Total Energy              =    -441.0472663153498161 [Eh]

	 ================> DF-SCS-MP2 Energies <==================
	-----------------------------------------------------------
	 SCS Same-Spin Scale       =       0.3333333333333333 [-]
	 SCS Opposite-Spin Scale   =       1.2000000000000000 [-]
	 SCS Same-Spin Energy      =      -0.1487185164899382 [Eh]
	 SCS Opposite-Spin Energy  =      -1.7565580499669864 [Eh]
	 SCS Correlation Energy    =      -1.9052765664569247 [Eh]
	 SCS Total Energy          =    -441.0425889573644440 [Eh]
	-----------------------------------------------------------

  Dipole Moment: [D]
     X:     3.3940      Y:    -3.0768      Z:    -0.1506     Total:     4.5835

*** Psi4 exiting successfully. Buy a developer a beer!
