                               Psi4 1.3.2 release

  ==> Input File <==

--------------------------------------------------------------------------
#psi4
#
memory 32 gb

molecule  {
0 1
  O       -2.8559077     0.4860946    -0.3429309
  O       -0.5220660     1.5374290     0.0548780
  N        0.6562510    -0.3746370    -0.3360270
  C        1.9647450     0.2268840    -0.0956960
  C       -1.8012180    -0.4504720    -0.3698720
  C        3.0067800    -0.5070980    -0.9241520
  C        2.2930000     0.2310680     1.3932270
  C       -0.4931590     0.3235730    -0.1949090
  C       -1.9272579    -1.5349178     0.6937241
  H        1.8788190     1.2611790    -0.4401960
  H        0.6035260    -1.3822150    -0.4365740
  H       -1.7868920    -0.9288770    -1.3618540
  H        3.9904500    -0.0508330    -0.7882090
  H        3.0812650    -1.5550640    -0.6116920
  H        2.7529100    -0.4768670    -1.9861430
  H        1.5225120     0.7762450     1.9430400
  H        3.2574000     0.7146530     1.5762130
  H        2.3438960    -0.7932520     1.7757830
  H       -2.9590570    -1.9673470     0.6070900
  H       -1.9090200    -1.0432980     1.6949070
  H       -1.2193110    -2.3035120     0.6420620
  H       -2.4442120     1.3312090    -0.1521090
units angstrom
no_reorient  #important for SAPT in psi4, default
symmetry c1  #important for SAPT in psi4, default
}

set PROPERTIES_ORIGIN ["COM"]
properties('MP2/aug-cc-pvtz', properties = ['dipole'])
--------------------------------------------------------------------------

    Molecular point group: c1
  Charge       = 0
  Multiplicity = 1
  Basis Set: AUG-CC-PVTZ
    Blend: AUG-CC-PVTZ
  Basis Set: (AUG-CC-PVTZ AUX)
    Blend: AUG-CC-PVTZ-JKFIT

    Orbital Energies [Eh]
    ---------------------

    Doubly Occupied:

       1A    -20.547117     2A    -20.531040     3A    -15.595014
       4A    -11.356868     5A    -11.298560     6A    -11.276808
       7A    -11.232833     8A    -11.232054     9A    -11.222011
      10A     -1.398004    11A     -1.348674    12A     -1.247407
      13A     -1.072942    14A     -1.026284    15A     -0.949583
      16A     -0.894852    17A     -0.823707    18A     -0.794867
      19A     -0.739044    20A     -0.679707    21A     -0.650481
      22A     -0.633070    23A     -0.628805    24A     -0.598183
      25A     -0.584610    26A     -0.571171    27A     -0.554826
      28A     -0.548513    29A     -0.536459    30A     -0.530489
      31A     -0.510850    32A     -0.502197    33A     -0.490905
      34A     -0.446268    35A     -0.431926    36A     -0.400789

  @DF-RHF Final Energy:  -439.13515876139371

   => Energetics <=

    Nuclear Repulsion Energy =            485.6844104894793190
    One-Electron Energy =               -1561.8653065773514754
    Two-Electron Energy =                 637.0457373264783882
    Total Energy =                       -439.1351587613936545
  Basis Set: (AUG-CC-PVTZ AUX)
    Blend: AUG-CC-PVTZ-RI
    Molecular point group: c1

    Geometry (in Angstrom), charge = 0, multiplicity = 1:

       Center              X                  Y                   Z               Mass
    ------------   -----------------  -----------------  -----------------  -----------------
         O           -2.862448025414     0.485177216232    -0.336802948150    15.994914619570
         O           -0.528606325414     1.536511616232     0.061005951850    15.994914619570
         N            0.649710674586    -0.375554383768    -0.329899048150    14.003074004430
         C            1.958204674586     0.225966616232    -0.089568048150    12.000000000000
         C           -1.807758325414    -0.451389383768    -0.363744048150    12.000000000000
         C            3.000239674586    -0.508015383768    -0.918024048150    12.000000000000
         C            2.286459674586     0.230150616232     1.399354951850    12.000000000000
         C           -0.499699325414     0.322655616232    -0.188781048150    12.000000000000
         C           -1.933798225414    -1.535835183768     0.699852051850    12.000000000000
         H            1.872278674586     1.260261616232    -0.434068048150     1.007825032230
         H            0.596985674586    -1.383132383768    -0.430446048150     1.007825032230
         H           -1.793432325414    -0.929794383768    -1.355726048150     1.007825032230
         H            3.983909674586    -0.051750383768    -0.782081048150     1.007825032230
         H            3.074724674586    -1.555981383768    -0.605564048150     1.007825032230
         H            2.746369674586    -0.477784383768    -1.980015048150     1.007825032230
         H            1.515971674586     0.775327616232     1.949167951850     1.007825032230
         H            3.250859674586     0.713735616232     1.582340951850     1.007825032230
         H            2.337355674586    -0.794169383768     1.781910951850     1.007825032230
         H           -2.965597325414    -1.968264383768     0.613217951850     1.007825032230
         H           -1.915560325414    -1.044215383768     1.701034951850     1.007825032230
         H           -1.225851325414    -2.304429383768     0.648189951850     1.007825032230
         H           -2.450752325414     1.330291616232    -0.145981048150     1.007825032230

  Basis Set: AUG-CC-PVTZ
    Blend: AUG-CC-PVTZ
  Basis Set: (AUG-CC-PVTZ AUX)
    Blend: AUG-CC-PVTZ-JKFIT
	 Reference Energy          =    -439.1351587613937113 [Eh]
	 Singles Energy            =      -0.0000000000000000 [Eh]
	 Same-Spin Energy          =      -0.4457612723286017 [Eh]
	 Opposite-Spin Energy      =      -1.4630155004593863 [Eh]
	 Correlation Energy        =      -1.9087767727879881 [Eh]
	 Total Energy              =    -441.0439355341816849 [Eh]

	 ================> DF-SCS-MP2 Energies <==================
	-----------------------------------------------------------
	 SCS Same-Spin Scale       =       0.3333333333333333 [-]
	 SCS Opposite-Spin Scale   =       1.2000000000000000 [-]
	 SCS Same-Spin Energy      =      -0.1485870907762006 [Eh]
	 SCS Opposite-Spin Energy  =      -1.7556186005512635 [Eh]
	 SCS Correlation Energy    =      -1.9042056913274641 [Eh]
	 SCS Total Energy          =    -441.0393644527212018 [Eh]
	-----------------------------------------------------------

  Dipole Moment: [D]
     X:     3.4087      Y:    -3.1332      Z:    -0.0682     Total:     4.6304

*** Psi4 exiting successfully. Buy a developer a beer!
