                               Psi4 1.3.2 release

  ==> Input File <==

--------------------------------------------------------------------------
#psi4
#
memory 32 gb

molecule  {
0 1
  O       -2.9027569     0.4225345    -0.2485259
  O       -0.5220660     1.5374290     0.0548780
  N        0.6562510    -0.3746370    -0.3360270
  C        1.9647450     0.2268840    -0.0956960
  C       -1.8012180    -0.4504720    -0.3698720
  C        3.0067800    -0.5070980    -0.9241520
  C        2.2930000     0.2310680     1.3932270
  C       -0.4931590     0.3235730    -0.1949090
  C       -2.0397475    -1.4756021     0.7325606
  H        1.8788190     1.2611790    -0.4401960
  H        0.6035260    -1.3822150    -0.4365740
  H       -1.7868920    -0.9288770    -1.3618540
  H        3.9904500    -0.0508330    -0.7882090
  H        3.0812650    -1.5550640    -0.6116920
  H        2.7529100    -0.4768670    -1.9861430
  H        1.5225120     0.7762450     1.9430400
  H        3.2574000     0.7146530     1.5762130
  H        2.3438960    -0.7932520     1.7757830
  H       -2.9590570    -1.9673470     0.6070900
  H       -1.9090200    -1.0432980     1.6949070
  H       -1.2193110    -2.3035120     0.6420620
  H       -2.4442120     1.3312090    -0.1521090
units angstrom
no_reorient  #important for SAPT in psi4, default
symmetry c1  #important for SAPT in psi4, default
}

set PROPERTIES_ORIGIN ["COM"]
properties('MP2/aug-cc-pvtz', properties = ['dipole'])
--------------------------------------------------------------------------

    Molecular point group: c1
  Charge       = 0
  Multiplicity = 1
  Basis Set: AUG-CC-PVTZ
    Blend: AUG-CC-PVTZ
  Basis Set: (AUG-CC-PVTZ AUX)
    Blend: AUG-CC-PVTZ-JKFIT

    Orbital Energies [Eh]
    ---------------------

    Doubly Occupied:

       1A    -20.549783     2A    -20.534817     3A    -15.596752
       4A    -11.360535     5A    -11.296481     6A    -11.277863
       7A    -11.232657     8A    -11.229849     9A    -11.222676
      10A     -1.397109    11A     -1.342367    12A     -1.248923
      13A     -1.071539    14A     -1.020380    15A     -0.950248
      16A     -0.896890    17A     -0.821396    18A     -0.795540
      19A     -0.733102    20A     -0.678158    21A     -0.650631
      22A     -0.632607    23A     -0.629137    24A     -0.596719
      25A     -0.580915    26A     -0.571044    27A     -0.555239
      28A     -0.551166    29A     -0.536597    30A     -0.521430
      31A     -0.509136    32A     -0.503657    33A     -0.492249
      34A     -0.442084    35A     -0.436646    36A     -0.402368

  @DF-RHF Final Energy:  -439.12558488531971

   => Energetics <=

    Nuclear Repulsion Energy =            484.8972068545602951
    One-Electron Energy =               -1560.3082045514113361
    Two-Electron Energy =                 636.2854128115315007
    Total Energy =                       -439.1255848853196539
  Basis Set: (AUG-CC-PVTZ AUX)
    Blend: AUG-CC-PVTZ-RI
    Molecular point group: c1

    Geometry (in Angstrom), charge = 0, multiplicity = 1:

       Center              X                  Y                   Z               Mass
    ------------   -----------------  -----------------  -----------------  -----------------
         O           -2.893284180674     0.423942535480    -0.257471318698    15.994914619570
         O           -0.512593280674     1.538837035480     0.045932581302    15.994914619570
         N            0.665723719326    -0.373228964520    -0.344972418698    14.003074004430
         C            1.974217719326     0.228292035480    -0.104641418698    12.000000000000
         C           -1.791745280674    -0.449063964520    -0.378817418698    12.000000000000
         C            3.016252719326    -0.505689964520    -0.933097418698    12.000000000000
         C            2.302472719326     0.232476035480     1.384281581302    12.000000000000
         C           -0.483686280674     0.324981035480    -0.203854418698    12.000000000000
         C           -2.030274780674    -1.474194064520     0.723615181302    12.000000000000
         H            1.888291719326     1.262587035480    -0.449141418698     1.007825032230
         H            0.612998719326    -1.380806964520    -0.445519418698     1.007825032230
         H           -1.777419280674    -0.927468964520    -1.370799418698     1.007825032230
         H            3.999922719326    -0.049424964520    -0.797154418698     1.007825032230
         H            3.090737719326    -1.553655964520    -0.620637418698     1.007825032230
         H            2.762382719326    -0.475458964520    -1.995088418698     1.007825032230
         H            1.531984719326     0.777653035480     1.934094581302     1.007825032230
         H            3.266872719326     0.716061035480     1.567267581302     1.007825032230
         H            2.353368719326    -0.791843964520     1.766837581302     1.007825032230
         H           -2.949584280674    -1.965938964520     0.598144581302     1.007825032230
         H           -1.899547280674    -1.041889964520     1.685961581302     1.007825032230
         H           -1.209838280674    -2.302103964520     0.633116581302     1.007825032230
         H           -2.434739280674     1.332617035480    -0.161054418698     1.007825032230

  Basis Set: AUG-CC-PVTZ
    Blend: AUG-CC-PVTZ
  Basis Set: (AUG-CC-PVTZ AUX)
    Blend: AUG-CC-PVTZ-JKFIT
	 Reference Energy          =    -439.1255848853197108 [Eh]
	 Singles Energy            =      -0.0000000000000000 [Eh]
	 Same-Spin Energy          =      -0.4468256614424698 [Eh]
	 Opposite-Spin Energy      =      -1.4655290857134344 [Eh]
	 Correlation Energy        =      -1.9123547471559044 [Eh]
	 Total Energy              =    -441.0379396324756271 [Eh]

	 ================> DF-SCS-MP2 Energies <==================
	-----------------------------------------------------------
	 SCS Same-Spin Scale       =       0.3333333333333333 [-]
	 SCS Opposite-Spin Scale   =       1.2000000000000000 [-]
	 SCS Same-Spin Energy      =      -0.1489418871474899 [Eh]
	 SCS Opposite-Spin Energy  =      -1.7586349028561212 [Eh]
	 SCS Correlation Energy    =      -1.9075767900036111 [Eh]
	 SCS Total Energy          =    -441.0331616753232993 [Eh]
	-----------------------------------------------------------

  Dipole Moment: [D]
     X:     3.5082      Y:    -2.9121      Z:    -0.2610     Total:     4.5668

*** Psi4 exiting successfully. Buy a developer a beer!
