                               Psi4 1.3.2 release

  ==> Input File <==

--------------------------------------------------------------------------
#psi4
#
memory 32 gb

molecule  {
0 1
  O       -2.8756320     0.4615000    -0.3051040
  O       -0.5220660     1.5374290     0.0548780
  N        0.6562510    -0.3746370    -0.3360270
  C        1.9647450     0.2268840    -0.0956960
  C       -1.8012180    -0.4504720    -0.3698720
  C        3.0067800    -0.5070980    -0.9241520
  C        2.2930000     0.2310680     1.3932270
  C       -0.5286230     0.2624423    -0.1990656
  C       -1.9724170    -1.5121580     0.7102480
  H        1.8788190     1.2611790    -0.4401960
  H        0.5506989    -1.3784089    -0.4329998
  H       -1.7868920    -0.9288770    -1.3618540
  H        3.9904500    -0.0508330    -0.7882090
  H        3.0812650    -1.5550640    -0.6116920
  H        2.7529100    -0.4768670    -1.9861430
  H        1.5225120     0.7762450     1.9430400
  H        3.2574000     0.7146530     1.5762130
  H        2.3438960    -0.7932520     1.7757830
  H       -2.9590570    -1.9673470     0.6070900
  H       -1.9090200    -1.0432980     1.6949070
  H       -1.2193110    -2.3035120     0.6420620
  H       -2.4442120     1.3312090    -0.1521090
units angstrom
no_reorient  #important for SAPT in psi4, default
symmetry c1  #important for SAPT in psi4, default
}

set PROPERTIES_ORIGIN ["COM"]
properties('MP2/aug-cc-pvtz', properties = ['dipole'])
--------------------------------------------------------------------------

    Molecular point group: c1
  Charge       = 0
  Multiplicity = 1
  Basis Set: AUG-CC-PVTZ
    Blend: AUG-CC-PVTZ
  Basis Set: (AUG-CC-PVTZ AUX)
    Blend: AUG-CC-PVTZ-JKFIT

    Orbital Energies [Eh]
    ---------------------

    Doubly Occupied:

       1A    -20.550116     2A    -20.523229     3A    -15.600792
       4A    -11.361776     5A    -11.300209     6A    -11.280274
       7A    -11.235354     8A    -11.232990     9A    -11.222513
      10A     -1.381102    11A     -1.334207    12A     -1.240741
      13A     -1.079626    14A     -1.031648    15A     -0.950012
      16A     -0.907604    17A     -0.828110    18A     -0.787758
      19A     -0.741215    20A     -0.680779    21A     -0.653550
      22A     -0.629615    23A     -0.623729    24A     -0.589397
      25A     -0.579930    26A     -0.569996    27A     -0.555315
      28A     -0.550132    29A     -0.539764    30A     -0.525994
      31A     -0.510258    32A     -0.498908    33A     -0.488741
      34A     -0.446871    35A     -0.435551    36A     -0.397452

  @DF-RHF Final Energy:  -439.12445264467704

   => Energetics <=

    Nuclear Repulsion Energy =            485.1582967983325716
    One-Electron Energy =               -1560.8349883446960575
    Two-Electron Energy =                 636.5522389016865645
    Total Energy =                       -439.1244526446770351
  Basis Set: (AUG-CC-PVTZ AUX)
    Blend: AUG-CC-PVTZ-RI
    Molecular point group: c1

    Geometry (in Angstrom), charge = 0, multiplicity = 1:

       Center              X                  Y                   Z               Mass
    ------------   -----------------  -----------------  -----------------  -----------------
         O           -2.871979641077     0.467066508463    -0.304750867544    15.994914619570
         O           -0.518413641077     1.542995508463     0.055231132456    15.994914619570
         N            0.659903358923    -0.369070491537    -0.335673867544    14.003074004430
         C            1.968397358923     0.232450508463    -0.095342867544    12.000000000000
         C           -1.797565641077    -0.444905491537    -0.369518867544    12.000000000000
         C            3.010432358923    -0.501531491537    -0.923798867544    12.000000000000
         C            2.296652358923     0.236634508463     1.393580132456    12.000000000000
         C           -0.524970641077     0.268008808463    -0.198712467544    12.000000000000
         C           -1.968764641077    -1.506591491537     0.710601132456    12.000000000000
         H            1.882471358923     1.266745508463    -0.439842867544     1.007825032230
         H            0.554351258923    -1.372842391537    -0.432646667544     1.007825032230
         H           -1.783239641077    -0.923310491537    -1.361500867544     1.007825032230
         H            3.994102358923    -0.045266491537    -0.787855867544     1.007825032230
         H            3.084917358923    -1.549497491537    -0.611338867544     1.007825032230
         H            2.756562358923    -0.471300491537    -1.985789867544     1.007825032230
         H            1.526164358923     0.781811508463     1.943393132456     1.007825032230
         H            3.261052358923     0.720219508463     1.576566132456     1.007825032230
         H            2.347548358923    -0.787685491537     1.776136132456     1.007825032230
         H           -2.955404641077    -1.961780491537     0.607443132456     1.007825032230
         H           -1.905367641077    -1.037731491537     1.695260132456     1.007825032230
         H           -1.215658641077    -2.297945491537     0.642415132456     1.007825032230
         H           -2.440559641077     1.336775508463    -0.151755867544     1.007825032230

  Basis Set: AUG-CC-PVTZ
    Blend: AUG-CC-PVTZ
  Basis Set: (AUG-CC-PVTZ AUX)
    Blend: AUG-CC-PVTZ-JKFIT
	 Reference Energy          =    -439.1244526446770351 [Eh]
	 Singles Energy            =      -0.0000000000000000 [Eh]
	 Same-Spin Energy          =      -0.4477616643355941 [Eh]
	 Opposite-Spin Energy      =      -1.4669080910176326 [Eh]
	 Correlation Energy        =      -1.9146697553532266 [Eh]
	 Total Energy              =    -441.0391224000302373 [Eh]

	 ================> DF-SCS-MP2 Energies <==================
	-----------------------------------------------------------
	 SCS Same-Spin Scale       =       0.3333333333333333 [-]
	 SCS Opposite-Spin Scale   =       1.2000000000000000 [-]
	 SCS Same-Spin Energy      =      -0.1492538881118647 [Eh]
	 SCS Opposite-Spin Energy  =      -1.7602897092211591 [Eh]
	 SCS Correlation Energy    =      -1.9095435973330237 [Eh]
	 SCS Total Energy          =    -441.0339962420100619 [Eh]
	-----------------------------------------------------------

  Dipole Moment: [D]
     X:     3.3815      Y:    -3.3550      Z:    -0.1614     Total:     4.7662

*** Psi4 exiting successfully. Buy a developer a beer!
