                               Psi4 1.3.2 release

  ==> Input File <==

--------------------------------------------------------------------------
#psi4
#
memory 32 gb

molecule  {
0 1
  O       -2.9067762     0.4239576    -0.3118442
  O       -0.5220660     1.5374290     0.0548780
  N        0.6562510    -0.3746370    -0.3360270
  C        1.9647450     0.2268840    -0.0956960
  C       -1.8012180    -0.4504720    -0.3698720
  C        3.0067800    -0.5070980    -0.9241520
  C        2.2930000     0.2310680     1.3932270
  C       -0.4664082     0.2775976    -0.1996559
  C       -1.9724170    -1.5121580     0.7102480
  H        1.8788190     1.2611790    -0.4401960
  H        0.6035260    -1.3822150    -0.4365740
  H       -1.7868920    -0.9288770    -1.3618540
  H        3.9904500    -0.0508330    -0.7882090
  H        3.0812650    -1.5550640    -0.6116920
  H        2.7529100    -0.4768670    -1.9861430
  H        1.5225120     0.7762450     1.9430400
  H        3.2574000     0.7146530     1.5762130
  H        2.3438960    -0.7932520     1.7757830
  H       -2.9590570    -1.9673470     0.6070900
  H       -1.9090200    -1.0432980     1.6949070
  H       -1.2193110    -2.3035120     0.6420620
  H       -2.4442120     1.3312090    -0.1521090
units angstrom
no_reorient  #important for SAPT in psi4, default
symmetry c1  #important for SAPT in psi4, default
}

set PROPERTIES_ORIGIN ["COM"]
properties('MP2/aug-cc-pvtz', properties = ['dipole'])
--------------------------------------------------------------------------

    Molecular point group: c1
  Charge       = 0
  Multiplicity = 1
  Basis Set: AUG-CC-PVTZ
    Blend: AUG-CC-PVTZ
  Basis Set: (AUG-CC-PVTZ AUX)
    Blend: AUG-CC-PVTZ-JKFIT

    Orbital Energies [Eh]
    ---------------------

    Doubly Occupied:

       1A    -20.550527     2A    -20.522188     3A    -15.606505
       4A    -11.357983     5A    -11.296711     6A    -11.282690
       7A    -11.236288     8A    -11.229362     9A    -11.225754
      10A     -1.377526    11A     -1.334677    12A     -1.256054
      13A     -1.079607    14A     -1.023912    15A     -0.953685
      16A     -0.896368    17A     -0.827155    18A     -0.805693
      19A     -0.729771    20A     -0.677818    21A     -0.648784
      22A     -0.633374    23A     -0.623254    24A     -0.595492
      25A     -0.579116    26A     -0.562836    27A     -0.558792
      28A     -0.551536    29A     -0.539386    30A     -0.529286
      31A     -0.504724    32A     -0.502104    33A     -0.492265
      34A     -0.440700    35A     -0.429167    36A     -0.404285

  @DF-RHF Final Energy:  -439.12478675393231

   => Energetics <=

    Nuclear Repulsion Energy =            484.7705802371261257
    One-Electron Energy =               -1560.0599800969030184
    Two-Electron Energy =                 636.1646131058446372
    Total Energy =                       -439.1247867539323124
  Basis Set: (AUG-CC-PVTZ AUX)
    Blend: AUG-CC-PVTZ-RI
    Molecular point group: c1

    Geometry (in Angstrom), charge = 0, multiplicity = 1:

       Center              X                  Y                   Z               Mass
    ------------   -----------------  -----------------  -----------------  -----------------
         O           -2.905424997554     0.432746664336    -0.310587180841    15.994914619570
         O           -0.520714797554     1.546218064336     0.056135019159    15.994914619570
         N            0.657602202446    -0.365847935664    -0.334769980841    14.003074004430
         C            1.966096202446     0.235673064336    -0.094438980841    12.000000000000
         C           -1.799866797554    -0.441682935664    -0.368614980841    12.000000000000
         C            3.008131202446    -0.498308935664    -0.922894980841    12.000000000000
         C            2.294351202446     0.239857064336     1.394484019159    12.000000000000
         C           -0.465056997554     0.286386664336    -0.198398880841    12.000000000000
         C           -1.971065797554    -1.503368935664     0.711505019159    12.000000000000
         H            1.880170202446     1.269968064336    -0.438938980841     1.007825032230
         H            0.604877202446    -1.373425935664    -0.435316980841     1.007825032230
         H           -1.785540797554    -0.920087935664    -1.360596980841     1.007825032230
         H            3.991801202446    -0.042043935664    -0.786951980841     1.007825032230
         H            3.082616202446    -1.546274935664    -0.610434980841     1.007825032230
         H            2.754261202446    -0.468077935664    -1.984885980841     1.007825032230
         H            1.523863202446     0.785034064336     1.944297019159     1.007825032230
         H            3.258751202446     0.723442064336     1.577470019159     1.007825032230
         H            2.345247202446    -0.784462935664     1.777040019159     1.007825032230
         H           -2.957705797554    -1.958557935664     0.608347019159     1.007825032230
         H           -1.907668797554    -1.034508935664     1.696164019159     1.007825032230
         H           -1.217959797554    -2.294722935664     0.643319019159     1.007825032230
         H           -2.442860797554     1.339998064336    -0.150851980841     1.007825032230

  Basis Set: AUG-CC-PVTZ
    Blend: AUG-CC-PVTZ
  Basis Set: (AUG-CC-PVTZ AUX)
    Blend: AUG-CC-PVTZ-JKFIT
	 Reference Energy          =    -439.1247867539323124 [Eh]
	 Singles Energy            =      -0.0000000000000000 [Eh]
	 Same-Spin Energy          =      -0.4476843629177477 [Eh]
	 Opposite-Spin Energy      =      -1.4669415100101277 [Eh]
	 Correlation Energy        =      -1.9146258729278753 [Eh]
	 Total Energy              =    -441.0394126268602122 [Eh]

	 ================> DF-SCS-MP2 Energies <==================
	-----------------------------------------------------------
	 SCS Same-Spin Scale       =       0.3333333333333333 [-]
	 SCS Opposite-Spin Scale   =       1.2000000000000000 [-]
	 SCS Same-Spin Energy      =      -0.1492281209725826 [Eh]
	 SCS Opposite-Spin Energy  =      -1.7603298120121533 [Eh]
	 SCS Correlation Energy    =      -1.9095579329847359 [Eh]
	 SCS Total Energy          =    -441.0343446869170521 [Eh]
	-----------------------------------------------------------

  Dipole Moment: [D]
     X:     3.8777      Y:    -3.2763      Z:    -0.1773     Total:     5.0796

*** Psi4 exiting successfully. Buy a developer a beer!
