                               Psi4 1.3.2 release

  ==> Input File <==

--------------------------------------------------------------------------
#psi4
#
memory 32 gb

molecule  {
0 1
  O       -2.8264737     0.5157163    -0.2951442
  O       -0.5220660     1.5374290     0.0548780
  N        0.6562510    -0.3746370    -0.3360270
  C        1.9647450     0.2268840    -0.0956960
  C       -1.8012180    -0.4504720    -0.3698720
  C        3.0067800    -0.5070980    -0.9241520
  C        2.2930000     0.2310680     1.3932270
  C       -0.5362626     0.3907507    -0.1881901
  C       -1.9724170    -1.5121580     0.7102480
  H        1.8788190     1.2611790    -0.4401960
  H        0.6035260    -1.3822150    -0.4365740
  H       -1.7868920    -0.9288770    -1.3618540
  H        3.9904500    -0.0508330    -0.7882090
  H        3.0812650    -1.5550640    -0.6116920
  H        2.7529100    -0.4768670    -1.9861430
  H        1.5225120     0.7762450     1.9430400
  H        3.2574000     0.7146530     1.5762130
  H        2.3438960    -0.7932520     1.7757830
  H       -2.9590570    -1.9673470     0.6070900
  H       -1.9090200    -1.0432980     1.6949070
  H       -1.2193110    -2.3035120     0.6420620
  H       -2.4442120     1.3312090    -0.1521090
units angstrom
no_reorient  #important for SAPT in psi4, default
symmetry c1  #important for SAPT in psi4, default
}

set PROPERTIES_ORIGIN ["COM"]
properties('MP2/aug-cc-pvtz', properties = ['dipole'])
--------------------------------------------------------------------------

    Molecular point group: c1
  Charge       = 0
  Multiplicity = 1
  Basis Set: AUG-CC-PVTZ
    Blend: AUG-CC-PVTZ
  Basis Set: (AUG-CC-PVTZ AUX)
    Blend: AUG-CC-PVTZ-JKFIT

    Orbital Energies [Eh]
    ---------------------

    Doubly Occupied:

       1A    -20.547457     2A    -20.542768     3A    -15.578275
       4A    -11.357371     5A    -11.299721     6A    -11.268919
       7A    -11.233136     8A    -11.226182     9A    -11.217064
      10A     -1.440248    11A     -1.367871    12A     -1.226293
      13A     -1.063585    14A     -1.022355    15A     -0.944018
      16A     -0.895099    17A     -0.816137    18A     -0.782418
      19A     -0.745768    20A     -0.689979    21A     -0.657478
      22A     -0.637119    23A     -0.623922    24A     -0.602201
      25A     -0.584757    26A     -0.571056    27A     -0.551433
      28A     -0.544818    29A     -0.541945    30A     -0.536626
      31A     -0.520470    32A     -0.502132    33A     -0.487825
      34A     -0.450943    35A     -0.434081    36A     -0.392071

  @DF-RHF Final Energy:  -439.13078508221110

   => Energetics <=

    Nuclear Repulsion Energy =            486.3985958684105526
    One-Electron Energy =               -1563.2516821589308620
    Two-Electron Energy =                 637.7223012083093181
    Total Energy =                       -439.1307850822111050
  Basis Set: (AUG-CC-PVTZ AUX)
    Blend: AUG-CC-PVTZ-RI
    Molecular point group: c1

    Geometry (in Angstrom), charge = 0, multiplicity = 1:

       Center              X                  Y                   Z               Mass
    ------------   -----------------  -----------------  -----------------  -----------------
         O           -2.828525984301     0.502952156543    -0.296974299499    15.994914619570
         O           -0.524118284301     1.524664856543     0.053047900501    15.994914619570
         N            0.654198715699    -0.387401143457    -0.337857099499    14.003074004430
         C            1.962692715699     0.214119856543    -0.097526099499    12.000000000000
         C           -1.803270284301    -0.463236143457    -0.371702099499    12.000000000000
         C            3.004727715699    -0.519862143457    -0.925982099499    12.000000000000
         C            2.290947715699     0.218303856543     1.391396900501    12.000000000000
         C           -0.538314884301     0.377986556543    -0.190020199499    12.000000000000
         C           -1.974469284301    -1.524922143457     0.708417900501    12.000000000000
         H            1.876766715699     1.248414856543    -0.442026099499     1.007825032230
         H            0.601473715699    -1.394979143457    -0.438404099499     1.007825032230
         H           -1.788944284301    -0.941641143457    -1.363684099499     1.007825032230
         H            3.988397715699    -0.063597143457    -0.790039099499     1.007825032230
         H            3.079212715699    -1.567828143457    -0.613522099499     1.007825032230
         H            2.750857715699    -0.489631143457    -1.987973099499     1.007825032230
         H            1.520459715699     0.763480856543     1.941209900501     1.007825032230
         H            3.255347715699     0.701888856543     1.574382900501     1.007825032230
         H            2.341843715699    -0.806016143457     1.773952900501     1.007825032230
         H           -2.961109284301    -1.980111143457     0.605259900501     1.007825032230
         H           -1.911072284301    -1.056062143457     1.693076900501     1.007825032230
         H           -1.221363284301    -2.316276143457     0.640231900501     1.007825032230
         H           -2.446264284301     1.318444856543    -0.153939099499     1.007825032230

  Basis Set: AUG-CC-PVTZ
    Blend: AUG-CC-PVTZ
  Basis Set: (AUG-CC-PVTZ AUX)
    Blend: AUG-CC-PVTZ-JKFIT
	 Reference Energy          =    -439.1307850822111050 [Eh]
	 Singles Energy            =      -0.0000000000000000 [Eh]
	 Same-Spin Energy          =      -0.4437873233197125 [Eh]
	 Opposite-Spin Energy      =      -1.4592614350425293 [Eh]
	 Correlation Energy        =      -1.9030487583622417 [Eh]
	 Total Energy              =    -441.0338338405733225 [Eh]

	 ================> DF-SCS-MP2 Energies <==================
	-----------------------------------------------------------
	 SCS Same-Spin Scale       =       0.3333333333333333 [-]
	 SCS Opposite-Spin Scale   =       1.2000000000000000 [-]
	 SCS Same-Spin Energy      =      -0.1479291077732375 [Eh]
	 SCS Opposite-Spin Energy  =      -1.7511137220510351 [Eh]
	 SCS Correlation Energy    =      -1.8990428298242725 [Eh]
	 SCS Total Energy          =    -441.0298279120353868 [Eh]
	-----------------------------------------------------------

  Dipole Moment: [D]
     X:     2.7778      Y:    -2.7232      Z:    -0.0871     Total:     3.8910

*** Psi4 exiting successfully. Buy a developer a beer!
