                               Psi4 1.4a3.dev225

  ==> Input File <==

--------------------------------------------------------------------------
#psi4
#
memory 32 gb

molecule  {
0 1
  O        2.9110620    -0.5703060    -0.4523520
  O        0.5539390    -1.5540470     0.1662040
  N       -0.5943370     0.3369340    -0.3930300
  C       -1.9154150    -0.2304160    -0.1256420
  C        1.8655780     0.3788930    -0.3941620
  C       -2.9513150     0.5221750    -0.9483650
  C       -2.2232580    -0.2086170     1.3682650
  C        0.5444741    -0.3853989    -0.1852828
  C        2.1035320     1.3624180     0.7499890
  H       -1.8664900    -1.2716350    -0.4595930
  H       -0.5281980     1.3181660    -0.6377390
  H        1.8317100     0.9202690    -1.3505730
  H       -3.9433690     0.0896600    -0.7945050
  H       -2.9965010     1.5743390    -0.6446630
  H       -2.7149650     0.4749500    -2.0147890
  H       -1.4563020    -0.7629570     1.9136170
  H       -3.1950150    -0.6709470     1.5682930
  H       -2.2473660     0.8219210     1.7368640
  H        3.0888910     1.8183940     0.6312910
  H        2.0827360     0.8223960     1.7004970
  H        1.3487660     2.1553220     0.7756360
  H        2.4958040    -1.4028240    -0.1381920
units angstrom
no_reorient  #important for SAPT in psi4, default
symmetry c1  #important for SAPT in psi4, default
}

set PROPERTIES_ORIGIN ["COM"]
properties('MP2/aug-cc-pvtz', properties = ['dipole'])
--------------------------------------------------------------------------

    Molecular point group: c1
  Charge       = 0
  Multiplicity = 1
  Basis Set: AUG-CC-PVTZ
    Blend: AUG-CC-PVTZ
  Basis Set: (AUG-CC-PVTZ AUX)
    Blend: AUG-CC-PVTZ-JKFIT

    Orbital Energies [Eh]
    ---------------------

    Doubly Occupied:

       1A    -20.548649     2A    -20.535863     3A    -15.593062
       4A    -11.357631     5A    -11.297031     6A    -11.276695
       7A    -11.232545     8A    -11.229273     9A    -11.220462
      10A     -1.405767    11A     -1.348408    12A     -1.244700
      13A     -1.068795    14A     -1.021796    15A     -0.948823
      16A     -0.891357    17A     -0.819375    18A     -0.793076
      19A     -0.737416    20A     -0.678268    21A     -0.641964
      22A     -0.638403    23A     -0.628552    24A     -0.597605
      25A     -0.582227    26A     -0.570711    27A     -0.554438
      28A     -0.547397    29A     -0.537339    30A     -0.529674
      31A     -0.514590    32A     -0.503286    33A     -0.491582
      34A     -0.446686    35A     -0.430900    36A     -0.401076

  @DF-RHF Final Energy:  -439.13864684938807

   => Energetics <=

    Nuclear Repulsion Energy =            485.1297528391187370
    One-Electron Energy =               -1560.8059553954522016
    Two-Electron Energy =                 636.5375557069454544
    Total Energy =                       -439.1386468493880102
  Basis Set: (AUG-CC-PVTZ AUX)
    Blend: AUG-CC-PVTZ-RI
    Molecular point group: c1

    Geometry (in Angstrom), charge = 0, multiplicity = 1:

       Center              X                  Y                   Z               Mass
    ------------   -----------------  -----------------  -----------------  -----------------
         O            2.849890010436    -0.524087756013    -0.435578761642    15.994914619570
         O            0.492767010436    -1.507828756013     0.182977238358    15.994914619570
         N           -0.655508989564     0.383152243987    -0.376256761642    14.003074004430
         C           -1.976586989564    -0.184197756013    -0.108868761642    12.000000000000
         C            1.804406010436     0.425111243987    -0.377388761642    12.000000000000
         C           -3.012486989564     0.568393243987    -0.931591761642    12.000000000000
         C           -2.284429989564    -0.162398756013     1.385038238358    12.000000000000
         C            0.483302110436    -0.339180656013    -0.168509561642    12.000000000000
         C            2.042360010436     1.408636243987     0.766762238358    12.000000000000
         H           -1.927661989564    -1.225416756013    -0.442819761642     1.007825032230
         H           -0.589369989564     1.364384243987    -0.620965761642     1.007825032230
         H            1.770538010436     0.966487243987    -1.333799761642     1.007825032230
         H           -4.004540989564     0.135878243987    -0.777731761642     1.007825032230
         H           -3.057672989564     1.620557243987    -0.627889761642     1.007825032230
         H           -2.776136989564     0.521168243987    -1.998015761642     1.007825032230
         H           -1.517473989564    -0.716738756013     1.930390238358     1.007825032230
         H           -3.256186989564    -0.624728756013     1.585066238358     1.007825032230
         H           -2.308537989564     0.868139243987     1.753637238358     1.007825032230
         H            3.027719010436     1.864612243987     0.648064238358     1.007825032230
         H            2.021564010436     0.868614243987     1.717270238358     1.007825032230
         H            1.287594010436     2.201540243987     0.792409238358     1.007825032230
         H            2.434632010436    -1.356605756013    -0.121418761642     1.007825032230

  Basis Set: AUG-CC-PVTZ
    Blend: AUG-CC-PVTZ
  Basis Set: (AUG-CC-PVTZ AUX)
    Blend: AUG-CC-PVTZ-JKFIT
	 Reference Energy          =    -439.1386468493880670 [Eh]
	 Singles Energy            =      -0.0000000000000000 [Eh]
	 Same-Spin Energy          =      -0.4455230619260265 [Eh]
	 Opposite-Spin Energy      =      -1.4630103219429225 [Eh]
	 Correlation Energy        =      -1.9085333838689489 [Eh]
	 Total Energy              =    -441.0471802332569951 [Eh]

	 ================> DF-SCS-MP2 Energies <==================
	-----------------------------------------------------------
	 SCS Same-Spin Scale       =       0.3333333333333333 [-]
	 SCS Opposite-Spin Scale   =       1.2000000000000000 [-]
	 SCS Same-Spin Energy      =      -0.1485076873086755 [Eh]
	 SCS Opposite-Spin Energy  =      -1.7556123863315070 [Eh]
	 SCS Correlation Energy    =      -1.9041200736401824 [Eh]
	 SCS Total Energy          =    -441.0427669230282390 [Eh]
	-----------------------------------------------------------

  Dipole Moment: [D]
     X:    -3.3189      Y:     3.0097      Z:    -0.1585     Total:     4.4831

*** Psi4 exiting successfully. Buy a developer a beer!
