                               Psi4 1.3.2 release

  ==> Input File <==

--------------------------------------------------------------------------
#psi4
#
memory 32 gb

molecule  {
0 1
  O       -2.8756320     0.4615000    -0.3051040
  O       -0.5652989     1.5357207     0.0544287
  N        0.6306911    -0.4134908    -0.3440822
  C        1.9647450     0.2268840    -0.0956960
  C       -1.8012180    -0.4504720    -0.3698720
  C        3.0067800    -0.5070980    -0.9241520
  C        2.2930000     0.2310680     1.3932270
  C       -0.4931590     0.3235730    -0.1949090
  C       -1.9724170    -1.5121580     0.7102480
  H        1.8788190     1.2611790    -0.4401960
  H        0.6035260    -1.3822150    -0.4365740
  H       -1.7868920    -0.9288770    -1.3618540
  H        3.9904500    -0.0508330    -0.7882090
  H        3.0812650    -1.5550640    -0.6116920
  H        2.7529100    -0.4768670    -1.9861430
  H        1.5225120     0.7762450     1.9430400
  H        3.2574000     0.7146530     1.5762130
  H        2.3438960    -0.7932520     1.7757830
  H       -2.9590570    -1.9673470     0.6070900
  H       -1.9090200    -1.0432980     1.6949070
  H       -1.2193110    -2.3035120     0.6420620
  H       -2.4442120     1.3312090    -0.1521090
units angstrom
no_reorient  #important for SAPT in psi4, default
symmetry c1  #important for SAPT in psi4, default
}

set PROPERTIES_ORIGIN ["COM"]
properties('MP2/aug-cc-pvtz', properties = ['dipole'])
--------------------------------------------------------------------------

    Molecular point group: c1
  Charge       = 0
  Multiplicity = 1
  Basis Set: AUG-CC-PVTZ
    Blend: AUG-CC-PVTZ
  Basis Set: (AUG-CC-PVTZ AUX)
    Blend: AUG-CC-PVTZ-JKFIT

    Orbital Energies [Eh]
    ---------------------

    Doubly Occupied:

       1A    -20.543202     2A    -20.535095     3A    -15.595361
       4A    -11.359186     5A    -11.292231     6A    -11.282362
       7A    -11.233843     8A    -11.228461     9A    -11.224931
      10A     -1.397185    11A     -1.341435    12A     -1.249289
      13A     -1.073395    14A     -1.022268    15A     -0.951492
      16A     -0.892296    17A     -0.821959    18A     -0.803416
      19A     -0.734003    20A     -0.678287    21A     -0.648503
      22A     -0.634815    23A     -0.628074    24A     -0.600209
      25A     -0.580097    26A     -0.565281    27A     -0.556706
      28A     -0.546274    29A     -0.539245    30A     -0.529174
      31A     -0.509657    32A     -0.503773    33A     -0.493698
      34A     -0.442106    35A     -0.432087    36A     -0.406500

  @DF-RHF Final Energy:  -439.13501451340301

   => Energetics <=

    Nuclear Repulsion Energy =            484.9056662126551487
    One-Electron Energy =               -1560.3295659098259875
    Two-Electron Energy =                 636.2888851837677748
    Total Energy =                       -439.1350145134030072
  Basis Set: (AUG-CC-PVTZ AUX)
    Blend: AUG-CC-PVTZ-RI
    Molecular point group: c1

    Geometry (in Angstrom), charge = 0, multiplicity = 1:

       Center              X                  Y                   Z               Mass
    ------------   -----------------  -----------------  -----------------  -----------------
         O           -2.867626943735     0.465858710940    -0.304188624485    15.994914619570
         O           -0.557293843735     1.540079410940     0.055344075515    15.994914619570
         N            0.638696156265    -0.409132089060    -0.343166824485    14.003074004430
         C            1.972750056265     0.231242710940    -0.094780624485    12.000000000000
         C           -1.793212943735    -0.446113289060    -0.368956624485    12.000000000000
         C            3.014785056265    -0.502739289060    -0.923236624485    12.000000000000
         C            2.301005056265     0.235426710940     1.394142375515    12.000000000000
         C           -0.485153943735     0.327931710940    -0.193993624485    12.000000000000
         C           -1.964411943735    -1.507799289060     0.711163375515    12.000000000000
         H            1.886824056265     1.265537710940    -0.439280624485     1.007825032230
         H            0.611531056265    -1.377856289060    -0.435658624485     1.007825032230
         H           -1.778886943735    -0.924518289060    -1.360938624485     1.007825032230
         H            3.998455056265    -0.046474289060    -0.787293624485     1.007825032230
         H            3.089270056265    -1.550705289060    -0.610776624485     1.007825032230
         H            2.760915056265    -0.472508289060    -1.985227624485     1.007825032230
         H            1.530517056265     0.780603710940     1.943955375515     1.007825032230
         H            3.265405056265     0.719011710940     1.577128375515     1.007825032230
         H            2.351901056265    -0.788893289060     1.776698375515     1.007825032230
         H           -2.951051943735    -1.962988289060     0.608005375515     1.007825032230
         H           -1.901014943735    -1.038939289060     1.695822375515     1.007825032230
         H           -1.211305943735    -2.299153289060     0.642977375515     1.007825032230
         H           -2.436206943735     1.335567710940    -0.151193624485     1.007825032230

  Basis Set: AUG-CC-PVTZ
    Blend: AUG-CC-PVTZ
  Basis Set: (AUG-CC-PVTZ AUX)
    Blend: AUG-CC-PVTZ-JKFIT
	 Reference Energy          =    -439.1350145134030072 [Eh]
	 Singles Energy            =      -0.0000000000000000 [Eh]
	 Same-Spin Energy          =      -0.4456888420797724 [Eh]
	 Opposite-Spin Energy      =      -1.4633324993395049 [Eh]
	 Correlation Energy        =      -1.9090213414192774 [Eh]
	 Total Energy              =    -441.0440358548223116 [Eh]

	 ================> DF-SCS-MP2 Energies <==================
	-----------------------------------------------------------
	 SCS Same-Spin Scale       =       0.3333333333333333 [-]
	 SCS Opposite-Spin Scale   =       1.2000000000000000 [-]
	 SCS Same-Spin Energy      =      -0.1485629473599241 [Eh]
	 SCS Opposite-Spin Energy  =      -1.7559989992074059 [Eh]
	 SCS Correlation Energy    =      -1.9045619465673300 [Eh]
	 SCS Total Energy          =    -441.0395764599703625 [Eh]
	-----------------------------------------------------------

  Dipole Moment: [D]
     X:     3.7203      Y:    -2.9840      Z:    -0.1122     Total:     4.7705

*** Psi4 exiting successfully. Buy a developer a beer!
