                               Psi4 1.3.2 release

  ==> Input File <==

--------------------------------------------------------------------------
#psi4
#
memory 32 gb

molecule  {
0 1
  O       -2.8756320     0.4615000    -0.3051040
  O       -0.5220660     1.5374290     0.0548780
  N        0.6670578    -0.3911744    -0.3521229
  C        1.9647450     0.2268840    -0.0956960
  C       -1.8012180    -0.4504720    -0.3698720
  C        2.9877381    -0.5229595    -0.9336254
  C        2.2930000     0.2310680     1.3932270
  C       -0.4931590     0.3235730    -0.1949090
  C       -1.9724170    -1.5121580     0.7102480
  H        1.8788190     1.2611790    -0.4401960
  H        0.6035260    -1.3822150    -0.4365740
  H       -1.7868920    -0.9288770    -1.3618540
  H        3.9904500    -0.0508330    -0.7882090
  H        3.0812650    -1.5550640    -0.6116920
  H        2.7529100    -0.4768670    -1.9861430
  H        1.5225120     0.7762450     1.9430400
  H        3.2574000     0.7146530     1.5762130
  H        2.3438960    -0.7932520     1.7757830
  H       -2.9590570    -1.9673470     0.6070900
  H       -1.9090200    -1.0432980     1.6949070
  H       -1.2193110    -2.3035120     0.6420620
  H       -2.4442120     1.3312090    -0.1521090
units angstrom
no_reorient  #important for SAPT in psi4, default
symmetry c1  #important for SAPT in psi4, default
}

set PROPERTIES_ORIGIN ["COM"]
properties('MP2/aug-cc-pvtz', properties = ['dipole'])
--------------------------------------------------------------------------

    Molecular point group: c1
  Charge       = 0
  Multiplicity = 1
  Basis Set: AUG-CC-PVTZ
    Blend: AUG-CC-PVTZ
  Basis Set: (AUG-CC-PVTZ AUX)
    Blend: AUG-CC-PVTZ-JKFIT

    Orbital Energies [Eh]
    ---------------------

    Doubly Occupied:

       1A    -20.548383     2A    -20.536336     3A    -15.593136
       4A    -11.361128     5A    -11.297737     6A    -11.276499
       7A    -11.231158     8A    -11.230841     9A    -11.222355
      10A     -1.397804    11A     -1.346393    12A     -1.246514
      13A     -1.070357    14A     -1.023623    15A     -0.949857
      16A     -0.894582    17A     -0.822316    18A     -0.794302
      19A     -0.736095    20A     -0.679359    21A     -0.650182
      22A     -0.633721    23A     -0.630091    24A     -0.597411
      25A     -0.581222    26A     -0.567037    27A     -0.555292
      28A     -0.545209    29A     -0.536303    30A     -0.530171
      31A     -0.513743    32A     -0.504860    33A     -0.492356
      34A     -0.445438    35A     -0.435264    36A     -0.401252

  @DF-RHF Final Energy:  -439.13609913240441

   => Energetics <=

    Nuclear Repulsion Energy =            485.0704212307837224
    One-Electron Energy =               -1560.6563858460563097
    Two-Electron Energy =                 636.4498654828681765
    Total Energy =                       -439.1360991324044107
  Basis Set: (AUG-CC-PVTZ AUX)
    Blend: AUG-CC-PVTZ-RI
    Molecular point group: c1

    Geometry (in Angstrom), charge = 0, multiplicity = 1:

       Center              X                  Y                   Z               Mass
    ------------   -----------------  -----------------  -----------------  -----------------
         O           -2.875043337111     0.464718432998    -0.302517398103    15.994914619570
         O           -0.521477337111     1.540647432998     0.057464601897    15.994914619570
         N            0.667646462889    -0.387955967002    -0.349536298103    14.003074004430
         C            1.965333662889     0.230102432998    -0.093109398103    12.000000000000
         C           -1.800629337111    -0.447253567002    -0.367285398103    12.000000000000
         C            2.988326762889    -0.519741067002    -0.931038798103    12.000000000000
         C            2.293588662889     0.234286432998     1.395813601897    12.000000000000
         C           -0.492570337111     0.326791432998    -0.192322398103    12.000000000000
         C           -1.971828337111    -1.508939567002     0.712834601897    12.000000000000
         H            1.879407662889     1.264397432998    -0.437609398103     1.007825032230
         H            0.604114662889    -1.378996567002    -0.433987398103     1.007825032230
         H           -1.786303337111    -0.925658567002    -1.359267398103     1.007825032230
         H            3.991038662889    -0.047614567002    -0.785622398103     1.007825032230
         H            3.081853662889    -1.551845567002    -0.609105398103     1.007825032230
         H            2.753498662889    -0.473648567002    -1.983556398103     1.007825032230
         H            1.523100662889     0.779463432998     1.945626601897     1.007825032230
         H            3.257988662889     0.717871432998     1.578799601897     1.007825032230
         H            2.344484662889    -0.790033567002     1.778369601897     1.007825032230
         H           -2.958468337111    -1.964128567002     0.609676601897     1.007825032230
         H           -1.908431337111    -1.040079567002     1.697493601897     1.007825032230
         H           -1.218722337111    -2.300293567002     0.644648601897     1.007825032230
         H           -2.443623337111     1.334427432998    -0.149522398103     1.007825032230

  Basis Set: AUG-CC-PVTZ
    Blend: AUG-CC-PVTZ
  Basis Set: (AUG-CC-PVTZ AUX)
    Blend: AUG-CC-PVTZ-JKFIT
	 Reference Energy          =    -439.1360991324044107 [Eh]
	 Singles Energy            =      -0.0000000000000000 [Eh]
	 Same-Spin Energy          =      -0.4460227229854593 [Eh]
	 Opposite-Spin Energy      =      -1.4638122557079336 [Eh]
	 Correlation Energy        =      -1.9098349786933930 [Eh]
	 Total Energy              =    -441.0459341110977789 [Eh]

	 ================> DF-SCS-MP2 Energies <==================
	-----------------------------------------------------------
	 SCS Same-Spin Scale       =       0.3333333333333333 [-]
	 SCS Opposite-Spin Scale   =       1.2000000000000000 [-]
	 SCS Same-Spin Energy      =      -0.1486742409951531 [Eh]
	 SCS Opposite-Spin Energy  =      -1.7565747068495203 [Eh]
	 SCS Correlation Energy    =      -1.9052489478446735 [Eh]
	 SCS Total Energy          =    -441.0413480802490653 [Eh]
	-----------------------------------------------------------

  Dipole Moment: [D]
     X:     3.3570      Y:    -2.9986      Z:    -0.0988     Total:     4.5023

*** Psi4 exiting successfully. Buy a developer a beer!
