                               Psi4 1.3.2 release

  ==> Input File <==

--------------------------------------------------------------------------
#psi4
#
memory 32 gb

molecule  {
0 1
  O       -2.8756320     0.4615000    -0.3051040
  O       -0.5652961     1.5358025     0.0540318
  N        0.6562510    -0.3746370    -0.3360270
  C        1.9647450     0.2268840    -0.0956960
  C       -1.8281096    -0.4052216    -0.3608655
  C        3.0067800    -0.5070980    -0.9241520
  C        2.2930000     0.2310680     1.3932270
  C       -0.4931590     0.3235730    -0.1949090
  C       -1.9724170    -1.5121580     0.7102480
  H        1.8788190     1.2611790    -0.4401960
  H        0.6035260    -1.3822150    -0.4365740
  H       -1.7868920    -0.9288770    -1.3618540
  H        3.9904500    -0.0508330    -0.7882090
  H        3.0812650    -1.5550640    -0.6116920
  H        2.7529100    -0.4768670    -1.9861430
  H        1.5225120     0.7762450     1.9430400
  H        3.2574000     0.7146530     1.5762130
  H        2.3438960    -0.7932520     1.7757830
  H       -2.9590570    -1.9673470     0.6070900
  H       -1.9090200    -1.0432980     1.6949070
  H       -1.2193110    -2.3035120     0.6420620
  H       -2.4442120     1.3312090    -0.1521090
units angstrom
no_reorient  #important for SAPT in psi4, default
symmetry c1  #important for SAPT in psi4, default
}

set PROPERTIES_ORIGIN ["COM"]
properties('MP2/aug-cc-pvtz', properties = ['dipole'])
--------------------------------------------------------------------------

    Molecular point group: c1
  Charge       = 0
  Multiplicity = 1
  Basis Set: AUG-CC-PVTZ
    Blend: AUG-CC-PVTZ
  Basis Set: (AUG-CC-PVTZ AUX)
    Blend: AUG-CC-PVTZ-JKFIT

    Orbital Energies [Eh]
    ---------------------

    Doubly Occupied:

       1A    -20.550529     2A    -20.532370     3A    -15.597706
       4A    -11.357496     5A    -11.296428     6A    -11.278792
       7A    -11.233151     8A    -11.228348     9A    -11.223155
      10A     -1.405210    11A     -1.358923    12A     -1.249970
      13A     -1.070837    14A     -1.017324    15A     -0.950775
      16A     -0.892013    17A     -0.823129    18A     -0.795600
      19A     -0.744464    20A     -0.679676    21A     -0.650230
      22A     -0.633287    23A     -0.630389    24A     -0.598276
      25A     -0.587626    26A     -0.566187    27A     -0.556136
      28A     -0.547239    29A     -0.542759    30A     -0.530699
      31A     -0.512013    32A     -0.503756    33A     -0.493020
      34A     -0.435992    35A     -0.431408    36A     -0.402242

  @DF-RHF Final Energy:  -439.13514035992017

   => Energetics <=

    Nuclear Repulsion Energy =            485.6353685768393689
    One-Electron Energy =               -1561.7267033071077549
    Two-Electron Energy =                 636.9561943703483848
    Total Energy =                       -439.1351403599201149
  Basis Set: (AUG-CC-PVTZ AUX)
    Blend: AUG-CC-PVTZ-RI
    Molecular point group: c1

    Geometry (in Angstrom), charge = 0, multiplicity = 1:

       Center              X                  Y                   Z               Mass
    ------------   -----------------  -----------------  -----------------  -----------------
         O           -2.867895930782     0.457556419444    -0.305825054462    15.994914619570
         O           -0.557560030782     1.531858919444     0.053310745538    15.994914619570
         N            0.663987069218    -0.378580580556    -0.336748054462    14.003074004430
         C            1.972481069218     0.222940419444    -0.096417054462    12.000000000000
         C           -1.820373530782    -0.409165180556    -0.361586554462    12.000000000000
         C            3.014516069218    -0.511041580556    -0.924873054462    12.000000000000
         C            2.300736069218     0.227124419444     1.392505945538    12.000000000000
         C           -0.485422930782     0.319629419444    -0.195630054462    12.000000000000
         C           -1.964680930782    -1.516101580556     0.709526945538    12.000000000000
         H            1.886555069218     1.257235419444    -0.440917054462     1.007825032230
         H            0.611262069218    -1.386158580556    -0.437295054462     1.007825032230
         H           -1.779155930782    -0.932820580556    -1.362575054462     1.007825032230
         H            3.998186069218    -0.054776580556    -0.788930054462     1.007825032230
         H            3.089001069218    -1.559007580556    -0.612413054462     1.007825032230
         H            2.760646069218    -0.480810580556    -1.986864054462     1.007825032230
         H            1.530248069218     0.772301419444     1.942318945538     1.007825032230
         H            3.265136069218     0.710709419444     1.575491945538     1.007825032230
         H            2.351632069218    -0.797195580556     1.775061945538     1.007825032230
         H           -2.951320930782    -1.971290580556     0.606368945538     1.007825032230
         H           -1.901283930782    -1.047241580556     1.694185945538     1.007825032230
         H           -1.211574930782    -2.307455580556     0.641340945538     1.007825032230
         H           -2.436475930782     1.327265419444    -0.152830054462     1.007825032230

  Basis Set: AUG-CC-PVTZ
    Blend: AUG-CC-PVTZ
  Basis Set: (AUG-CC-PVTZ AUX)
    Blend: AUG-CC-PVTZ-JKFIT
	 Reference Energy          =    -439.1351403599201717 [Eh]
	 Singles Energy            =      -0.0000000000000000 [Eh]
	 Same-Spin Energy          =      -0.4460708005474080 [Eh]
	 Opposite-Spin Energy      =      -1.4629339100508709 [Eh]
	 Correlation Energy        =      -1.9090047105982788 [Eh]
	 Total Energy              =    -441.0441450705184252 [Eh]

	 ================> DF-SCS-MP2 Energies <==================
	-----------------------------------------------------------
	 SCS Same-Spin Scale       =       0.3333333333333333 [-]
	 SCS Opposite-Spin Scale   =       1.2000000000000000 [-]
	 SCS Same-Spin Energy      =      -0.1486902668491360 [Eh]
	 SCS Opposite-Spin Energy  =      -1.7555206920610451 [Eh]
	 SCS Correlation Energy    =      -1.9042109589101810 [Eh]
	 SCS Total Energy          =    -441.0393513188303700 [Eh]
	-----------------------------------------------------------

  Dipole Moment: [D]
     X:     3.5025      Y:    -2.9034      Z:    -0.1372     Total:     4.5515

*** Psi4 exiting successfully. Buy a developer a beer!
