                               Psi4 1.3.2 release

  ==> Input File <==

--------------------------------------------------------------------------
#psi4
#
memory 32 gb

molecule  {
0 1
  O       -2.8756320     0.4615000    -0.3051040
  O       -0.5220660     1.5374290     0.0548780
  N        0.6562510    -0.3746370    -0.3360270
  C        1.9854123     0.1803206    -0.0970805
  C       -1.8012180    -0.4504720    -0.3698720
  C        3.0067800    -0.5070980    -0.9241520
  C        2.2930000     0.2310680     1.3932270
  C       -0.4931590     0.3235730    -0.1949090
  C       -1.9724170    -1.5121580     0.7102480
  H        1.8788190     1.2611790    -0.4401960
  H        0.6385516    -1.3839042    -0.4317847
  H       -1.7868920    -0.9288770    -1.3618540
  H        3.9904500    -0.0508330    -0.7882090
  H        3.0812650    -1.5550640    -0.6116920
  H        2.7529100    -0.4768670    -1.9861430
  H        1.5225120     0.7762450     1.9430400
  H        3.2574000     0.7146530     1.5762130
  H        2.3438960    -0.7932520     1.7757830
  H       -2.9590570    -1.9673470     0.6070900
  H       -1.9090200    -1.0432980     1.6949070
  H       -1.2193110    -2.3035120     0.6420620
  H       -2.4442120     1.3312090    -0.1521090
units angstrom
no_reorient  #important for SAPT in psi4, default
symmetry c1  #important for SAPT in psi4, default
}

set PROPERTIES_ORIGIN ["COM"]
properties('MP2/aug-cc-pvtz', properties = ['dipole'])
--------------------------------------------------------------------------

    Molecular point group: c1
  Charge       = 0
  Multiplicity = 1
  Basis Set: AUG-CC-PVTZ
    Blend: AUG-CC-PVTZ
  Basis Set: (AUG-CC-PVTZ AUX)
    Blend: AUG-CC-PVTZ-JKFIT

    Orbital Energies [Eh]
    ---------------------

    Doubly Occupied:

       1A    -20.547817     2A    -20.532962     3A    -15.595914
       4A    -11.359880     5A    -11.297466     6A    -11.278268
       7A    -11.232180     8A    -11.230460     9A    -11.222698
      10A     -1.397294    11A     -1.345913    12A     -1.248626
      13A     -1.075903    14A     -1.024892    15A     -0.953674
      16A     -0.895905    17A     -0.818387    18A     -0.795362
      19A     -0.736800    20A     -0.676802    21A     -0.648237
      22A     -0.633813    23A     -0.631692    24A     -0.597796
      25A     -0.583238    26A     -0.567688    27A     -0.555294
      28A     -0.548358    29A     -0.539920    30A     -0.529645
      31A     -0.512260    32A     -0.510200    33A     -0.479738
      34A     -0.444843    35A     -0.434784    36A     -0.401163

  @DF-RHF Final Energy:  -439.13351881147759

   => Energetics <=

    Nuclear Repulsion Energy =            485.3741289591517898
    One-Electron Energy =               -1561.2435498155052755
    Two-Electron Energy =                 636.7359020448758429
    Total Energy =                       -439.1335188114775292
  Basis Set: (AUG-CC-PVTZ AUX)
    Blend: AUG-CC-PVTZ-RI
    Molecular point group: c1

    Geometry (in Angstrom), charge = 0, multiplicity = 1:

       Center              X                  Y                   Z               Mass
    ------------   -----------------  -----------------  -----------------  -----------------
         O           -2.877793119158     0.465775309115    -0.305013958478    15.994914619570
         O           -0.524227119158     1.541704309115     0.054968041522    15.994914619570
         N            0.654089880842    -0.370361690885    -0.335936958478    14.003074004430
         C            1.983251180842     0.184595909115    -0.096990458478    12.000000000000
         C           -1.803379119158    -0.446196690885    -0.369781958478    12.000000000000
         C            3.004618880842    -0.502822690885    -0.924061958478    12.000000000000
         C            2.290838880842     0.235343309115     1.393317041522    12.000000000000
         C           -0.495320119158     0.327848309115    -0.194818958478    12.000000000000
         C           -1.974578119158    -1.507882690885     0.710338041522    12.000000000000
         H            1.876657880842     1.265454309115    -0.440105958478     1.007825032230
         H            0.636390480842    -1.379628890885    -0.431694658478     1.007825032230
         H           -1.789053119158    -0.924601690885    -1.361763958478     1.007825032230
         H            3.988288880842    -0.046557690885    -0.788118958478     1.007825032230
         H            3.079103880842    -1.550788690885    -0.611601958478     1.007825032230
         H            2.750748880842    -0.472591690885    -1.986052958478     1.007825032230
         H            1.520350880842     0.780520309115     1.943130041522     1.007825032230
         H            3.255238880842     0.718928309115     1.576303041522     1.007825032230
         H            2.341734880842    -0.788976690885     1.775873041522     1.007825032230
         H           -2.961218119158    -1.963071690885     0.607180041522     1.007825032230
         H           -1.911181119158    -1.039022690885     1.694997041522     1.007825032230
         H           -1.221472119158    -2.299236690885     0.642152041522     1.007825032230
         H           -2.446373119158     1.335484309115    -0.152018958478     1.007825032230

  Basis Set: AUG-CC-PVTZ
    Blend: AUG-CC-PVTZ
  Basis Set: (AUG-CC-PVTZ AUX)
    Blend: AUG-CC-PVTZ-JKFIT
	 Reference Energy          =    -439.1335188114775860 [Eh]
	 Singles Energy            =      -0.0000000000000000 [Eh]
	 Same-Spin Energy          =      -0.4464945473447658 [Eh]
	 Opposite-Spin Energy      =      -1.4643210567304694 [Eh]
	 Correlation Energy        =      -1.9108156040752353 [Eh]
	 Total Energy              =    -441.0443344155528393 [Eh]

	 ================> DF-SCS-MP2 Energies <==================
	-----------------------------------------------------------
	 SCS Same-Spin Scale       =       0.3333333333333333 [-]
	 SCS Opposite-Spin Scale   =       1.2000000000000000 [-]
	 SCS Same-Spin Energy      =      -0.1488315157815886 [Eh]
	 SCS Opposite-Spin Energy  =      -1.7571852680765632 [Eh]
	 SCS Correlation Energy    =      -1.9060167838581519 [Eh]
	 SCS Total Energy          =    -441.0395355953357353 [Eh]
	-----------------------------------------------------------

  Dipole Moment: [D]
     X:     3.5002      Y:    -3.0754      Z:    -0.1522     Total:     4.6618

*** Psi4 exiting successfully. Buy a developer a beer!
