                               Psi4 1.3.2 release

  ==> Input File <==

--------------------------------------------------------------------------
#psi4
#
memory 32 gb

molecule  {
0 1
  O       -2.8756320     0.4615000    -0.3051040
  O       -0.5220660     1.5374290     0.0548780
  N        0.6562510    -0.3746370    -0.3360270
  C        1.9590779     0.2379267    -0.0928178
  C       -1.8012180    -0.4504720    -0.3698720
  C        3.0067800    -0.5070980    -0.9241520
  C        2.2930000     0.2310680     1.3932270
  C       -0.4869267     0.3331142    -0.1918472
  C       -1.9724170    -1.5121580     0.7102480
  H        1.8788190     1.2611790    -0.4401960
  H        0.6035260    -1.3822150    -0.4365740
  H       -1.7868920    -0.9288770    -1.3618540
  H        3.9904500    -0.0508330    -0.7882090
  H        3.0812650    -1.5550640    -0.6116920
  H        2.7529100    -0.4768670    -1.9861430
  H        1.5225120     0.7762450     1.9430400
  H        3.2574000     0.7146530     1.5762130
  H        2.3438960    -0.7932520     1.7757830
  H       -2.9590570    -1.9673470     0.6070900
  H       -1.9090200    -1.0432980     1.6949070
  H       -1.2193110    -2.3035120     0.6420620
  H       -2.4442120     1.3312090    -0.1521090
units angstrom
no_reorient  #important for SAPT in psi4, default
symmetry c1  #important for SAPT in psi4, default
}

set PROPERTIES_ORIGIN ["COM"]
properties('MP2/aug-cc-pvtz', properties = ['dipole'])
--------------------------------------------------------------------------

    Molecular point group: c1
  Charge       = 0
  Multiplicity = 1
  Basis Set: AUG-CC-PVTZ
    Blend: AUG-CC-PVTZ
  Basis Set: (AUG-CC-PVTZ AUX)
    Blend: AUG-CC-PVTZ-JKFIT

    Orbital Energies [Eh]
    ---------------------

    Doubly Occupied:

       1A    -20.547375     2A    -20.533899     3A    -15.594932
       4A    -11.357345     5A    -11.296640     6A    -11.276634
       7A    -11.232259     8A    -11.230090     9A    -11.222246
      10A     -1.401648    11A     -1.346914    12A     -1.248778
      13A     -1.070435    14A     -1.022389    15A     -0.949053
      16A     -0.892697    17A     -0.822773    18A     -0.795722
      19A     -0.735705    20A     -0.679743    21A     -0.649836
      22A     -0.634156    23A     -0.627682    24A     -0.598436
      25A     -0.581068    26A     -0.566624    27A     -0.555119
      28A     -0.547736    29A     -0.539623    30A     -0.531067
      31A     -0.513602    32A     -0.502416    33A     -0.493105
      34A     -0.444524    35A     -0.433041    36A     -0.402077

  @DF-RHF Final Energy:  -439.13853064207285

   => Energetics <=

    Nuclear Repulsion Energy =            485.3798375357123973
    One-Electron Energy =               -1561.2819593781953245
    Two-Electron Energy =                 636.7635912004101328
    Total Energy =                       -439.1385306420728512
  Basis Set: (AUG-CC-PVTZ AUX)
    Blend: AUG-CC-PVTZ-RI
    Molecular point group: c1

    Geometry (in Angstrom), charge = 0, multiplicity = 1:

       Center              X                  Y                   Z               Mass
    ------------   -----------------  -----------------  -----------------  -----------------
         O           -2.875683765943     0.459615865160    -0.305647601705    15.994914619570
         O           -0.522117765943     1.535544865160     0.054334398295    15.994914619570
         N            0.656199234057    -0.376521134840    -0.336570601705    14.003074004430
         C            1.959026134057     0.236042565160    -0.093361401705    12.000000000000
         C           -1.801269765943    -0.452356134840    -0.370415601705    12.000000000000
         C            3.006728234057    -0.508982134840    -0.924695601705    12.000000000000
         C            2.292948234057     0.229183865160     1.392683398295    12.000000000000
         C           -0.486978465943     0.331230065160    -0.192390801705    12.000000000000
         C           -1.972468765943    -1.514042134840     0.709704398295    12.000000000000
         H            1.878767234057     1.259294865160    -0.440739601705     1.007825032230
         H            0.603474234057    -1.384099134840    -0.437117601705     1.007825032230
         H           -1.786943765943    -0.930761134840    -1.362397601705     1.007825032230
         H            3.990398234057    -0.052717134840    -0.788752601705     1.007825032230
         H            3.081213234057    -1.556948134840    -0.612235601705     1.007825032230
         H            2.752858234057    -0.478751134840    -1.986686601705     1.007825032230
         H            1.522460234057     0.774360865160     1.942496398295     1.007825032230
         H            3.257348234057     0.712768865160     1.575669398295     1.007825032230
         H            2.343844234057    -0.795136134840     1.775239398295     1.007825032230
         H           -2.959108765943    -1.969231134840     0.606546398295     1.007825032230
         H           -1.909071765943    -1.045182134840     1.694363398295     1.007825032230
         H           -1.219362765943    -2.305396134840     0.641518398295     1.007825032230
         H           -2.444263765943     1.329324865160    -0.152652601705     1.007825032230

  Basis Set: AUG-CC-PVTZ
    Blend: AUG-CC-PVTZ
  Basis Set: (AUG-CC-PVTZ AUX)
    Blend: AUG-CC-PVTZ-JKFIT
	 Reference Energy          =    -439.1385306420728512 [Eh]
	 Singles Energy            =      -0.0000000000000000 [Eh]
	 Same-Spin Energy          =      -0.4457209625690626 [Eh]
	 Opposite-Spin Energy      =      -1.4630979618103437 [Eh]
	 Correlation Energy        =      -1.9088189243794063 [Eh]
	 Total Energy              =    -441.0473495664522829 [Eh]

	 ================> DF-SCS-MP2 Energies <==================
	-----------------------------------------------------------
	 SCS Same-Spin Scale       =       0.3333333333333333 [-]
	 SCS Opposite-Spin Scale   =       1.2000000000000000 [-]
	 SCS Same-Spin Energy      =      -0.1485736541896875 [Eh]
	 SCS Opposite-Spin Energy  =      -1.7557175541724124 [Eh]
	 SCS Correlation Energy    =      -1.9042912083621000 [Eh]
	 SCS Total Energy          =    -441.0428218504349616 [Eh]
	-----------------------------------------------------------

  Dipole Moment: [D]
     X:     3.4634      Y:    -3.0038      Z:    -0.1298     Total:     4.5864

*** Psi4 exiting successfully. Buy a developer a beer!
