                               Psi4 1.4a3.dev225

  ==> Input File <==

--------------------------------------------------------------------------
#psi4
#
memory 32 gb

molecule  {
0 1
  O        2.9110620    -0.5703060    -0.4523520
  O        0.5539390    -1.5540470     0.1662040
  N       -0.5943370     0.3369340    -0.3930300
  C       -1.9154150    -0.2304160    -0.1256420
  C        1.8655780     0.3788930    -0.3941620
  C       -2.9513150     0.5221750    -0.9483650
  C       -2.2232580    -0.2086170     1.3682650
  C        0.5443190    -0.3662470    -0.1910430
  C        2.0957426     1.3302225     0.7125354
  H       -1.8664900    -1.2716350    -0.4595930
  H       -0.5281980     1.3181660    -0.6377390
  H        1.8317100     0.9202690    -1.3505730
  H       -3.9433690     0.0896600    -0.7945050
  H       -2.9965010     1.5743390    -0.6446630
  H       -2.7149650     0.4749500    -2.0147890
  H       -1.4563020    -0.7629570     1.9136170
  H       -3.1950150    -0.6709470     1.5682930
  H       -2.2473660     0.8219210     1.7368640
  H        3.0888910     1.8183940     0.6312910
  H        2.0827360     0.8223960     1.7004970
  H        1.3487660     2.1553220     0.7756360
  H        2.4958040    -1.4028240    -0.1381920
units angstrom
no_reorient  #important for SAPT in psi4, default
symmetry c1  #important for SAPT in psi4, default
}

set PROPERTIES_ORIGIN ["COM"]
properties('MP2/aug-cc-pvtz', properties = ['dipole'])
--------------------------------------------------------------------------

    Molecular point group: c1
  Charge       = 0
  Multiplicity = 1
  Basis Set: AUG-CC-PVTZ
    Blend: AUG-CC-PVTZ
  Basis Set: (AUG-CC-PVTZ AUX)
    Blend: AUG-CC-PVTZ-JKFIT

    Orbital Energies [Eh]
    ---------------------

    Doubly Occupied:

       1A    -20.548474     2A    -20.532023     3A    -15.596359
       4A    -11.358353     5A    -11.295600     6A    -11.278197
       7A    -11.233558     8A    -11.231930     9A    -11.221106
      10A     -1.396402    11A     -1.346463    12A     -1.247031
      13A     -1.073504    14A     -1.029868    15A     -0.949633
      16A     -0.891006    17A     -0.821061    18A     -0.794805
      19A     -0.738904    20A     -0.678583    21A     -0.644268
      22A     -0.637715    23A     -0.629339    24A     -0.595598
      25A     -0.587971    26A     -0.568626    27A     -0.555126
      28A     -0.544767    29A     -0.533450    30A     -0.523497
      31A     -0.510300    32A     -0.502238    33A     -0.491302
      34A     -0.450160    35A     -0.432182    36A     -0.401690

  @DF-RHF Final Energy:  -439.13481578385711

   => Energetics <=

    Nuclear Repulsion Energy =            485.9415136462732221
    One-Electron Energy =               -1562.4104779027748009
    Two-Electron Energy =                 637.3341484726444151
    Total Energy =                       -439.1348157838571069
  Basis Set: (AUG-CC-PVTZ AUX)
    Blend: AUG-CC-PVTZ-RI
    Molecular point group: c1

    Geometry (in Angstrom), charge = 0, multiplicity = 1:

       Center              X                  Y                   Z               Mass
    ------------   -----------------  -----------------  -----------------  -----------------
         O            2.850617225586    -0.522893784898    -0.431623103006    15.994914619570
         O            0.493494225586    -1.506634784898     0.186932896994    15.994914619570
         N           -0.654781774414     0.384346215102    -0.372301103006    14.003074004430
         C           -1.975859774414    -0.183003784898    -0.104913103006    12.000000000000
         C            1.805133225586     0.426305215102    -0.373433103006    12.000000000000
         C           -3.011759774414     0.569587215102    -0.927636103006    12.000000000000
         C           -2.283702774414    -0.161204784898     1.388993896994    12.000000000000
         C            0.483874225586    -0.318834784898    -0.170314103006    12.000000000000
         C            2.035297825586     1.377634715102     0.733264296994    12.000000000000
         H           -1.926934774414    -1.224222784898    -0.438864103006     1.007825032230
         H           -0.588642774414     1.365578215102    -0.617010103006     1.007825032230
         H            1.771265225586     0.967681215102    -1.329844103006     1.007825032230
         H           -4.003813774414     0.137072215102    -0.773776103006     1.007825032230
         H           -3.056945774414     1.621751215102    -0.623934103006     1.007825032230
         H           -2.775409774414     0.522362215102    -1.994060103006     1.007825032230
         H           -1.516746774414    -0.715544784898     1.934345896994     1.007825032230
         H           -3.255459774414    -0.623534784898     1.589021896994     1.007825032230
         H           -2.307810774414     0.869333215102     1.757592896994     1.007825032230
         H            3.028446225586     1.865806215102     0.652019896994     1.007825032230
         H            2.022291225586     0.869808215102     1.721225896994     1.007825032230
         H            1.288321225586     2.202734215102     0.796364896994     1.007825032230
         H            2.435359225586    -1.355411784898    -0.117463103006     1.007825032230

  Basis Set: AUG-CC-PVTZ
    Blend: AUG-CC-PVTZ
  Basis Set: (AUG-CC-PVTZ AUX)
    Blend: AUG-CC-PVTZ-JKFIT
	 Reference Energy          =    -439.1348157838571069 [Eh]
	 Singles Energy            =      -0.0000000000000000 [Eh]
	 Same-Spin Energy          =      -0.4463460471181921 [Eh]
	 Opposite-Spin Energy      =      -1.4641934750626300 [Eh]
	 Correlation Energy        =      -1.9105395221808221 [Eh]
	 Total Energy              =    -441.0453553060379477 [Eh]

	 ================> DF-SCS-MP2 Energies <==================
	-----------------------------------------------------------
	 SCS Same-Spin Scale       =       0.3333333333333333 [-]
	 SCS Opposite-Spin Scale   =       1.2000000000000000 [-]
	 SCS Same-Spin Energy      =      -0.1487820157060640 [Eh]
	 SCS Opposite-Spin Energy  =      -1.7570321700751559 [Eh]
	 SCS Correlation Energy    =      -1.9058141857812199 [Eh]
	 SCS Total Energy          =    -441.0406299696383030 [Eh]
	-----------------------------------------------------------

  Dipole Moment: [D]
     X:    -3.3974      Y:     3.1390      Z:    -0.1666     Total:     4.6285

*** Psi4 exiting successfully. Buy a developer a beer!
