                               Psi4 1.3.2 release

  ==> Input File <==

--------------------------------------------------------------------------
#psi4
#
memory 32 gb

molecule  {
0 1
  O       -2.8756320     0.4615000    -0.3051040
  O       -0.5220660     1.5374290     0.0548780
  N        0.6520932    -0.3635645    -0.3407654
  C        1.9647450     0.2268840    -0.0956960
  C       -1.8012180    -0.4504720    -0.3698720
  C        3.0067800    -0.5070980    -0.9241520
  C        2.2930000     0.2310680     1.3932270
  C       -0.4931590     0.3235730    -0.1949090
  C       -1.9724170    -1.5121580     0.7102480
  H        1.8697388     1.2595642    -0.4426473
  H        0.6035260    -1.3822150    -0.4365740
  H       -1.7868920    -0.9288770    -1.3618540
  H        3.9904500    -0.0508330    -0.7882090
  H        3.0812650    -1.5550640    -0.6116920
  H        2.7529100    -0.4768670    -1.9861430
  H        1.5225120     0.7762450     1.9430400
  H        3.2574000     0.7146530     1.5762130
  H        2.3438960    -0.7932520     1.7757830
  H       -2.9590570    -1.9673470     0.6070900
  H       -1.9090200    -1.0432980     1.6949070
  H       -1.2193110    -2.3035120     0.6420620
  H       -2.4442120     1.3312090    -0.1521090
units angstrom
no_reorient  #important for SAPT in psi4, default
symmetry c1  #important for SAPT in psi4, default
}

set PROPERTIES_ORIGIN ["COM"]
properties('MP2/aug-cc-pvtz', properties = ['dipole'])
--------------------------------------------------------------------------

    Molecular point group: c1
  Charge       = 0
  Multiplicity = 1
  Basis Set: AUG-CC-PVTZ
    Blend: AUG-CC-PVTZ
  Basis Set: (AUG-CC-PVTZ AUX)
    Blend: AUG-CC-PVTZ-JKFIT

    Orbital Energies [Eh]
    ---------------------

    Doubly Occupied:

       1A    -20.547510     2A    -20.530761     3A    -15.596687
       4A    -11.356811     5A    -11.297127     6A    -11.277547
       7A    -11.232819     8A    -11.230676     9A    -11.222809
      10A     -1.397159    11A     -1.345753    12A     -1.248488
      13A     -1.072945    14A     -1.023895    15A     -0.950231
      16A     -0.895222    17A     -0.822933    18A     -0.794118
      19A     -0.736620    20A     -0.678400    21A     -0.649145
      22A     -0.631354    23A     -0.629518    24A     -0.597070
      25A     -0.581525    26A     -0.567213    27A     -0.555413
      28A     -0.548730    29A     -0.539569    30A     -0.530461
      31A     -0.511413    32A     -0.502911    33A     -0.492022
      34A     -0.444694    35A     -0.433883    36A     -0.401548

  @DF-RHF Final Energy:  -439.13757087467695

   => Energetics <=

    Nuclear Repulsion Energy =            485.4736896908144104
    One-Electron Energy =               -1561.4725664199872881
    Two-Electron Energy =                 636.8613058544959813
    Total Energy =                       -439.1375708746769533
  Basis Set: (AUG-CC-PVTZ AUX)
    Blend: AUG-CC-PVTZ-RI
    Molecular point group: c1

    Geometry (in Angstrom), charge = 0, multiplicity = 1:

       Center              X                  Y                   Z               Mass
    ------------   -----------------  -----------------  -----------------  -----------------
         O           -2.875118101013     0.460329740319    -0.304578887839    15.994914619570
         O           -0.521552101013     1.536258740319     0.055403112161    15.994914619570
         N            0.652607098987    -0.364734759681    -0.340240287839    14.003074004430
         C            1.965258898987     0.225713740319    -0.095170887839    12.000000000000
         C           -1.800704101013    -0.451642259681    -0.369346887839    12.000000000000
         C            3.007293898987    -0.508268259681    -0.923626887839    12.000000000000
         C            2.293513898987     0.229897740319     1.393752112161    12.000000000000
         C           -0.492645101013     0.322402740319    -0.194383887839    12.000000000000
         C           -1.971903101013    -1.513328259681     0.710773112161    12.000000000000
         H            1.870252698987     1.258393940319    -0.442122187839     1.007825032230
         H            0.604039898987    -1.383385259681    -0.436048887839     1.007825032230
         H           -1.786378101013    -0.930047259681    -1.361328887839     1.007825032230
         H            3.990963898987    -0.052003259681    -0.787683887839     1.007825032230
         H            3.081778898987    -1.556234259681    -0.611166887839     1.007825032230
         H            2.753423898987    -0.478037259681    -1.985617887839     1.007825032230
         H            1.523025898987     0.775074740319     1.943565112161     1.007825032230
         H            3.257913898987     0.713482740319     1.576738112161     1.007825032230
         H            2.344409898987    -0.794422259681     1.776308112161     1.007825032230
         H           -2.958543101013    -1.968517259681     0.607615112161     1.007825032230
         H           -1.908506101013    -1.044468259681     1.695432112161     1.007825032230
         H           -1.218797101013    -2.304682259681     0.642587112161     1.007825032230
         H           -2.443698101013     1.330038740319    -0.151583887839     1.007825032230

  Basis Set: AUG-CC-PVTZ
    Blend: AUG-CC-PVTZ
  Basis Set: (AUG-CC-PVTZ AUX)
    Blend: AUG-CC-PVTZ-JKFIT
	 Reference Energy          =    -439.1375708746769533 [Eh]
	 Singles Energy            =      -0.0000000000000000 [Eh]
	 Same-Spin Energy          =      -0.4460817180614084 [Eh]
	 Opposite-Spin Energy      =      -1.4636611727818354 [Eh]
	 Correlation Energy        =      -1.9097428908432437 [Eh]
	 Total Energy              =    -441.0473137655201867 [Eh]

	 ================> DF-SCS-MP2 Energies <==================
	-----------------------------------------------------------
	 SCS Same-Spin Scale       =       0.3333333333333333 [-]
	 SCS Opposite-Spin Scale   =       1.2000000000000000 [-]
	 SCS Same-Spin Energy      =      -0.1486939060204694 [Eh]
	 SCS Opposite-Spin Energy  =      -1.7563934073382024 [Eh]
	 SCS Correlation Energy    =      -1.9050873133586719 [Eh]
	 SCS Total Energy          =    -441.0426581880356025 [Eh]
	-----------------------------------------------------------

  Dipole Moment: [D]
     X:     3.4978      Y:    -3.0902      Z:    -0.1370     Total:     4.6694

*** Psi4 exiting successfully. Buy a developer a beer!
