                               Psi4 1.3.2 release

  ==> Input File <==

--------------------------------------------------------------------------
#psi4
#
memory 32 gb

molecule  {
0 1
  O       -2.8756320     0.4615000    -0.3051040
  O       -0.5220660     1.5374290     0.0548780
  N        0.6562510    -0.3746370    -0.3360270
  C        1.9647450     0.2268840    -0.0956960
  C       -1.8012180    -0.4504720    -0.3698720
  C        3.0067800    -0.5070980    -0.9241520
  C        2.2930000     0.2310680     1.3932270
  C       -0.4908271     0.2256519    -0.2150592
  C       -1.9724170    -1.5121580     0.7102480
  H        1.8788190     1.2611790    -0.4401960
  H        0.6035260    -1.3822150    -0.4365740
  H       -1.7868920    -0.9288770    -1.3618540
  H        3.9904500    -0.0508330    -0.7882090
  H        3.0812650    -1.5550640    -0.6116920
  H        2.7529100    -0.4768670    -1.9861430
  H        1.5225120     0.7762450     1.9430400
  H        3.2574000     0.7146530     1.5762130
  H        2.3438960    -0.7932520     1.7757830
  H       -2.9590570    -1.9673470     0.6070900
  H       -1.9090200    -1.0432980     1.6949070
  H       -1.2193110    -2.3035120     0.6420620
  H       -2.4442120     1.3312090    -0.1521090
units angstrom
no_reorient  #important for SAPT in psi4, default
symmetry c1  #important for SAPT in psi4, default
}

set PROPERTIES_ORIGIN ["COM"]
properties('MP2/aug-cc-pvtz', properties = ['dipole'])
--------------------------------------------------------------------------

    Molecular point group: c1
  Charge       = 0
  Multiplicity = 1
  Basis Set: AUG-CC-PVTZ
    Blend: AUG-CC-PVTZ
  Basis Set: (AUG-CC-PVTZ AUX)
    Blend: AUG-CC-PVTZ-JKFIT

    Orbital Energies [Eh]
    ---------------------

    Doubly Occupied:

       1A    -20.547802     2A    -20.511769     3A    -15.610856
       4A    -11.359104     5A    -11.299898     6A    -11.284226
       7A    -11.237024     8A    -11.233614     9A    -11.225708
      10A     -1.373207    11A     -1.330767    12A     -1.242048
      13A     -1.084512    14A     -1.033041    15A     -0.953819
      16A     -0.905946    17A     -0.833569    18A     -0.803295
      19A     -0.738328    20A     -0.680148    21A     -0.654611
      22A     -0.634115    23A     -0.619755    24A     -0.590219
      25A     -0.575602    26A     -0.566086    27A     -0.559147
      28A     -0.552911    29A     -0.540427    30A     -0.528617
      31A     -0.501212    32A     -0.500614    33A     -0.488654
      34A     -0.443514    35A     -0.425623    36A     -0.397901

  @DF-RHF Final Energy:  -439.11623879153439

   => Energetics <=

    Nuclear Repulsion Energy =            485.1804552783686404
    One-Electron Energy =               -1560.8580110287964544
    Two-Electron Energy =                 636.5613169588935989
    Total Energy =                       -439.1162387915343288
  Basis Set: (AUG-CC-PVTZ AUX)
    Blend: AUG-CC-PVTZ-RI
    Molecular point group: c1

    Geometry (in Angstrom), charge = 0, multiplicity = 1:

       Center              X                  Y                   Z               Mass
    ------------   -----------------  -----------------  -----------------  -----------------
         O           -2.875845484239     0.470463449187    -0.303259384863    15.994914619570
         O           -0.522279484239     1.546392449187     0.056722615137    15.994914619570
         N            0.656037515761    -0.365673550813    -0.334182384863    14.003074004430
         C            1.964531515761     0.235847449187    -0.093851384863    12.000000000000
         C           -1.801431484239    -0.441508550813    -0.368027384863    12.000000000000
         C            3.006566515761    -0.498134550813    -0.922307384863    12.000000000000
         C            2.292786515761     0.240031449187     1.395071615137    12.000000000000
         C           -0.491040584239     0.234615349187    -0.213214584863    12.000000000000
         C           -1.972630484239    -1.503194550813     0.712092615137    12.000000000000
         H            1.878605515761     1.270142449187    -0.438351384863     1.007825032230
         H            0.603312515761    -1.373251550813    -0.434729384863     1.007825032230
         H           -1.787105484239    -0.919913550813    -1.360009384863     1.007825032230
         H            3.990236515761    -0.041869550813    -0.786364384863     1.007825032230
         H            3.081051515761    -1.546100550813    -0.609847384863     1.007825032230
         H            2.752696515761    -0.467903550813    -1.984298384863     1.007825032230
         H            1.522298515761     0.785208449187     1.944884615137     1.007825032230
         H            3.257186515761     0.723616449187     1.578057615137     1.007825032230
         H            2.343682515761    -0.784288550813     1.777627615137     1.007825032230
         H           -2.959270484239    -1.958383550813     0.608934615137     1.007825032230
         H           -1.909233484239    -1.034334550813     1.696751615137     1.007825032230
         H           -1.219524484239    -2.294548550813     0.643906615137     1.007825032230
         H           -2.444425484239     1.340172449187    -0.150264384863     1.007825032230

  Basis Set: AUG-CC-PVTZ
    Blend: AUG-CC-PVTZ
  Basis Set: (AUG-CC-PVTZ AUX)
    Blend: AUG-CC-PVTZ-JKFIT
	 Reference Energy          =    -439.1162387915343857 [Eh]
	 Singles Energy            =      -0.0000000000000000 [Eh]
	 Same-Spin Energy          =      -0.4481682710666176 [Eh]
	 Opposite-Spin Energy      =      -1.4676570148465053 [Eh]
	 Correlation Energy        =      -1.9158252859131228 [Eh]
	 Total Energy              =    -441.0320640774475009 [Eh]

	 ================> DF-SCS-MP2 Energies <==================
	-----------------------------------------------------------
	 SCS Same-Spin Scale       =       0.3333333333333333 [-]
	 SCS Opposite-Spin Scale   =       1.2000000000000000 [-]
	 SCS Same-Spin Energy      =      -0.1493894236888725 [Eh]
	 SCS Opposite-Spin Energy  =      -1.7611884178158064 [Eh]
	 SCS Correlation Energy    =      -1.9105778415046788 [Eh]
	 SCS Total Energy          =    -441.0268166330390613 [Eh]
	-----------------------------------------------------------

  Dipole Moment: [D]
     X:     3.7856      Y:    -3.6113      Z:    -0.2159     Total:     5.2362

*** Psi4 exiting successfully. Buy a developer a beer!
