                               Psi4 1.3.2 release

  ==> Input File <==

--------------------------------------------------------------------------
#psi4
#
memory 32 gb

molecule  {
0 1
  O       -2.8756320     0.4615000    -0.3051040
  O       -0.5220660     1.5374290     0.0548780
  N        0.6562510    -0.3746370    -0.3360270
  C        1.9647450     0.2268840    -0.0956960
  C       -1.8012180    -0.4504720    -0.3698720
  C        3.0067800    -0.5070980    -0.9241520
  C        2.2930000     0.2310680     1.3932270
  C       -0.4931590     0.3235730    -0.1949090
  C       -1.9716884    -1.4930879     0.7287805
  H        1.8788190     1.2611790    -0.4401960
  H        0.6035260    -1.3822150    -0.4365740
  H       -1.7846904    -0.9115919    -1.3699721
  H        3.9904500    -0.0508330    -0.7882090
  H        3.0812650    -1.5550640    -0.6116920
  H        2.7529100    -0.4768670    -1.9861430
  H        1.5225120     0.7762450     1.9430400
  H        3.2574000     0.7146530     1.5762130
  H        2.3438960    -0.7932520     1.7757830
  H       -2.9590570    -1.9673470     0.6070900
  H       -1.9090200    -1.0432980     1.6949070
  H       -1.2193110    -2.3035120     0.6420620
  H       -2.4442120     1.3312090    -0.1521090
units angstrom
no_reorient  #important for SAPT in psi4, default
symmetry c1  #important for SAPT in psi4, default
}

set PROPERTIES_ORIGIN ["COM"]
properties('MP2/aug-cc-pvtz', properties = ['dipole'])
--------------------------------------------------------------------------

    Molecular point group: c1
  Charge       = 0
  Multiplicity = 1
  Basis Set: AUG-CC-PVTZ
    Blend: AUG-CC-PVTZ
  Basis Set: (AUG-CC-PVTZ AUX)
    Blend: AUG-CC-PVTZ-JKFIT

    Orbital Energies [Eh]
    ---------------------

    Doubly Occupied:

       1A    -20.547128     2A    -20.532203     3A    -15.595509
       4A    -11.357788     5A    -11.297297     6A    -11.277147
       7A    -11.232243     8A    -11.231171     9A    -11.222254
      10A     -1.397117    11A     -1.345736    12A     -1.247821
      13A     -1.072140    14A     -1.023554    15A     -0.949809
      16A     -0.895327    17A     -0.822489    18A     -0.794957
      19A     -0.736296    20A     -0.678826    21A     -0.649802
      22A     -0.631912    23A     -0.628777    24A     -0.597183
      25A     -0.582387    26A     -0.566721    27A     -0.555035
      28A     -0.546033    29A     -0.540479    30A     -0.530777
      31A     -0.512129    32A     -0.502702    33A     -0.491306
      34A     -0.445724    35A     -0.433573    36A     -0.401362

  @DF-RHF Final Energy:  -439.13699980628473

   => Energetics <=

    Nuclear Repulsion Energy =            485.4417401299172070
    One-Electron Energy =               -1561.4120517222399940
    Two-Electron Energy =                 636.8333117860380526
    Total Energy =                       -439.1369998062847344
  Basis Set: (AUG-CC-PVTZ AUX)
    Blend: AUG-CC-PVTZ-RI
    Molecular point group: c1

    Geometry (in Angstrom), charge = 0, multiplicity = 1:

       Center              X                  Y                   Z               Mass
    ------------   -----------------  -----------------  -----------------  -----------------
         O           -2.875715648466     0.459621549935    -0.306737870445    15.994914619570
         O           -0.522149648466     1.535550549935     0.053244129555    15.994914619570
         N            0.656167351534    -0.376515450065    -0.337660870445    14.003074004430
         C            1.964661351534     0.225005549935    -0.097329870445    12.000000000000
         C           -1.801301648466    -0.452350450065    -0.371505870445    12.000000000000
         C            3.006696351534    -0.508976450065    -0.925785870445    12.000000000000
         C            2.292916351534     0.229189549935     1.391593129555    12.000000000000
         C           -0.493242648466     0.321694549935    -0.196542870445    12.000000000000
         C           -1.971772048466    -1.494966350065     0.727146629555    12.000000000000
         H            1.878735351534     1.259300549935    -0.441829870445     1.007825032230
         H            0.603442351534    -1.384093450065    -0.438207870445     1.007825032230
         H           -1.784774048466    -0.913470350065    -1.371605970445     1.007825032230
         H            3.990366351534    -0.052711450065    -0.789842870445     1.007825032230
         H            3.081181351534    -1.556942450065    -0.613325870445     1.007825032230
         H            2.752826351534    -0.478745450065    -1.987776870445     1.007825032230
         H            1.522428351534     0.774366549935     1.941406129555     1.007825032230
         H            3.257316351534     0.712774549935     1.574579129555     1.007825032230
         H            2.343812351534    -0.795130450065     1.774149129555     1.007825032230
         H           -2.959140648466    -1.969225450065     0.605456129555     1.007825032230
         H           -1.909103648466    -1.045176450065     1.693273129555     1.007825032230
         H           -1.219394648466    -2.305390450065     0.640428129555     1.007825032230
         H           -2.444295648466     1.329330549935    -0.153742870445     1.007825032230

  Basis Set: AUG-CC-PVTZ
    Blend: AUG-CC-PVTZ
  Basis Set: (AUG-CC-PVTZ AUX)
    Blend: AUG-CC-PVTZ-JKFIT
	 Reference Energy          =    -439.1369998062847344 [Eh]
	 Singles Energy            =      -0.0000000000000000 [Eh]
	 Same-Spin Energy          =      -0.4460480236534551 [Eh]
	 Opposite-Spin Energy      =      -1.4636742142892964 [Eh]
	 Correlation Energy        =      -1.9097222379427516 [Eh]
	 Total Energy              =    -441.0467220442274652 [Eh]

	 ================> DF-SCS-MP2 Energies <==================
	-----------------------------------------------------------
	 SCS Same-Spin Scale       =       0.3333333333333333 [-]
	 SCS Opposite-Spin Scale   =       1.2000000000000000 [-]
	 SCS Same-Spin Energy      =      -0.1486826745511517 [Eh]
	 SCS Opposite-Spin Energy  =      -1.7564090571471558 [Eh]
	 SCS Correlation Energy    =      -1.9050917316983074 [Eh]
	 SCS Total Energy          =    -441.0420915379830262 [Eh]
	-----------------------------------------------------------

  Dipole Moment: [D]
     X:     3.4547      Y:    -3.0540      Z:    -0.1378     Total:     4.6131

*** Psi4 exiting successfully. Buy a developer a beer!
