                               Psi4 1.3.2 release

  ==> Input File <==

--------------------------------------------------------------------------
#psi4
#
memory 32 gb

molecule  {
0 1
  O       -2.8756320     0.4615000    -0.3051040
  O       -0.5220660     1.5374290     0.0548780
  N        0.6562510    -0.3746370    -0.3360270
  C        1.9647450     0.2268840    -0.0956960
  C       -1.8012180    -0.4504720    -0.3698720
  C        3.0067800    -0.5070980    -0.9241520
  C        2.2930000     0.2310680     1.3932270
  C       -0.6631598     0.4268401    -0.1740373
  C       -1.9724170    -1.5121580     0.7102480
  H        1.8788190     1.2611790    -0.4401960
  H        0.6035260    -1.3822150    -0.4365740
  H       -1.7868920    -0.9288770    -1.3618540
  H        3.9904500    -0.0508330    -0.7882090
  H        3.0812650    -1.5550640    -0.6116920
  H        2.7529100    -0.4768670    -1.9861430
  H        1.5225120     0.7762450     1.9430400
  H        3.2574000     0.7146530     1.5762130
  H        2.3438960    -0.7932520     1.7757830
  H       -2.9590570    -1.9673470     0.6070900
  H       -1.9090200    -1.0432980     1.6949070
  H       -1.2193110    -2.3035120     0.6420620
  H       -2.4442120     1.3312090    -0.1521090
units angstrom
no_reorient  #important for SAPT in psi4, default
symmetry c1  #important for SAPT in psi4, default
}

set PROPERTIES_ORIGIN ["COM"]
properties('MP2/aug-cc-pvtz', properties = ['dipole'])
--------------------------------------------------------------------------

    Molecular point group: c1
  Charge       = 0
  Multiplicity = 1
  Basis Set: AUG-CC-PVTZ
    Blend: AUG-CC-PVTZ
  Basis Set: (AUG-CC-PVTZ AUX)
    Blend: AUG-CC-PVTZ-JKFIT

    Orbital Energies [Eh]
    ---------------------

    Doubly Occupied:

       1A    -20.570506     2A    -20.558991     3A    -15.555688
       4A    -11.369724     5A    -11.305111     6A    -11.259357
       7A    -11.238814     8A    -11.218354     9A    -11.209781
      10A     -1.473315    11A     -1.372283    12A     -1.191951
      13A     -1.064307    14A     -1.011953    15A     -0.935966
      16A     -0.914164    17A     -0.802689    18A     -0.773167
      19A     -0.745133    20A     -0.695033    21A     -0.672578
      22A     -0.624768    23A     -0.622627    24A     -0.603264
      25A     -0.581565    26A     -0.572216    27A     -0.553676
      28A     -0.544962    29A     -0.542160    30A     -0.540272
      31A     -0.524496    32A     -0.495229    33A     -0.481422
      34A     -0.457429    35A     -0.437782    36A     -0.372170

  @DF-RHF Final Energy:  -439.09590286843115

   => Energetics <=

    Nuclear Repulsion Energy =            485.3098195717944350
    One-Electron Energy =               -1561.0256390268596078
    Two-Electron Energy =                 636.6199165866340763
    Total Energy =                       -439.0959028684311534
  Basis Set: (AUG-CC-PVTZ AUX)
    Blend: AUG-CC-PVTZ-RI
    Molecular point group: c1

    Geometry (in Angstrom), charge = 0, multiplicity = 1:

       Center              X                  Y                   Z               Mass
    ------------   -----------------  -----------------  -----------------  -----------------
         O           -2.860070677742     0.452047298773    -0.307014403700    15.994914619570
         O           -0.506504677742     1.527976298773     0.052967596300    15.994914619570
         N            0.671812322258    -0.384089701227    -0.337937403700    14.003074004430
         C            1.980306322258     0.217431298773    -0.097606403700    12.000000000000
         C           -1.785656677742    -0.459924701227    -0.371782403700    12.000000000000
         C            3.022341322258    -0.516550701227    -0.926062403700    12.000000000000
         C            2.308561322258     0.221615298773     1.391316596300    12.000000000000
         C           -0.647598477742     0.417387398773    -0.175947703700    12.000000000000
         C           -1.956855677742    -1.521610701227     0.708337596300    12.000000000000
         H            1.894380322258     1.251726298773    -0.442106403700     1.007825032230
         H            0.619087322258    -1.391667701227    -0.438484403700     1.007825032230
         H           -1.771330677742    -0.938329701227    -1.363764403700     1.007825032230
         H            4.006011322258    -0.060285701227    -0.790119403700     1.007825032230
         H            3.096826322258    -1.564516701227    -0.613602403700     1.007825032230
         H            2.768471322258    -0.486319701227    -1.988053403700     1.007825032230
         H            1.538073322258     0.766792298773     1.941129596300     1.007825032230
         H            3.272961322258     0.705200298773     1.574302596300     1.007825032230
         H            2.359457322258    -0.802704701227     1.773872596300     1.007825032230
         H           -2.943495677742    -1.976799701227     0.605179596300     1.007825032230
         H           -1.893458677742    -1.052750701227     1.692996596300     1.007825032230
         H           -1.203749677742    -2.312964701227     0.640151596300     1.007825032230
         H           -2.428650677742     1.321756298773    -0.154019403700     1.007825032230

  Basis Set: AUG-CC-PVTZ
    Blend: AUG-CC-PVTZ
  Basis Set: (AUG-CC-PVTZ AUX)
    Blend: AUG-CC-PVTZ-JKFIT
	 Reference Energy          =    -439.0959028684311534 [Eh]
	 Singles Energy            =      -0.0000000000000000 [Eh]
	 Same-Spin Energy          =      -0.4456249532068902 [Eh]
	 Opposite-Spin Energy      =      -1.4635619394063260 [Eh]
	 Correlation Energy        =      -1.9091868926132161 [Eh]
	 Total Energy              =    -441.0050897610443599 [Eh]

	 ================> DF-SCS-MP2 Energies <==================
	-----------------------------------------------------------
	 SCS Same-Spin Scale       =       0.3333333333333333 [-]
	 SCS Opposite-Spin Scale   =       1.2000000000000000 [-]
	 SCS Same-Spin Energy      =      -0.1485416510689634 [Eh]
	 SCS Opposite-Spin Energy  =      -1.7562743272875911 [Eh]
	 SCS Correlation Energy    =      -1.9048159783565546 [Eh]
	 SCS Total Energy          =    -441.0007188467877199 [Eh]
	-----------------------------------------------------------

  Dipole Moment: [D]
     X:     1.7653      Y:    -2.2514      Z:     0.0020     Total:     2.8610

*** Psi4 exiting successfully. Buy a developer a beer!
