                               Psi4 1.3.2 release

  ==> Input File <==

--------------------------------------------------------------------------
#psi4
#
memory 32 gb

molecule  {
0 1
  O       -2.8756320     0.4615000    -0.3051040
  O       -0.5220660     1.5374290     0.0548780
  N        0.6562510    -0.3746370    -0.3360270
  C        1.9647450     0.2268840    -0.0956960
  C       -1.8012180    -0.4504720    -0.3698720
  C        3.0067800    -0.5070980    -0.9241520
  C        2.2930000     0.2310680     1.3932270
  C       -0.4931590     0.3235730    -0.1949090
  C       -1.9836492    -1.5818139     0.7811133
  H        1.8788190     1.2611790    -0.4401960
  H        0.6035260    -1.3822150    -0.4365740
  H       -1.7868920    -0.9288770    -1.3618540
  H        3.9904500    -0.0508330    -0.7882090
  H        3.0812650    -1.5550640    -0.6116920
  H        2.7529100    -0.4768670    -1.9861430
  H        1.5225120     0.7762450     1.9430400
  H        3.2574000     0.7146530     1.5762130
  H        2.3438960    -0.7932520     1.7757830
  H       -2.9590570    -1.9673470     0.6070900
  H       -1.9090200    -1.0432980     1.6949070
  H       -1.2193110    -2.3035120     0.6420620
  H       -2.4442120     1.3312090    -0.1521090
units angstrom
no_reorient  #important for SAPT in psi4, default
symmetry c1  #important for SAPT in psi4, default
}

set PROPERTIES_ORIGIN ["COM"]
properties('MP2/aug-cc-pvtz', properties = ['dipole'])
--------------------------------------------------------------------------

    Molecular point group: c1
  Charge       = 0
  Multiplicity = 1
  Basis Set: AUG-CC-PVTZ
    Blend: AUG-CC-PVTZ
  Basis Set: (AUG-CC-PVTZ AUX)
    Blend: AUG-CC-PVTZ-JKFIT

    Orbital Energies [Eh]
    ---------------------

    Doubly Occupied:

       1A    -20.548267     2A    -20.531840     3A    -15.595395
       4A    -11.357848     5A    -11.300681     6A    -11.277089
       7A    -11.232211     8A    -11.228868     9A    -11.222235
      10A     -1.396325    11A     -1.344743    12A     -1.247497
      13A     -1.069567    14A     -1.013217    15A     -0.949787
      16A     -0.900149    17A     -0.822535    18A     -0.794831
      19A     -0.733912    20A     -0.677342    21A     -0.647579
      22A     -0.629543    23A     -0.628467    24A     -0.599006
      25A     -0.580267    26A     -0.570490    27A     -0.557040
      28A     -0.552972    29A     -0.545688    30A     -0.531547
      31A     -0.511994    32A     -0.502508    33A     -0.491429
      34A     -0.437438    35A     -0.430176    36A     -0.400492

  @DF-RHF Final Energy:  -439.13073502128282

   => Energetics <=

    Nuclear Repulsion Energy =            483.6657996246395896
    One-Electron Energy =               -1557.8711209292791864
    Two-Electron Energy =                 635.0745862833568935
    Total Energy =                       -439.1307350212828169
  Basis Set: (AUG-CC-PVTZ AUX)
    Blend: AUG-CC-PVTZ-RI
    Molecular point group: c1

    Geometry (in Angstrom), charge = 0, multiplicity = 1:

       Center              X                  Y                   Z               Mass
    ------------   -----------------  -----------------  -----------------  -----------------
         O           -2.874603868151     0.467876139521    -0.311590664422    15.994914619570
         O           -0.521037868151     1.543805139521     0.048391335578    15.994914619570
         N            0.657279131849    -0.368260860479    -0.342513664422    14.003074004430
         C            1.965773131849     0.233260139521    -0.102182664422    12.000000000000
         C           -1.800189868151    -0.444095860479    -0.376358664422    12.000000000000
         C            3.007808131849    -0.500721860479    -0.930638664422    12.000000000000
         C            2.294028131849     0.237444139521     1.386740335578    12.000000000000
         C           -0.492130868151     0.329949139521    -0.201395664422    12.000000000000
         C           -1.982621068151    -1.575437760479     0.774626635578    12.000000000000
         H            1.879847131849     1.267555139521    -0.446682664422     1.007825032230
         H            0.604554131849    -1.375838860479    -0.443060664422     1.007825032230
         H           -1.785863868151    -0.922500860479    -1.368340664422     1.007825032230
         H            3.991478131849    -0.044456860479    -0.794695664422     1.007825032230
         H            3.082293131849    -1.548687860479    -0.618178664422     1.007825032230
         H            2.753938131849    -0.470490860479    -1.992629664422     1.007825032230
         H            1.523540131849     0.782621139521     1.936553335578     1.007825032230
         H            3.258428131849     0.721029139521     1.569726335578     1.007825032230
         H            2.344924131849    -0.786875860479     1.769296335578     1.007825032230
         H           -2.958028868151    -1.960970860479     0.600603335578     1.007825032230
         H           -1.907991868151    -1.036921860479     1.688420335578     1.007825032230
         H           -1.218282868151    -2.297135860479     0.635575335578     1.007825032230
         H           -2.443183868151     1.337585139521    -0.158595664422     1.007825032230

  Basis Set: AUG-CC-PVTZ
    Blend: AUG-CC-PVTZ
  Basis Set: (AUG-CC-PVTZ AUX)
    Blend: AUG-CC-PVTZ-JKFIT
	 Reference Energy          =    -439.1307350212828169 [Eh]
	 Singles Energy            =      -0.0000000000000000 [Eh]
	 Same-Spin Energy          =      -0.4457591597262262 [Eh]
	 Opposite-Spin Energy      =      -1.4637490645779747 [Eh]
	 Correlation Energy        =      -1.9095082243042010 [Eh]
	 Total Energy              =    -441.0402432455870212 [Eh]

	 ================> DF-SCS-MP2 Energies <==================
	-----------------------------------------------------------
	 SCS Same-Spin Scale       =       0.3333333333333333 [-]
	 SCS Opposite-Spin Scale   =       1.2000000000000000 [-]
	 SCS Same-Spin Energy      =      -0.1485863865754087 [Eh]
	 SCS Opposite-Spin Energy  =      -1.7564988774935697 [Eh]
	 SCS Correlation Energy    =      -1.9050852640689784 [Eh]
	 SCS Total Energy          =    -441.0358202853518037 [Eh]
	-----------------------------------------------------------

  Dipole Moment: [D]
     X:     3.4394      Y:    -3.0238      Z:    -0.1799     Total:     4.5831

*** Psi4 exiting successfully. Buy a developer a beer!
