                               Psi4 1.3.2 release

  ==> Input File <==

--------------------------------------------------------------------------
#psi4
#
memory 32 gb

molecule  {
0 1
  O       -2.8756320     0.4615000    -0.3051040
  O       -0.5220660     1.5374290     0.0548780
  N        0.6898538    -0.4236794    -0.3840754
  C        1.9647450     0.2268840    -0.0956960
  C       -1.8012180    -0.4504720    -0.3698720
  C        2.9487255    -0.5539925    -0.9518036
  C        2.2930000     0.2310680     1.3932270
  C       -0.4931590     0.3235730    -0.1949090
  C       -1.9724170    -1.5121580     0.7102480
  H        1.8788190     1.2611790    -0.4401960
  H        0.6035260    -1.3822150    -0.4365740
  H       -1.7868920    -0.9288770    -1.3618540
  H        3.9904500    -0.0508330    -0.7882090
  H        3.0812650    -1.5550640    -0.6116920
  H        2.7529100    -0.4768670    -1.9861430
  H        1.5225120     0.7762450     1.9430400
  H        3.2574000     0.7146530     1.5762130
  H        2.3438960    -0.7932520     1.7757830
  H       -2.9590570    -1.9673470     0.6070900
  H       -1.9090200    -1.0432980     1.6949070
  H       -1.2193110    -2.3035120     0.6420620
  H       -2.4442120     1.3312090    -0.1521090
units angstrom
no_reorient  #important for SAPT in psi4, default
symmetry c1  #important for SAPT in psi4, default
}

set PROPERTIES_ORIGIN ["COM"]
properties('MP2/aug-cc-pvtz', properties = ['dipole'])
--------------------------------------------------------------------------

    Molecular point group: c1
  Charge       = 0
  Multiplicity = 1
  Basis Set: AUG-CC-PVTZ
    Blend: AUG-CC-PVTZ
  Basis Set: (AUG-CC-PVTZ AUX)
    Blend: AUG-CC-PVTZ-JKFIT

    Orbital Energies [Eh]
    ---------------------

    Doubly Occupied:

       1A    -20.549680     2A    -20.544065     3A    -15.588288
       4A    -11.366586     5A    -11.298708     6A    -11.275600
       7A    -11.232011     8A    -11.228869     9A    -11.222652
      10A     -1.399451    11A     -1.347691    12A     -1.243970
      13A     -1.067130    14A     -1.023363    15A     -0.950283
      16A     -0.894132    17A     -0.824867    18A     -0.790679
      19A     -0.735032    20A     -0.680284    21A     -0.651249
      22A     -0.637005    23A     -0.633175    24A     -0.598370
      25A     -0.582361    26A     -0.568177    27A     -0.556938
      28A     -0.543296    29A     -0.531340    30A     -0.526135
      31A     -0.512167    32A     -0.507406    33A     -0.493018
      34A     -0.446507    35A     -0.436085    36A     -0.400559

  @DF-RHF Final Energy:  -439.12340639502213

   => Energetics <=

    Nuclear Repulsion Energy =            484.5728788956869266
    One-Electron Energy =               -1559.6183141640315171
    Two-Electron Energy =                 635.9220288733224606
    Total Energy =                       -439.1234063950221298
  Basis Set: (AUG-CC-PVTZ AUX)
    Blend: AUG-CC-PVTZ-RI
    Molecular point group: c1

    Geometry (in Angstrom), charge = 0, multiplicity = 1:

       Center              X                  Y                   Z               Mass
    ------------   -----------------  -----------------  -----------------  -----------------
         O           -2.873907233165     0.471031170057    -0.297440366123    15.994914619570
         O           -0.520341233165     1.546960170057     0.062541633877    15.994914619570
         N            0.691578566835    -0.414148229943    -0.376411766123    14.003074004430
         C            1.966469766835     0.236415170057    -0.088032366123    12.000000000000
         C           -1.799493233165    -0.440940829943    -0.362208366123    12.000000000000
         C            2.950450266835    -0.544461329943    -0.944139966123    12.000000000000
         C            2.294724766835     0.240599170057     1.400890633877    12.000000000000
         C           -0.491434233165     0.333104170057    -0.187245366123    12.000000000000
         C           -1.970692233165    -1.502626829943     0.717911633877    12.000000000000
         H            1.880543766835     1.270710170057    -0.432532366123     1.007825032230
         H            0.605250766835    -1.372683829943    -0.428910366123     1.007825032230
         H           -1.785167233165    -0.919345829943    -1.354190366123     1.007825032230
         H            3.992174766835    -0.041301829943    -0.780545366123     1.007825032230
         H            3.082989766835    -1.545532829943    -0.604028366123     1.007825032230
         H            2.754634766835    -0.467335829943    -1.978479366123     1.007825032230
         H            1.524236766835     0.785776170057     1.950703633877     1.007825032230
         H            3.259124766835     0.724184170057     1.583876633877     1.007825032230
         H            2.345620766835    -0.783720829943     1.783446633877     1.007825032230
         H           -2.957332233165    -1.957815829943     0.614753633877     1.007825032230
         H           -1.907295233165    -1.033766829943     1.702570633877     1.007825032230
         H           -1.217586233165    -2.293980829943     0.649725633877     1.007825032230
         H           -2.442487233165     1.340740170057    -0.144445366123     1.007825032230

  Basis Set: AUG-CC-PVTZ
    Blend: AUG-CC-PVTZ
  Basis Set: (AUG-CC-PVTZ AUX)
    Blend: AUG-CC-PVTZ-JKFIT
	 Reference Energy          =    -439.1234063950221298 [Eh]
	 Singles Energy            =      -0.0000000000000000 [Eh]
	 Same-Spin Energy          =      -0.4461939596239229 [Eh]
	 Opposite-Spin Energy      =      -1.4646795736819009 [Eh]
	 Correlation Energy        =      -1.9108735333058240 [Eh]
	 Total Energy              =    -441.0342799283279760 [Eh]

	 ================> DF-SCS-MP2 Energies <==================
	-----------------------------------------------------------
	 SCS Same-Spin Scale       =       0.3333333333333333 [-]
	 SCS Opposite-Spin Scale   =       1.2000000000000000 [-]
	 SCS Same-Spin Energy      =      -0.1487313198746410 [Eh]
	 SCS Opposite-Spin Energy  =      -1.7576154884182811 [Eh]
	 SCS Correlation Energy    =      -1.9063468082929220 [Eh]
	 SCS Total Energy          =    -441.0297532033150674 [Eh]
	-----------------------------------------------------------

  Dipole Moment: [D]
     X:     3.1320      Y:    -2.8716      Z:    -0.0019     Total:     4.2491

*** Psi4 exiting successfully. Buy a developer a beer!
