                               Psi4 1.3.2 release

  ==> Input File <==

--------------------------------------------------------------------------
#psi4
#
memory 32 gb

molecule  {
0 1
  O       -2.8756320     0.4615000    -0.3051040
  O       -0.5220660     1.5374290     0.0548780
  N        0.6624228    -0.3648108    -0.3338807
  C        1.9647450     0.2268840    -0.0956960
  C       -1.8080927    -0.4392698    -0.3675249
  C        3.0067800    -0.5070980    -0.9241520
  C        2.2930000     0.2310680     1.3932270
  C       -0.4931590     0.3235730    -0.1949090
  C       -1.9724170    -1.5121580     0.7102480
  H        1.8788190     1.2611790    -0.4401960
  H        0.6035260    -1.3822150    -0.4365740
  H       -1.7868920    -0.9288770    -1.3618540
  H        3.9904500    -0.0508330    -0.7882090
  H        3.0812650    -1.5550640    -0.6116920
  H        2.7529100    -0.4768670    -1.9861430
  H        1.5225120     0.7762450     1.9430400
  H        3.2574000     0.7146530     1.5762130
  H        2.3438960    -0.7932520     1.7757830
  H       -2.9590570    -1.9673470     0.6070900
  H       -1.9090200    -1.0432980     1.6949070
  H       -1.2193110    -2.3035120     0.6420620
  H       -2.4442120     1.3312090    -0.1521090
units angstrom
no_reorient  #important for SAPT in psi4, default
symmetry c1  #important for SAPT in psi4, default
}

set PROPERTIES_ORIGIN ["COM"]
properties('MP2/aug-cc-pvtz', properties = ['dipole'])
--------------------------------------------------------------------------

    Molecular point group: c1
  Charge       = 0
  Multiplicity = 1
  Basis Set: AUG-CC-PVTZ
    Blend: AUG-CC-PVTZ
  Basis Set: (AUG-CC-PVTZ AUX)
    Blend: AUG-CC-PVTZ-JKFIT

    Orbital Energies [Eh]
    ---------------------

    Doubly Occupied:

       1A    -20.549577     2A    -20.531782     3A    -15.596264
       4A    -11.357909     5A    -11.298267     6A    -11.276354
       7A    -11.232148     8A    -11.230748     9A    -11.221846
      10A     -1.398879    11A     -1.350469    12A     -1.248311
      13A     -1.071550    14A     -1.022691    15A     -0.949693
      16A     -0.895073    17A     -0.823338    18A     -0.792475
      19A     -0.738908    20A     -0.679347    21A     -0.650185
      22A     -0.632098    23A     -0.629314    24A     -0.596307
      25A     -0.583193    26A     -0.567479    27A     -0.554981
      28A     -0.548305    29A     -0.540664    30A     -0.530364
      31A     -0.513231    32A     -0.502768    33A     -0.491209
      34A     -0.443657    35A     -0.434220    36A     -0.400309

  @DF-RHF Final Energy:  -439.13742328866380

   => Energetics <=

    Nuclear Repulsion Energy =            485.5179759715452406
    One-Electron Energy =               -1561.5429702958253984
    Two-Electron Energy =                 636.8875710356164745
    Total Energy =                       -439.1374232886637401
  Basis Set: (AUG-CC-PVTZ AUX)
    Blend: AUG-CC-PVTZ-RI
    Molecular point group: c1

    Geometry (in Angstrom), charge = 0, multiplicity = 1:

       Center              X                  Y                   Z               Mass
    ------------   -----------------  -----------------  -----------------  -----------------
         O           -2.875661990620     0.459425036549    -0.305547978994    15.994914619570
         O           -0.522095990620     1.535354036549     0.054434021006    15.994914619570
         N            0.662392809380    -0.366885763451    -0.334324678994    14.003074004430
         C            1.964715009380     0.224809036549    -0.096139978994    12.000000000000
         C           -1.808122690620    -0.441344763451    -0.367968878994    12.000000000000
         C            3.006750009380    -0.509172963451    -0.924595978994    12.000000000000
         C            2.292970009380     0.228993036549     1.392783021006    12.000000000000
         C           -0.493188990620     0.321498036549    -0.195352978994    12.000000000000
         C           -1.972446990620    -1.514232963451     0.709804021006    12.000000000000
         H            1.878789009380     1.259104036549    -0.440639978994     1.007825032230
         H            0.603496009380    -1.384289963451    -0.437017978994     1.007825032230
         H           -1.786921990620    -0.930951963451    -1.362297978994     1.007825032230
         H            3.990420009380    -0.052907963451    -0.788652978994     1.007825032230
         H            3.081235009380    -1.557138963451    -0.612135978994     1.007825032230
         H            2.752880009380    -0.478941963451    -1.986586978994     1.007825032230
         H            1.522482009380     0.774170036549     1.942596021006     1.007825032230
         H            3.257370009380     0.712578036549     1.575769021006     1.007825032230
         H            2.343866009380    -0.795326963451     1.775339021006     1.007825032230
         H           -2.959086990620    -1.969421963451     0.606646021006     1.007825032230
         H           -1.909049990620    -1.045372963451     1.694463021006     1.007825032230
         H           -1.219340990620    -2.305586963451     0.641618021006     1.007825032230
         H           -2.444241990620     1.329134036549    -0.152552978994     1.007825032230

  Basis Set: AUG-CC-PVTZ
    Blend: AUG-CC-PVTZ
  Basis Set: (AUG-CC-PVTZ AUX)
    Blend: AUG-CC-PVTZ-JKFIT
	 Reference Energy          =    -439.1374232886637969 [Eh]
	 Singles Energy            =      -0.0000000000000000 [Eh]
	 Same-Spin Energy          =      -0.4461352054388331 [Eh]
	 Opposite-Spin Energy      =      -1.4635649969224720 [Eh]
	 Correlation Energy        =      -1.9097002023613050 [Eh]
	 Total Energy              =    -441.0471234910251042 [Eh]

	 ================> DF-SCS-MP2 Energies <==================
	-----------------------------------------------------------
	 SCS Same-Spin Scale       =       0.3333333333333333 [-]
	 SCS Opposite-Spin Scale   =       1.2000000000000000 [-]
	 SCS Same-Spin Energy      =      -0.1487117351462777 [Eh]
	 SCS Opposite-Spin Energy  =      -1.7562779963069663 [Eh]
	 SCS Correlation Energy    =      -1.9049897314532440 [Eh]
	 SCS Total Energy          =    -441.0424130201170669 [Eh]
	-----------------------------------------------------------

  Dipole Moment: [D]
     X:     3.4055      Y:    -3.0402      Z:    -0.1501     Total:     4.5676

*** Psi4 exiting successfully. Buy a developer a beer!
