                               Psi4 1.3.2 release

  ==> Input File <==

--------------------------------------------------------------------------
#psi4
#
memory 32 gb

molecule  {
0 1
  O       -2.8756320     0.4615000    -0.3051040
  O       -0.5220660     1.5374290     0.0548780
  N        0.6562510    -0.3746370    -0.3360270
  C        1.9647450     0.2268840    -0.0956960
  C       -1.8012180    -0.4504720    -0.3698720
  C        3.0067800    -0.5070980    -0.9241520
  C        2.2930000     0.2310680     1.3932270
  C       -0.4775790     0.2785460    -0.1305216
  C       -1.9023932    -1.4892600     0.7409063
  H        1.8788190     1.2611790    -0.4401960
  H        0.6035260    -1.3822150    -0.4365740
  H       -1.7868920    -0.9288770    -1.3618540
  H        3.9904500    -0.0508330    -0.7882090
  H        3.0812650    -1.5550640    -0.6116920
  H        2.7529100    -0.4768670    -1.9861430
  H        1.5225120     0.7762450     1.9430400
  H        3.2574000     0.7146530     1.5762130
  H        2.3438960    -0.7932520     1.7757830
  H       -2.9590570    -1.9673470     0.6070900
  H       -1.9090200    -1.0432980     1.6949070
  H       -1.2193110    -2.3035120     0.6420620
  H       -2.4442120     1.3312090    -0.1521090
units angstrom
no_reorient  #important for SAPT in psi4, default
symmetry c1  #important for SAPT in psi4, default
}

set PROPERTIES_ORIGIN ["COM"]
properties('MP2/aug-cc-pvtz', properties = ['dipole'])
--------------------------------------------------------------------------

    Molecular point group: c1
  Charge       = 0
  Multiplicity = 1
  Basis Set: AUG-CC-PVTZ
    Blend: AUG-CC-PVTZ
  Basis Set: (AUG-CC-PVTZ AUX)
    Blend: AUG-CC-PVTZ-JKFIT

    Orbital Energies [Eh]
    ---------------------

    Doubly Occupied:

       1A    -20.548418     2A    -20.524018     3A    -15.601905
       4A    -11.356466     5A    -11.298887     6A    -11.279999
       7A    -11.234641     8A    -11.231235     9A    -11.224470
      10A     -1.383945    11A     -1.340289    12A     -1.252466
      13A     -1.077702    14A     -1.027704    15A     -0.952236
      16A     -0.893189    17A     -0.826827    18A     -0.800264
      19A     -0.736010    20A     -0.680639    21A     -0.652556
      22A     -0.633026    23A     -0.624829    24A     -0.597101
      25A     -0.584026    26A     -0.563082    27A     -0.557674
      28A     -0.551466    29A     -0.537788    30A     -0.530615
      31A     -0.504641    32A     -0.501575    33A     -0.488146
      34A     -0.447139    35A     -0.425467    36A     -0.402832

  @DF-RHF Final Energy:  -439.12332598529827

   => Energetics <=

    Nuclear Repulsion Energy =            485.9546597693314993
    One-Electron Energy =               -1562.4094260828458118
    Two-Electron Energy =                 637.3314403282159901
    Total Energy =                       -439.1233259852982656
  Basis Set: (AUG-CC-PVTZ AUX)
    Blend: AUG-CC-PVTZ-RI
    Molecular point group: c1

    Geometry (in Angstrom), charge = 0, multiplicity = 1:

       Center              X                  Y                   Z               Mass
    ------------   -----------------  -----------------  -----------------  -----------------
         O           -2.883467938417     0.463525672947    -0.313804064032    15.994914619570
         O           -0.529901938417     1.539454672947     0.046177935968    15.994914619570
         N            0.648415061583    -0.372611327053    -0.344727064032    14.003074004430
         C            1.956909061583     0.228909672947    -0.104396064032    12.000000000000
         C           -1.809053938417    -0.448446327053    -0.378572064032    12.000000000000
         C            2.998944061583    -0.505072327053    -0.932852064032    12.000000000000
         C            2.285164061583     0.233093672947     1.384526935968    12.000000000000
         C           -0.485414938417     0.280571672947    -0.139221664032    12.000000000000
         C           -1.910229138417    -1.487234327053     0.732206235968    12.000000000000
         H            1.870983061583     1.263204672947    -0.448896064032     1.007825032230
         H            0.595690061583    -1.380189327053    -0.445274064032     1.007825032230
         H           -1.794727938417    -0.926851327053    -1.370554064032     1.007825032230
         H            3.982614061583    -0.048807327053    -0.796909064032     1.007825032230
         H            3.073429061583    -1.553038327053    -0.620392064032     1.007825032230
         H            2.745074061583    -0.474841327053    -1.994843064032     1.007825032230
         H            1.514676061583     0.778270672947     1.934339935968     1.007825032230
         H            3.249564061583     0.716678672947     1.567512935968     1.007825032230
         H            2.336060061583    -0.791226327053     1.767082935968     1.007825032230
         H           -2.966892938417    -1.965321327053     0.598389935968     1.007825032230
         H           -1.916855938417    -1.041272327053     1.686206935968     1.007825032230
         H           -1.227146938417    -2.301486327053     0.633361935968     1.007825032230
         H           -2.452047938417     1.333234672947    -0.160809064032     1.007825032230

  Basis Set: AUG-CC-PVTZ
    Blend: AUG-CC-PVTZ
  Basis Set: (AUG-CC-PVTZ AUX)
    Blend: AUG-CC-PVTZ-JKFIT
	 Reference Energy          =    -439.1233259852982656 [Eh]
	 Singles Energy            =      -0.0000000000000000 [Eh]
	 Same-Spin Energy          =      -0.4471805462774943 [Eh]
	 Opposite-Spin Energy      =      -1.4658193631442105 [Eh]
	 Correlation Energy        =      -1.9129999094217047 [Eh]
	 Total Energy              =    -441.0363258947199938 [Eh]

	 ================> DF-SCS-MP2 Energies <==================
	-----------------------------------------------------------
	 SCS Same-Spin Scale       =       0.3333333333333333 [-]
	 SCS Opposite-Spin Scale   =       1.2000000000000000 [-]
	 SCS Same-Spin Energy      =      -0.1490601820924981 [Eh]
	 SCS Opposite-Spin Energy  =      -1.7589832357730526 [Eh]
	 SCS Correlation Energy    =      -1.9080434178655508 [Eh]
	 SCS Total Energy          =    -441.0313694031638079 [Eh]
	-----------------------------------------------------------

  Dipole Moment: [D]
     X:     3.6763      Y:    -3.2533      Z:    -0.1447     Total:     4.9112

*** Psi4 exiting successfully. Buy a developer a beer!
