                               Psi4 1.4a3.dev225

  ==> Input File <==

--------------------------------------------------------------------------
#psi4
#
memory 32 gb

molecule  {
0 1
  O        2.9110620    -0.5703060    -0.4523520
  O        0.5539390    -1.5540470     0.1662040
  N       -0.5943370     0.3369340    -0.3930300
  C       -1.9154150    -0.2304160    -0.1256420
  C        1.8655780     0.3788930    -0.3941620
  C       -2.9513150     0.5221750    -0.9483650
  C       -2.2232580    -0.2086170     1.3682650
  C        0.5443190    -0.3662470    -0.1910430
  C        2.1004162     1.3495398     0.7350076
  H       -1.8664900    -1.2716350    -0.4595930
  H       -0.5281980     1.3181660    -0.6377390
  H        1.8317100     0.9202690    -1.3505730
  H       -3.9433690     0.0896600    -0.7945050
  H       -2.9965010     1.5743390    -0.6446630
  H       -2.7149650     0.4749500    -2.0147890
  H       -1.4563020    -0.7629570     1.9136170
  H       -3.1950150    -0.6709470     1.5682930
  H       -2.2473660     0.8219210     1.7368640
  H        3.0888910     1.8183940     0.6312910
  H        2.0827360     0.8223960     1.7004970
  H        1.3487660     2.1553220     0.7756360
  H        2.4958040    -1.4028240    -0.1381920
units angstrom
no_reorient  #important for SAPT in psi4, default
symmetry c1  #important for SAPT in psi4, default
}

set PROPERTIES_ORIGIN ["COM"]
properties('MP2/aug-cc-pvtz', properties = ['dipole'])
--------------------------------------------------------------------------

    Molecular point group: c1
  Charge       = 0
  Multiplicity = 1
  Basis Set: AUG-CC-PVTZ
    Blend: AUG-CC-PVTZ
  Basis Set: (AUG-CC-PVTZ AUX)
    Blend: AUG-CC-PVTZ-JKFIT

    Orbital Energies [Eh]
    ---------------------

    Doubly Occupied:

       1A    -20.548581     2A    -20.531820     3A    -15.596265
       4A    -11.358172     5A    -11.296872     6A    -11.278152
       7A    -11.233530     8A    -11.230604     9A    -11.221091
      10A     -1.396026    11A     -1.345995    12A     -1.246876
      13A     -1.072095    14A     -1.025973    15A     -0.949611
      16A     -0.892676    17A     -0.821257    18A     -0.794765
      19A     -0.737957    20A     -0.677991    21A     -0.643097
      22A     -0.636106    23A     -0.629151    24A     -0.595226
      25A     -0.584653    26A     -0.569891    27A     -0.555139
      28A     -0.546997    29A     -0.535001    30A     -0.527184
      31A     -0.511422    32A     -0.502172    33A     -0.491361
      34A     -0.447893    35A     -0.432097    36A     -0.401554

  @DF-RHF Final Energy:  -439.13720079591451

   => Energetics <=

    Nuclear Repulsion Energy =            485.4162918300115734
    One-Electron Energy =               -1561.3764854280891541
    Two-Electron Energy =                 636.8229928021631849
    Total Energy =                       -439.1372007959145094
  Basis Set: (AUG-CC-PVTZ AUX)
    Blend: AUG-CC-PVTZ-RI
    Molecular point group: c1

    Geometry (in Angstrom), charge = 0, multiplicity = 1:

       Center              X                  Y                   Z               Mass
    ------------   -----------------  -----------------  -----------------  -----------------
         O            2.850189418584    -0.524662031258    -0.433680139230    15.994914619570
         O            0.493066418584    -1.508403031258     0.184875860770    15.994914619570
         N           -0.655209581416     0.382577968742    -0.374358139230    14.003074004430
         C           -1.976287581416    -0.184772031258    -0.106970139230    12.000000000000
         C            1.804705418584     0.424536968742    -0.375490139230    12.000000000000
         C           -3.012187581416     0.567818968742    -0.929693139230    12.000000000000
         C           -2.284130581416    -0.162973031258     1.386936860770    12.000000000000
         C            0.483446418584    -0.320603031258    -0.172371139230    12.000000000000
         C            2.039543618584     1.395183768742     0.753679460770    12.000000000000
         H           -1.927362581416    -1.225991031258    -0.440921139230     1.007825032230
         H           -0.589070581416     1.363809968742    -0.619067139230     1.007825032230
         H            1.770837418584     0.965912968742    -1.331901139230     1.007825032230
         H           -4.004241581416     0.135303968742    -0.775833139230     1.007825032230
         H           -3.057373581416     1.619982968742    -0.625991139230     1.007825032230
         H           -2.775837581416     0.520593968742    -1.996117139230     1.007825032230
         H           -1.517174581416    -0.717313031258     1.932288860770     1.007825032230
         H           -3.255887581416    -0.625303031258     1.586964860770     1.007825032230
         H           -2.308238581416     0.867564968742     1.755535860770     1.007825032230
         H            3.028018418584     1.864037968742     0.649962860770     1.007825032230
         H            2.021863418584     0.868039968742     1.719168860770     1.007825032230
         H            1.287893418584     2.200965968742     0.794307860770     1.007825032230
         H            2.434931418584    -1.357180031258    -0.119520139230     1.007825032230

  Basis Set: AUG-CC-PVTZ
    Blend: AUG-CC-PVTZ
  Basis Set: (AUG-CC-PVTZ AUX)
    Blend: AUG-CC-PVTZ-JKFIT
	 Reference Energy          =    -439.1372007959145094 [Eh]
	 Singles Energy            =      -0.0000000000000000 [Eh]
	 Same-Spin Energy          =      -0.4460785010236302 [Eh]
	 Opposite-Spin Energy      =      -1.4639049656773508 [Eh]
	 Correlation Energy        =      -1.9099834667009810 [Eh]
	 Total Energy              =    -441.0471842626154739 [Eh]

	 ================> DF-SCS-MP2 Energies <==================
	-----------------------------------------------------------
	 SCS Same-Spin Scale       =       0.3333333333333333 [-]
	 SCS Opposite-Spin Scale   =       1.2000000000000000 [-]
	 SCS Same-Spin Energy      =      -0.1486928336745434 [Eh]
	 SCS Opposite-Spin Energy  =      -1.7566859588128210 [Eh]
	 SCS Correlation Energy    =      -1.9053787924873644 [Eh]
	 SCS Total Energy          =    -441.0425795884018498 [Eh]
	-----------------------------------------------------------

  Dipole Moment: [D]
     X:    -3.3903      Y:     3.1317      Z:    -0.1763     Total:     4.6188

*** Psi4 exiting successfully. Buy a developer a beer!
