                               Psi4 1.3.2 release

  ==> Input File <==

--------------------------------------------------------------------------
#psi4
#
memory 32 gb

molecule  {
0 1
  O       -2.8756320     0.4615000    -0.3051040
  O       -0.5220660     1.5374290     0.0548780
  N        0.6562510    -0.3746370    -0.3360270
  C        1.9647450     0.2268840    -0.0956960
  C       -1.8012180    -0.4504720    -0.3698720
  C        3.0067800    -0.5070980    -0.9241520
  C        2.2930000     0.2310680     1.3932270
  C       -0.4931590     0.3235730    -0.1949090
  C       -1.9724170    -1.5121580     0.7102480
  H        1.8788190     1.2611790    -0.4401960
  H        0.6035260    -1.3822150    -0.4365740
  H       -1.7855913    -0.9723127    -1.4519187
  H        3.9904500    -0.0508330    -0.7882090
  H        3.0812650    -1.5550640    -0.6116920
  H        2.7529100    -0.4768670    -1.9861430
  H        1.5225120     0.7762450     1.9430400
  H        3.2574000     0.7146530     1.5762130
  H        2.3438960    -0.7932520     1.7757830
  H       -2.9590570    -1.9673470     0.6070900
  H       -1.9090200    -1.0432980     1.6949070
  H       -1.2193110    -2.3035120     0.6420620
  H       -2.4442120     1.3312090    -0.1521090
units angstrom
no_reorient  #important for SAPT in psi4, default
symmetry c1  #important for SAPT in psi4, default
}

set PROPERTIES_ORIGIN ["COM"]
properties('MP2/aug-cc-pvtz', properties = ['dipole'])
--------------------------------------------------------------------------

    Molecular point group: c1
  Charge       = 0
  Multiplicity = 1
  Basis Set: AUG-CC-PVTZ
    Blend: AUG-CC-PVTZ
  Basis Set: (AUG-CC-PVTZ AUX)
    Blend: AUG-CC-PVTZ-JKFIT

    Orbital Energies [Eh]
    ---------------------

    Doubly Occupied:

       1A    -20.550146     2A    -20.533200     3A    -15.595530
       4A    -11.359406     5A    -11.309222     6A    -11.277208
       7A    -11.232221     8A    -11.231961     9A    -11.222316
      10A     -1.398071    11A     -1.347269    12A     -1.247951
      13A     -1.071545    14A     -1.022221    15A     -0.949834
      16A     -0.893256    17A     -0.819819    18A     -0.793005
      19A     -0.734893    20A     -0.675959    21A     -0.644386
      22A     -0.632606    23A     -0.628321    24A     -0.597015
      25A     -0.582520    26A     -0.567866    27A     -0.555118
      28A     -0.548412    29A     -0.539085    30A     -0.527704
      31A     -0.512500    32A     -0.502894    33A     -0.491643
      34A     -0.442065    35A     -0.433912    36A     -0.400977

  @DF-RHF Final Energy:  -439.13113027167418

   => Energetics <=

    Nuclear Repulsion Energy =            484.8236018542600618
    One-Electron Energy =               -1560.1653528070403354
    Two-Electron Energy =                 636.2106206811062066
    Total Energy =                       -439.1311302716741238
  Basis Set: (AUG-CC-PVTZ AUX)
    Blend: AUG-CC-PVTZ-RI
    Molecular point group: c1

    Geometry (in Angstrom), charge = 0, multiplicity = 1:

       Center              X                  Y                   Z               Mass
    ------------   -----------------  -----------------  -----------------  -----------------
         O           -2.875642028748     0.461833975762    -0.304411475856    15.994914619570
         O           -0.522076028748     1.537762975762     0.055570524144    15.994914619570
         N            0.656240971252    -0.374303024238    -0.335334475856    14.003074004430
         C            1.964734971252     0.227217975762    -0.095003475856    12.000000000000
         C           -1.801228028748    -0.450138024238    -0.369179475856    12.000000000000
         C            3.006769971252    -0.506764024238    -0.923459475856    12.000000000000
         C            2.292989971252     0.231401975762     1.393919524144    12.000000000000
         C           -0.493169028748     0.323906975762    -0.194216475856    12.000000000000
         C           -1.972427028748    -1.511824024238     0.710940524144    12.000000000000
         H            1.878808971252     1.261512975762    -0.439503475856     1.007825032230
         H            0.603515971252    -1.381881024238    -0.435881475856     1.007825032230
         H           -1.785601328748    -0.971978724238    -1.451226175856     1.007825032230
         H            3.990439971252    -0.050499024238    -0.787516475856     1.007825032230
         H            3.081254971252    -1.554730024238    -0.610999475856     1.007825032230
         H            2.752899971252    -0.476533024238    -1.985450475856     1.007825032230
         H            1.522501971252     0.776578975762     1.943732524144     1.007825032230
         H            3.257389971252     0.714986975762     1.576905524144     1.007825032230
         H            2.343885971252    -0.792918024238     1.776475524144     1.007825032230
         H           -2.959067028748    -1.967013024238     0.607782524144     1.007825032230
         H           -1.909030028748    -1.042964024238     1.695599524144     1.007825032230
         H           -1.219321028748    -2.303178024238     0.642754524144     1.007825032230
         H           -2.444222028748     1.331542975762    -0.151416475856     1.007825032230

  Basis Set: AUG-CC-PVTZ
    Blend: AUG-CC-PVTZ
  Basis Set: (AUG-CC-PVTZ AUX)
    Blend: AUG-CC-PVTZ-JKFIT
	 Reference Energy          =    -439.1311302716741807 [Eh]
	 Singles Energy            =      -0.0000000000000000 [Eh]
	 Same-Spin Energy          =      -0.4462002316636295 [Eh]
	 Opposite-Spin Energy      =      -1.4645499211231581 [Eh]
	 Correlation Energy        =      -1.9107501527867876 [Eh]
	 Total Energy              =    -441.0418804244609419 [Eh]

	 ================> DF-SCS-MP2 Energies <==================
	-----------------------------------------------------------
	 SCS Same-Spin Scale       =       0.3333333333333333 [-]
	 SCS Opposite-Spin Scale   =       1.2000000000000000 [-]
	 SCS Same-Spin Energy      =      -0.1487334105545432 [Eh]
	 SCS Opposite-Spin Energy  =      -1.7574599053477897 [Eh]
	 SCS Correlation Energy    =      -1.9061933159023330 [Eh]
	 SCS Total Energy          =    -441.0373235875765090 [Eh]
	-----------------------------------------------------------

  Dipole Moment: [D]
     X:     3.4325      Y:    -3.0140      Z:    -0.0799     Total:     4.5687

*** Psi4 exiting successfully. Buy a developer a beer!
