                               Psi4 1.3.2 release

  ==> Input File <==

--------------------------------------------------------------------------
#psi4
#
memory 32 gb

molecule  {
0 1
  O       -2.8756320     0.4615000    -0.3051040
  O       -0.5436887     1.5368005     0.0544929
  N        0.6562510    -0.3746370    -0.3360270
  C        1.9647450     0.2268840    -0.0956960
  C       -1.8148651    -0.4279612    -0.3653947
  C        3.0067800    -0.5070980    -0.9241520
  C        2.2930000     0.2310680     1.3932270
  C       -0.4931590     0.3235730    -0.1949090
  C       -1.9724170    -1.5121580     0.7102480
  H        1.8788190     1.2611790    -0.4401960
  H        0.6035260    -1.3822150    -0.4365740
  H       -1.7868920    -0.9288770    -1.3618540
  H        3.9904500    -0.0508330    -0.7882090
  H        3.0812650    -1.5550640    -0.6116920
  H        2.7529100    -0.4768670    -1.9861430
  H        1.5225120     0.7762450     1.9430400
  H        3.2574000     0.7146530     1.5762130
  H        2.3438960    -0.7932520     1.7757830
  H       -2.9590570    -1.9673470     0.6070900
  H       -1.9090200    -1.0432980     1.6949070
  H       -1.2193110    -2.3035120     0.6420620
  H       -2.4442120     1.3312090    -0.1521090
units angstrom
no_reorient  #important for SAPT in psi4, default
symmetry c1  #important for SAPT in psi4, default
}

set PROPERTIES_ORIGIN ["COM"]
properties('MP2/aug-cc-pvtz', properties = ['dipole'])
--------------------------------------------------------------------------

    Molecular point group: c1
  Charge       = 0
  Multiplicity = 1
  Basis Set: AUG-CC-PVTZ
    Blend: AUG-CC-PVTZ
  Basis Set: (AUG-CC-PVTZ AUX)
    Blend: AUG-CC-PVTZ-JKFIT

    Orbital Energies [Eh]
    ---------------------

    Doubly Occupied:

       1A    -20.549125     2A    -20.532404     3A    -15.596698
       4A    -11.357838     5A    -11.296737     6A    -11.278011
       7A    -11.232728     8A    -11.229572     9A    -11.222718
      10A     -1.400545    11A     -1.352700    12A     -1.248966
      13A     -1.071461    14A     -1.020676    15A     -0.950315
      16A     -0.893489    17A     -0.822724    18A     -0.795239
      19A     -0.740151    20A     -0.679368    21A     -0.649993
      22A     -0.632778    23A     -0.629522    24A     -0.597559
      25A     -0.584120    26A     -0.566752    27A     -0.555658
      28A     -0.547687    29A     -0.541363    30A     -0.530318
      31A     -0.512464    32A     -0.503271    33A     -0.492272
      34A     -0.440745    35A     -0.433082    36A     -0.401894

  @DF-RHF Final Energy:  -439.13747159296906

   => Energetics <=

    Nuclear Repulsion Energy =            485.4733629615109862
    One-Electron Energy =               -1561.4397809534711996
    Two-Electron Energy =                 636.8289463989912065
    Total Energy =                       -439.1374715929690637
  Basis Set: (AUG-CC-PVTZ AUX)
    Blend: AUG-CC-PVTZ-RI
    Molecular point group: c1

    Geometry (in Angstrom), charge = 0, multiplicity = 1:

       Center              X                  Y                   Z               Mass
    ------------   -----------------  -----------------  -----------------  -----------------
         O           -2.871744620261     0.459516166215    -0.305466724411    15.994914619570
         O           -0.539801320261     1.534816666215     0.054130175589    15.994914619570
         N            0.660138379739    -0.376620833785    -0.336389724411    14.003074004430
         C            1.968632379739     0.224900166215    -0.096058724411    12.000000000000
         C           -1.810977720261    -0.429945033785    -0.365757424411    12.000000000000
         C            3.010667379739    -0.509081833785    -0.924514724411    12.000000000000
         C            2.296887379739     0.229084166215     1.392864275589    12.000000000000
         C           -0.489271620261     0.321589166215    -0.195271724411    12.000000000000
         C           -1.968529620261    -1.514141833785     0.709885275589    12.000000000000
         H            1.882706379739     1.259195166215    -0.440558724411     1.007825032230
         H            0.607413379739    -1.384198833785    -0.436936724411     1.007825032230
         H           -1.783004620261    -0.930860833785    -1.362216724411     1.007825032230
         H            3.994337379739    -0.052816833785    -0.788571724411     1.007825032230
         H            3.085152379739    -1.557047833785    -0.612054724411     1.007825032230
         H            2.756797379739    -0.478850833785    -1.986505724411     1.007825032230
         H            1.526399379739     0.774261166215     1.942677275589     1.007825032230
         H            3.261287379739     0.712669166215     1.575850275589     1.007825032230
         H            2.347783379739    -0.795235833785     1.775420275589     1.007825032230
         H           -2.955169620261    -1.969330833785     0.606727275589     1.007825032230
         H           -1.905132620261    -1.045281833785     1.694544275589     1.007825032230
         H           -1.215423620261    -2.305495833785     0.641699275589     1.007825032230
         H           -2.440324620261     1.329225166215    -0.152471724411     1.007825032230

  Basis Set: AUG-CC-PVTZ
    Blend: AUG-CC-PVTZ
  Basis Set: (AUG-CC-PVTZ AUX)
    Blend: AUG-CC-PVTZ-JKFIT
	 Reference Energy          =    -439.1374715929690637 [Eh]
	 Singles Energy            =      -0.0000000000000000 [Eh]
	 Same-Spin Energy          =      -0.4460132868112588 [Eh]
	 Opposite-Spin Energy      =      -1.4632130801930430 [Eh]
	 Correlation Energy        =      -1.9092263670043019 [Eh]
	 Total Energy              =    -441.0466979599733577 [Eh]

	 ================> DF-SCS-MP2 Energies <==================
	-----------------------------------------------------------
	 SCS Same-Spin Scale       =       0.3333333333333333 [-]
	 SCS Opposite-Spin Scale   =       1.2000000000000000 [-]
	 SCS Same-Spin Energy      =      -0.1486710956037529 [Eh]
	 SCS Opposite-Spin Energy  =      -1.7558556962316516 [Eh]
	 SCS Correlation Energy    =      -1.9045267918354045 [Eh]
	 SCS Total Energy          =    -441.0419983848044581 [Eh]
	-----------------------------------------------------------

  Dipole Moment: [D]
     X:     3.4817      Y:    -2.9845      Z:    -0.1412     Total:     4.5879

*** Psi4 exiting successfully. Buy a developer a beer!
