                               Psi4 1.3.2 release

  ==> Input File <==

--------------------------------------------------------------------------
#psi4
#
memory 32 gb

molecule  {
0 1
  O       -2.8756320     0.4615000    -0.3051040
  O       -0.5220660     1.5374290     0.0548780
  N        0.6562510    -0.3746370    -0.3360270
  C        1.9647450     0.2268840    -0.0956960
  C       -1.7854984    -0.4318812    -0.3661945
  C        3.0067800    -0.5070980    -0.9241520
  C        2.2930000     0.2310680     1.3932270
  C       -0.4931590     0.3235730    -0.1949090
  C       -1.9724170    -1.5121580     0.7102480
  H        1.8788190     1.2611790    -0.4401960
  H        0.6035260    -1.3822150    -0.4365740
  H       -1.7868920    -0.9288770    -1.3618540
  H        3.9904500    -0.0508330    -0.7882090
  H        3.0812650    -1.5550640    -0.6116920
  H        2.7529100    -0.4768670    -1.9861430
  H        1.5225120     0.7762450     1.9430400
  H        3.2574000     0.7146530     1.5762130
  H        2.3438960    -0.7932520     1.7757830
  H       -2.9590570    -1.9673470     0.6070900
  H       -1.9090200    -1.0432980     1.6949070
  H       -1.2193110    -2.3035120     0.6420620
  H       -2.4289027     1.3234740    -0.1522701
units angstrom
no_reorient  #important for SAPT in psi4, default
symmetry c1  #important for SAPT in psi4, default
}

set PROPERTIES_ORIGIN ["COM"]
properties('MP2/aug-cc-pvtz', properties = ['dipole'])
--------------------------------------------------------------------------

    Molecular point group: c1
  Charge       = 0
  Multiplicity = 1
  Basis Set: AUG-CC-PVTZ
    Blend: AUG-CC-PVTZ
  Basis Set: (AUG-CC-PVTZ AUX)
    Blend: AUG-CC-PVTZ-JKFIT

    Orbital Energies [Eh]
    ---------------------

    Doubly Occupied:

       1A    -20.548619     2A    -20.533141     3A    -15.596200
       4A    -11.358621     5A    -11.297205     6A    -11.277662
       7A    -11.232564     8A    -11.231473     9A    -11.222547
      10A     -1.399478    11A     -1.346935    12A     -1.248806
      13A     -1.073157    14A     -1.022188    15A     -0.950132
      16A     -0.898532    17A     -0.822199    18A     -0.794986
      19A     -0.738796    20A     -0.678749    21A     -0.648752
      22A     -0.632684    23A     -0.629139    24A     -0.597347
      25A     -0.581204    26A     -0.565341    27A     -0.555443
      28A     -0.548954    29A     -0.539766    30A     -0.529449
      31A     -0.515459    32A     -0.503150    33A     -0.492088
      34A     -0.442307    35A     -0.438010    36A     -0.401810

  @DF-RHF Final Energy:  -439.13679170188385

   => Energetics <=

    Nuclear Repulsion Energy =            485.6860194028967612
    One-Electron Energy =               -1561.8598300295084300
    Two-Electron Energy =                 637.0370189247277040
    Total Energy =                       -439.1367917018839080
  Basis Set: (AUG-CC-PVTZ AUX)
    Blend: AUG-CC-PVTZ-RI
    Molecular point group: c1

    Geometry (in Angstrom), charge = 0, multiplicity = 1:

       Center              X                  Y                   Z               Mass
    ------------   -----------------  -----------------  -----------------  -----------------
         O           -2.877188647552     0.459857772299    -0.305439260899    15.994914619570
         O           -0.523622647552     1.535786772299     0.054542739101    15.994914619570
         N            0.654694352448    -0.376279227701    -0.336362260899    14.003074004430
         C            1.963188352448     0.225241772299    -0.096031260899    12.000000000000
         C           -1.787055047552    -0.433523427701    -0.366529760899    12.000000000000
         C            3.005223352448    -0.508740227701    -0.924487260899    12.000000000000
         C            2.291443352448     0.229425772299     1.392891739101    12.000000000000
         C           -0.494715647552     0.321930772299    -0.195244260899    12.000000000000
         C           -1.973973647552    -1.513800227701     0.709912739101    12.000000000000
         H            1.877262352448     1.259536772299    -0.440531260899     1.007825032230
         H            0.601969352448    -1.383857227701    -0.436909260899     1.007825032230
         H           -1.788448647552    -0.930519227701    -1.362189260899     1.007825032230
         H            3.988893352448    -0.052475227701    -0.788544260899     1.007825032230
         H            3.079708352448    -1.556706227701    -0.612027260899     1.007825032230
         H            2.751353352448    -0.478509227701    -1.986478260899     1.007825032230
         H            1.520955352448     0.774602772299     1.942704739101     1.007825032230
         H            3.255843352448     0.713010772299     1.575877739101     1.007825032230
         H            2.342339352448    -0.794894227701     1.775447739101     1.007825032230
         H           -2.960613647552    -1.968989227701     0.606754739101     1.007825032230
         H           -1.910576647552    -1.044940227701     1.694571739101     1.007825032230
         H           -1.220867647552    -2.305154227701     0.641726739101     1.007825032230
         H           -2.430459347552     1.321831772299    -0.152605360899     1.007825032230

  Basis Set: AUG-CC-PVTZ
    Blend: AUG-CC-PVTZ
  Basis Set: (AUG-CC-PVTZ AUX)
    Blend: AUG-CC-PVTZ-JKFIT
	 Reference Energy          =    -439.1367917018838511 [Eh]
	 Singles Energy            =      -0.0000000000000000 [Eh]
	 Same-Spin Energy          =      -0.4461950812200730 [Eh]
	 Opposite-Spin Energy      =      -1.4639026013847780 [Eh]
	 Correlation Energy        =      -1.9100976826048510 [Eh]
	 Total Energy              =    -441.0468893844886793 [Eh]

	 ================> DF-SCS-MP2 Energies <==================
	-----------------------------------------------------------
	 SCS Same-Spin Scale       =       0.3333333333333333 [-]
	 SCS Opposite-Spin Scale   =       1.2000000000000000 [-]
	 SCS Same-Spin Energy      =      -0.1487316937400243 [Eh]
	 SCS Opposite-Spin Energy  =      -1.7566831216617336 [Eh]
	 SCS Correlation Energy    =      -1.9054148154017578 [Eh]
	 SCS Total Energy          =    -441.0422065172855923 [Eh]
	-----------------------------------------------------------

  Dipole Moment: [D]
     X:     3.4812      Y:    -3.0596      Z:    -0.1435     Total:     4.6368

*** Psi4 exiting successfully. Buy a developer a beer!
