                               Psi4 1.3.2 release

  ==> Input File <==

--------------------------------------------------------------------------
#psi4
#
memory 32 gb

molecule  {
0 1
  O       -2.8756320     0.4615000    -0.3051040
  O       -0.5220660     1.5374290     0.0548780
  N        0.6562510    -0.3746370    -0.3360270
  C        1.9647450     0.2268840    -0.0956960
  C       -1.8012180    -0.4504720    -0.3698720
  C        3.0067800    -0.5070980    -0.9241520
  C        2.2930000     0.2310680     1.3932270
  C       -0.4545445     0.3827900    -0.1911392
  C       -1.9724170    -1.5121580     0.7102480
  H        1.8788190     1.2611790    -0.4401960
  H        0.6564976    -1.3832594    -0.4398726
  H       -1.7868920    -0.9288770    -1.3618540
  H        3.9904500    -0.0508330    -0.7882090
  H        3.0812650    -1.5550640    -0.6116920
  H        2.7529100    -0.4768670    -1.9861430
  H        1.5225120     0.7762450     1.9430400
  H        3.2574000     0.7146530     1.5762130
  H        2.3438960    -0.7932520     1.7757830
  H       -2.9590570    -1.9673470     0.6070900
  H       -1.9090200    -1.0432980     1.6949070
  H       -1.2193110    -2.3035120     0.6420620
  H       -2.4442120     1.3312090    -0.1521090
units angstrom
no_reorient  #important for SAPT in psi4, default
symmetry c1  #important for SAPT in psi4, default
}

set PROPERTIES_ORIGIN ["COM"]
properties('MP2/aug-cc-pvtz', properties = ['dipole'])
--------------------------------------------------------------------------

    Molecular point group: c1
  Charge       = 0
  Multiplicity = 1
  Basis Set: AUG-CC-PVTZ
    Blend: AUG-CC-PVTZ
  Basis Set: (AUG-CC-PVTZ AUX)
    Blend: AUG-CC-PVTZ-JKFIT

    Orbital Energies [Eh]
    ---------------------

    Doubly Occupied:

       1A    -20.545225     2A    -20.541575     3A    -15.591584
       4A    -11.355356     5A    -11.292459     6A    -11.274640
       7A    -11.231939     8A    -11.226102     9A    -11.222382
      10A     -1.428397    11A     -1.348594    12A     -1.252261
      13A     -1.066545    14A     -1.016221    15A     -0.950085
      16A     -0.882977    17A     -0.817670    18A     -0.801848
      19A     -0.732387    20A     -0.682695    21A     -0.649508
      22A     -0.639570    23A     -0.628489    24A     -0.604968
      25A     -0.579860    26A     -0.563836    27A     -0.556133
      28A     -0.547520    29A     -0.543716    30A     -0.530948
      31A     -0.518896    32A     -0.506607    33A     -0.493294
      34A     -0.441867    35A     -0.423021    36A     -0.404056

  @DF-RHF Final Energy:  -439.13464727573938

   => Energetics <=

    Nuclear Repulsion Energy =            485.5915449283898511
    One-Electron Energy =               -1561.6659265676198629
    Two-Electron Energy =                 636.9397343634906292
    Total Energy =                       -439.1346472757394395
  Basis Set: (AUG-CC-PVTZ AUX)
    Blend: AUG-CC-PVTZ-RI
    Molecular point group: c1

    Geometry (in Angstrom), charge = 0, multiplicity = 1:

       Center              X                  Y                   Z               Mass
    ------------   -----------------  -----------------  -----------------  -----------------
         O           -2.879573915445     0.456087538849    -0.305423589387    15.994914619570
         O           -0.526007915445     1.532016538849     0.054558410613    15.994914619570
         N            0.652309084555    -0.380049461151    -0.336346589387    14.003074004430
         C            1.960803084555     0.221471538849    -0.096015589387    12.000000000000
         C           -1.805159915445    -0.455884461151    -0.370191589387    12.000000000000
         C            3.002838084555    -0.512510461151    -0.924471589387    12.000000000000
         C            2.289058084555     0.225655538849     1.392907410613    12.000000000000
         C           -0.458486415445     0.377377538849    -0.191458789387    12.000000000000
         C           -1.976358915445    -1.517570461151     0.709928410613    12.000000000000
         H            1.874877084555     1.255766538849    -0.440515589387     1.007825032230
         H            0.652555684555    -1.388671861151    -0.440192189387     1.007825032230
         H           -1.790833915445    -0.934289461151    -1.362173589387     1.007825032230
         H            3.986508084555    -0.056245461151    -0.788528589387     1.007825032230
         H            3.077323084555    -1.560476461151    -0.612011589387     1.007825032230
         H            2.748968084555    -0.482279461151    -1.986462589387     1.007825032230
         H            1.518570084555     0.770832538849     1.942720410613     1.007825032230
         H            3.253458084555     0.709240538849     1.575893410613     1.007825032230
         H            2.339954084555    -0.798664461151     1.775463410613     1.007825032230
         H           -2.962998915445    -1.972759461151     0.606770410613     1.007825032230
         H           -1.912961915445    -1.048710461151     1.694587410613     1.007825032230
         H           -1.223252915445    -2.308924461151     0.641742410613     1.007825032230
         H           -2.448153915445     1.325796538849    -0.152428589387     1.007825032230

  Basis Set: AUG-CC-PVTZ
    Blend: AUG-CC-PVTZ
  Basis Set: (AUG-CC-PVTZ AUX)
    Blend: AUG-CC-PVTZ-JKFIT
	 Reference Energy          =    -439.1346472757393826 [Eh]
	 Singles Energy            =      -0.0000000000000000 [Eh]
	 Same-Spin Energy          =      -0.4448696696048694 [Eh]
	 Opposite-Spin Energy      =      -1.4614029259549914 [Eh]
	 Correlation Energy        =      -1.9062725955598609 [Eh]
	 Total Energy              =    -441.0409198712992520 [Eh]

	 ================> DF-SCS-MP2 Energies <==================
	-----------------------------------------------------------
	 SCS Same-Spin Scale       =       0.3333333333333333 [-]
	 SCS Opposite-Spin Scale   =       1.2000000000000000 [-]
	 SCS Same-Spin Energy      =      -0.1482898898682898 [Eh]
	 SCS Opposite-Spin Energy  =      -1.7536835111459896 [Eh]
	 SCS Correlation Energy    =      -1.9019734010142795 [Eh]
	 SCS Total Energy          =    -441.0366206767536710 [Eh]
	-----------------------------------------------------------

  Dipole Moment: [D]
     X:     3.5809      Y:    -2.7392      Z:    -0.1218     Total:     4.5101

*** Psi4 exiting successfully. Buy a developer a beer!
