                               Psi4 1.3.2 release

  ==> Input File <==

--------------------------------------------------------------------------
#psi4
#
memory 32 gb

molecule  {
0 1
  O       -2.8756320     0.4615000    -0.3051040
  O       -0.5220660     1.5374290     0.0548780
  N        0.6562510    -0.3746370    -0.3360270
  C        1.9647450     0.2268840    -0.0956960
  C       -1.7525302    -0.4403965    -0.3509412
  C        3.0067800    -0.5070980    -0.9241520
  C        2.2930000     0.2310680     1.3932270
  C       -0.4931590     0.3235730    -0.1949090
  C       -1.9724170    -1.5121580     0.7102480
  H        1.8788190     1.2611790    -0.4401960
  H        0.6035260    -1.3822150    -0.4365740
  H       -1.7868920    -0.9288770    -1.3618540
  H        3.9904500    -0.0508330    -0.7882090
  H        3.0812650    -1.5550640    -0.6116920
  H        2.7529100    -0.4768670    -1.9861430
  H        1.5225120     0.7762450     1.9430400
  H        3.2574000     0.7146530     1.5762130
  H        2.3438960    -0.7932520     1.7757830
  H       -2.9511448    -1.9896661     0.6369341
  H       -1.9090200    -1.0432980     1.6949070
  H       -1.2193110    -2.3035120     0.6420620
  H       -2.4442120     1.3312090    -0.1521090
units angstrom
no_reorient  #important for SAPT in psi4, default
symmetry c1  #important for SAPT in psi4, default
}

set PROPERTIES_ORIGIN ["COM"]
properties('MP2/aug-cc-pvtz', properties = ['dipole'])
--------------------------------------------------------------------------

    Molecular point group: c1
  Charge       = 0
  Multiplicity = 1
  Basis Set: AUG-CC-PVTZ
    Blend: AUG-CC-PVTZ
  Basis Set: (AUG-CC-PVTZ AUX)
    Blend: AUG-CC-PVTZ-JKFIT

    Orbital Energies [Eh]
    ---------------------

    Doubly Occupied:

       1A    -20.546312     2A    -20.533404     3A    -15.596276
       4A    -11.359083     5A    -11.297846     6A    -11.277722
       7A    -11.232690     8A    -11.232639     9A    -11.222692
      10A     -1.397999    11A     -1.337101    12A     -1.249629
      13A     -1.075857    14A     -1.025434    15A     -0.950249
      16A     -0.903962    17A     -0.821826    18A     -0.794934
      19A     -0.735700    20A     -0.678203    21A     -0.647561
      22A     -0.633270    23A     -0.628728    24A     -0.597387
      25A     -0.581003    26A     -0.561569    27A     -0.555228
      28A     -0.550000    29A     -0.536989    30A     -0.526577
      31A     -0.516345    32A     -0.503062    33A     -0.492338
      34A     -0.444256    35A     -0.440212    36A     -0.401867

  @DF-RHF Final Energy:  -439.13347571758072

   => Energetics <=

    Nuclear Repulsion Energy =            485.8286053239807529
    One-Electron Energy =               -1562.1522634900393314
    Two-Electron Energy =                 637.1901824484777990
    Total Energy =                       -439.1334757175807226
  Basis Set: (AUG-CC-PVTZ AUX)
    Blend: AUG-CC-PVTZ-RI
    Molecular point group: c1

    Geometry (in Angstrom), charge = 0, multiplicity = 1:

       Center              X                  Y                   Z               Mass
    ------------   -----------------  -----------------  -----------------  -----------------
         O           -2.880149588221     0.460749355900    -0.307066174174    15.994914619570
         O           -0.526583588221     1.536678355900     0.052915825826    15.994914619570
         N            0.651733411779    -0.375387644100    -0.337989174174    14.003074004430
         C            1.960227411779     0.226133355900    -0.097658174174    12.000000000000
         C           -1.757047788221    -0.441147144100    -0.352903374174    12.000000000000
         C            3.002262411779    -0.507848644100    -0.926114174174    12.000000000000
         C            2.288482411779     0.230317355900     1.391264825826    12.000000000000
         C           -0.497676588221     0.322822355900    -0.196871174174    12.000000000000
         C           -1.976934588221    -1.512908644100     0.708285825826    12.000000000000
         H            1.874301411779     1.260428355900    -0.442158174174     1.007825032230
         H            0.599008411779    -1.382965644100    -0.438536174174     1.007825032230
         H           -1.791409588221    -0.929627644100    -1.363816174174     1.007825032230
         H            3.985932411779    -0.051583644100    -0.790171174174     1.007825032230
         H            3.076747411779    -1.555814644100    -0.613654174174     1.007825032230
         H            2.748392411779    -0.477617644100    -1.988105174174     1.007825032230
         H            1.517994411779     0.775494355900     1.941077825826     1.007825032230
         H            3.252882411779     0.713902355900     1.574250825826     1.007825032230
         H            2.339378411779    -0.794002644100     1.773820825826     1.007825032230
         H           -2.955662388221    -1.990416744100     0.634971925826     1.007825032230
         H           -1.913537588221    -1.044048644100     1.692944825826     1.007825032230
         H           -1.223828588221    -2.304262644100     0.640099825826     1.007825032230
         H           -2.448729588221     1.330458355900    -0.154071174174     1.007825032230

  Basis Set: AUG-CC-PVTZ
    Blend: AUG-CC-PVTZ
  Basis Set: (AUG-CC-PVTZ AUX)
    Blend: AUG-CC-PVTZ-JKFIT
	 Reference Energy          =    -439.1334757175807226 [Eh]
	 Singles Energy            =      -0.0000000000000000 [Eh]
	 Same-Spin Energy          =      -0.4464432681021853 [Eh]
	 Opposite-Spin Energy      =      -1.4647280850632911 [Eh]
	 Correlation Energy        =      -1.9111713531654764 [Eh]
	 Total Energy              =    -441.0446470707461799 [Eh]

	 ================> DF-SCS-MP2 Energies <==================
	-----------------------------------------------------------
	 SCS Same-Spin Scale       =       0.3333333333333333 [-]
	 SCS Opposite-Spin Scale   =       1.2000000000000000 [-]
	 SCS Same-Spin Energy      =      -0.1488144227007284 [Eh]
	 SCS Opposite-Spin Energy  =      -1.7576737020759492 [Eh]
	 SCS Correlation Energy    =      -1.9064881247766776 [Eh]
	 SCS Total Energy          =    -441.0399638423573947 [Eh]
	-----------------------------------------------------------

  Dipole Moment: [D]
     X:     3.5055      Y:    -3.1154      Z:    -0.1094     Total:     4.6911

*** Psi4 exiting successfully. Buy a developer a beer!
