                               Psi4 1.3.2 release

  ==> Input File <==

--------------------------------------------------------------------------
#psi4
#
memory 32 gb

molecule  {
0 1
  O       -2.8756320     0.4615000    -0.3051040
  O       -0.5220660     1.5374290     0.0548780
  N        0.6562510    -0.3746370    -0.3360270
  C        1.9538119     0.2498944    -0.0951135
  C       -1.8012180    -0.4504720    -0.3698720
  C        3.0067800    -0.5070980    -0.9241520
  C        2.2930000     0.2310680     1.3932270
  C       -0.4931590     0.3235730    -0.1949090
  C       -1.9724170    -1.5121580     0.7102480
  H        1.8788190     1.2611790    -0.4401960
  H        0.5860346    -1.3809099    -0.4389231
  H       -1.7868920    -0.9288770    -1.3618540
  H        3.9904500    -0.0508330    -0.7882090
  H        3.0812650    -1.5550640    -0.6116920
  H        2.7529100    -0.4768670    -1.9861430
  H        1.5225120     0.7762450     1.9430400
  H        3.2574000     0.7146530     1.5762130
  H        2.3438960    -0.7932520     1.7757830
  H       -2.9590570    -1.9673470     0.6070900
  H       -1.9090200    -1.0432980     1.6949070
  H       -1.2193110    -2.3035120     0.6420620
  H       -2.4442120     1.3312090    -0.1521090
units angstrom
no_reorient  #important for SAPT in psi4, default
symmetry c1  #important for SAPT in psi4, default
}

set PROPERTIES_ORIGIN ["COM"]
properties('MP2/aug-cc-pvtz', properties = ['dipole'])
--------------------------------------------------------------------------

    Molecular point group: c1
  Charge       = 0
  Multiplicity = 1
  Basis Set: AUG-CC-PVTZ
    Blend: AUG-CC-PVTZ
  Basis Set: (AUG-CC-PVTZ AUX)
    Blend: AUG-CC-PVTZ-JKFIT

    Orbital Energies [Eh]
    ---------------------

    Doubly Occupied:

       1A    -20.547776     2A    -20.532259     3A    -15.595710
       4A    -11.357530     5A    -11.297281     6A    -11.276988
       7A    -11.232392     8A    -11.230960     9A    -11.222261
      10A     -1.397323    11A     -1.345944    12A     -1.247810
      13A     -1.070682    14A     -1.023351    15A     -0.947908
      16A     -0.894673    17A     -0.825210    18A     -0.794181
      19A     -0.736361    20A     -0.680481    21A     -0.650940
      22A     -0.632593    23A     -0.626371    24A     -0.596787
      25A     -0.581011    26A     -0.567104    27A     -0.554999
      28A     -0.547936    29A     -0.539201    30A     -0.530719
      31A     -0.513323    32A     -0.500697    33A     -0.494047
      34A     -0.444988    35A     -0.434162    36A     -0.401206

  @DF-RHF Final Energy:  -439.13743393038396

   => Energetics <=

    Nuclear Repulsion Energy =            485.3167496620739598
    One-Electron Energy =               -1561.1620371090673416
    Two-Electron Energy =                 636.7078535166093616
    Total Energy =                       -439.1374339303839633
  Basis Set: (AUG-CC-PVTZ AUX)
    Blend: AUG-CC-PVTZ-RI
    Molecular point group: c1

    Geometry (in Angstrom), charge = 0, multiplicity = 1:

       Center              X                  Y                   Z               Mass
    ------------   -----------------  -----------------  -----------------  -----------------
         O           -2.874496777030     0.459383717491    -0.305139133261    15.994914619570
         O           -0.520930777030     1.535312717491     0.054842866739    15.994914619570
         N            0.657386222970    -0.376753282509    -0.336062133261    14.003074004430
         C            1.954947122970     0.247778117491    -0.095148633261    12.000000000000
         C           -1.800082777030    -0.452588282509    -0.369907133261    12.000000000000
         C            3.007915222970    -0.509214282509    -0.924187133261    12.000000000000
         C            2.294135222970     0.228951717491     1.393191866739    12.000000000000
         C           -0.492023777030     0.321456717491    -0.194944133261    12.000000000000
         C           -1.971281777030    -1.514274282509     0.710212866739    12.000000000000
         H            1.879954222970     1.259062717491    -0.440231133261     1.007825032230
         H            0.587169822970    -1.383026182509    -0.438958233261     1.007825032230
         H           -1.785756777030    -0.930993282509    -1.361889133261     1.007825032230
         H            3.991585222970    -0.052949282509    -0.788244133261     1.007825032230
         H            3.082400222970    -1.557180282509    -0.611727133261     1.007825032230
         H            2.754045222970    -0.478983282509    -1.986178133261     1.007825032230
         H            1.523647222970     0.774128717491     1.943004866739     1.007825032230
         H            3.258535222970     0.712536717491     1.576177866739     1.007825032230
         H            2.345031222970    -0.795368282509     1.775747866739     1.007825032230
         H           -2.957921777030    -1.969463282509     0.607054866739     1.007825032230
         H           -1.907884777030    -1.045414282509     1.694871866739     1.007825032230
         H           -1.218175777030    -2.305628282509     0.642026866739     1.007825032230
         H           -2.443076777030     1.329092717491    -0.152144133261     1.007825032230

  Basis Set: AUG-CC-PVTZ
    Blend: AUG-CC-PVTZ
  Basis Set: (AUG-CC-PVTZ AUX)
    Blend: AUG-CC-PVTZ-JKFIT
	 Reference Energy          =    -439.1374339303839633 [Eh]
	 Singles Energy            =      -0.0000000000000000 [Eh]
	 Same-Spin Energy          =      -0.4458750802217947 [Eh]
	 Opposite-Spin Energy      =      -1.4634655701538564 [Eh]
	 Correlation Energy        =      -1.9093406503756509 [Eh]
	 Total Energy              =    -441.0467745807596316 [Eh]

	 ================> DF-SCS-MP2 Energies <==================
	-----------------------------------------------------------
	 SCS Same-Spin Scale       =       0.3333333333333333 [-]
	 SCS Opposite-Spin Scale   =       1.2000000000000000 [-]
	 SCS Same-Spin Energy      =      -0.1486250267405982 [Eh]
	 SCS Opposite-Spin Energy  =      -1.7561586841846275 [Eh]
	 SCS Correlation Energy    =      -1.9047837109252257 [Eh]
	 SCS Total Energy          =    -441.0422176413092075 [Eh]
	-----------------------------------------------------------

  Dipole Moment: [D]
     X:     3.4362      Y:    -3.0527      Z:    -0.1381     Total:     4.5985

*** Psi4 exiting successfully. Buy a developer a beer!
