                               Psi4 1.3.2 release

  ==> Input File <==

--------------------------------------------------------------------------
#psi4
#
memory 32 gb

molecule  {
0 1
  O       -2.8756320     0.4615000    -0.3051040
  O       -0.5220660     1.5374290     0.0548780
  N        0.6562510    -0.3746370    -0.3360270
  C        1.9647450     0.2268840    -0.0956960
  C       -1.8012180    -0.4504720    -0.3698720
  C        3.0067800    -0.5070980    -0.9241520
  C        2.2930000     0.2310680     1.3932270
  C       -0.4931590     0.3235730    -0.1949090
  C       -1.9700758    -1.4540009     0.7648360
  H        1.8788190     1.2611790    -0.4401960
  H        0.6035260    -1.3822150    -0.4365740
  H       -1.7803029    -0.8766057    -1.3852919
  H        3.9904500    -0.0508330    -0.7882090
  H        3.0812650    -1.5550640    -0.6116920
  H        2.7529100    -0.4768670    -1.9861430
  H        1.5225120     0.7762450     1.9430400
  H        3.2574000     0.7146530     1.5762130
  H        2.3438960    -0.7932520     1.7757830
  H       -2.9590570    -1.9673470     0.6070900
  H       -1.9090200    -1.0432980     1.6949070
  H       -1.2193110    -2.3035120     0.6420620
  H       -2.4442120     1.3312090    -0.1521090
units angstrom
no_reorient  #important for SAPT in psi4, default
symmetry c1  #important for SAPT in psi4, default
}

set PROPERTIES_ORIGIN ["COM"]
properties('MP2/aug-cc-pvtz', properties = ['dipole'])
--------------------------------------------------------------------------

    Molecular point group: c1
  Charge       = 0
  Multiplicity = 1
  Basis Set: AUG-CC-PVTZ
    Blend: AUG-CC-PVTZ
  Basis Set: (AUG-CC-PVTZ AUX)
    Blend: AUG-CC-PVTZ-JKFIT

    Orbital Energies [Eh]
    ---------------------

    Doubly Occupied:

       1A    -20.545957     2A    -20.531733     3A    -15.595141
       4A    -11.356884     5A    -11.297619     6A    -11.276990
       7A    -11.232750     8A    -11.232125     9A    -11.222175
      10A     -1.396889    11A     -1.345531    12A     -1.247518
      13A     -1.072021    14A     -1.023401    15A     -0.949708
      16A     -0.896592    17A     -0.822876    18A     -0.795091
      19A     -0.736274    20A     -0.678520    21A     -0.649524
      22A     -0.631465    23A     -0.628883    24A     -0.599964
      25A     -0.587853    26A     -0.567313    27A     -0.554833
      28A     -0.543668    29A     -0.537205    30A     -0.527632
      31A     -0.511282    32A     -0.502476    33A     -0.490798
      34A     -0.446651    35A     -0.431746    36A     -0.401252

  @DF-RHF Final Energy:  -439.12947353298199

   => Energetics <=

    Nuclear Repulsion Energy =            485.6721054673269578
    One-Electron Energy =               -1561.8664747210834776
    Two-Electron Energy =                 637.0648957207745298
    Total Energy =                       -439.1294735329820469
  Basis Set: (AUG-CC-PVTZ AUX)
    Blend: AUG-CC-PVTZ-RI
    Molecular point group: c1

    Geometry (in Angstrom), charge = 0, multiplicity = 1:

       Center              X                  Y                   Z               Mass
    ------------   -----------------  -----------------  -----------------  -----------------
         O           -2.875896991002     0.455774680134    -0.309920505205    15.994914619570
         O           -0.522330991002     1.531703680134     0.050061494795    15.994914619570
         N            0.655986008998    -0.380362319866    -0.340843505205    14.003074004430
         C            1.964480008998     0.221158680134    -0.100512505205    12.000000000000
         C           -1.801482991002    -0.456197319866    -0.374688505205    12.000000000000
         C            3.006515008998    -0.512823319866    -0.928968505205    12.000000000000
         C            2.292735008998     0.225342680134     1.388410494795    12.000000000000
         C           -0.493423991002     0.317847680134    -0.199725505205    12.000000000000
         C           -1.970340791002    -1.459726219866     0.760019494795    12.000000000000
         H            1.878554008998     1.255453680134    -0.445012505205     1.007825032230
         H            0.603261008998    -1.387940319866    -0.441390505205     1.007825032230
         H           -1.780567891002    -0.882331019866    -1.390108405205     1.007825032230
         H            3.990185008998    -0.056558319866    -0.793025505205     1.007825032230
         H            3.081000008998    -1.560789319866    -0.616508505205     1.007825032230
         H            2.752645008998    -0.482592319866    -1.990959505205     1.007825032230
         H            1.522247008998     0.770519680134     1.938223494795     1.007825032230
         H            3.257135008998     0.708927680134     1.571396494795     1.007825032230
         H            2.343631008998    -0.798977319866     1.770966494795     1.007825032230
         H           -2.959321991002    -1.973072319866     0.602273494795     1.007825032230
         H           -1.909284991002    -1.049023319866     1.690090494795     1.007825032230
         H           -1.219575991002    -2.309237319866     0.637245494795     1.007825032230
         H           -2.444476991002     1.325483680134    -0.156925505205     1.007825032230

  Basis Set: AUG-CC-PVTZ
    Blend: AUG-CC-PVTZ
  Basis Set: (AUG-CC-PVTZ AUX)
    Blend: AUG-CC-PVTZ-JKFIT
	 Reference Energy          =    -439.1294735329819900 [Eh]
	 Singles Energy            =      -0.0000000000000000 [Eh]
	 Same-Spin Energy          =      -0.4461897320393154 [Eh]
	 Opposite-Spin Energy      =      -1.4640320321240960 [Eh]
	 Correlation Energy        =      -1.9102217641634116 [Eh]
	 Total Energy              =    -441.0396952971453857 [Eh]

	 ================> DF-SCS-MP2 Energies <==================
	-----------------------------------------------------------
	 SCS Same-Spin Scale       =       0.3333333333333333 [-]
	 SCS Opposite-Spin Scale   =       1.2000000000000000 [-]
	 SCS Same-Spin Energy      =      -0.1487299106797718 [Eh]
	 SCS Opposite-Spin Energy  =      -1.7568384385489153 [Eh]
	 SCS Correlation Energy    =      -1.9055683492286870 [Eh]
	 SCS Total Energy          =    -441.0350418822106917 [Eh]
	-----------------------------------------------------------

  Dipole Moment: [D]
     X:     3.4449      Y:    -3.0386      Z:    -0.1346     Total:     4.5955

*** Psi4 exiting successfully. Buy a developer a beer!
