                               Psi4 1.3.2 release

  ==> Input File <==

--------------------------------------------------------------------------
#psi4
#
memory 32 gb

molecule  {
0 1
  O       -2.8756320     0.4615000    -0.3051040
  O       -0.5220660     1.5374290     0.0548780
  N        0.6562510    -0.3746370    -0.3360270
  C        1.9647450     0.2268840    -0.0956960
  C       -1.8012180    -0.4504720    -0.3698720
  C        3.0067800    -0.5070980    -0.9241520
  C        2.2930000     0.2310680     1.3932270
  C       -0.4971352     0.3274314    -0.1827615
  C       -1.9724170    -1.5121580     0.7102480
  H        1.8788190     1.2611790    -0.4401960
  H        0.6035260    -1.3822150    -0.4365740
  H       -1.7955817    -0.9326071    -1.3601340
  H        3.9904500    -0.0508330    -0.7882090
  H        3.0812650    -1.5550640    -0.6116920
  H        2.7529100    -0.4768670    -1.9861430
  H        1.5225120     0.7762450     1.9430400
  H        3.2574000     0.7146530     1.5762130
  H        2.3438960    -0.7932520     1.7757830
  H       -2.9590570    -1.9673470     0.6070900
  H       -1.9090200    -1.0432980     1.6949070
  H       -1.2193110    -2.3035120     0.6420620
  H       -2.4442120     1.3312090    -0.1521090
units angstrom
no_reorient  #important for SAPT in psi4, default
symmetry c1  #important for SAPT in psi4, default
}

set PROPERTIES_ORIGIN ["COM"]
properties('MP2/aug-cc-pvtz', properties = ['dipole'])
--------------------------------------------------------------------------

    Molecular point group: c1
  Charge       = 0
  Multiplicity = 1
  Basis Set: AUG-CC-PVTZ
    Blend: AUG-CC-PVTZ
  Basis Set: (AUG-CC-PVTZ AUX)
    Blend: AUG-CC-PVTZ-JKFIT

    Orbital Energies [Eh]
    ---------------------

    Doubly Occupied:

       1A    -20.547882     2A    -20.534283     3A    -15.594402
       4A    -11.358632     5A    -11.297232     6A    -11.276578
       7A    -11.231862     8A    -11.230597     9A    -11.221964
      10A     -1.400507    11A     -1.347017    12A     -1.246478
      13A     -1.071320    14A     -1.023621    15A     -0.949474
      16A     -0.894340    17A     -0.821648    18A     -0.793554
      19A     -0.737344    20A     -0.679235    21A     -0.649679
      22A     -0.633331    23A     -0.628505    24A     -0.597372
      25A     -0.581771    26A     -0.567397    27A     -0.554726
      28A     -0.547627    29A     -0.539415    30A     -0.530667
      31A     -0.513572    32A     -0.503040    33A     -0.491396
      34A     -0.444880    35A     -0.435204    36A     -0.401066

  @DF-RHF Final Energy:  -439.13807330339114

   => Energetics <=

    Nuclear Repulsion Energy =            485.3529019220565033
    One-Electron Energy =               -1561.2267120542833254
    Two-Electron Energy =                 636.7357368288357975
    Total Energy =                       -439.1380733033911383
  Basis Set: (AUG-CC-PVTZ AUX)
    Blend: AUG-CC-PVTZ-RI
    Molecular point group: c1

    Geometry (in Angstrom), charge = 0, multiplicity = 1:

       Center              X                  Y                   Z               Mass
    ------------   -----------------  -----------------  -----------------  -----------------
         O           -2.875201255730     0.461175542243    -0.306229040165    15.994914619570
         O           -0.521635255730     1.537104542243     0.053752959835    15.994914619570
         N            0.656681744270    -0.374961457757    -0.337152040165    14.003074004430
         C            1.965175744270     0.226559542243    -0.096821040165    12.000000000000
         C           -1.800787255730    -0.450796457757    -0.370997040165    12.000000000000
         C            3.007210744270    -0.507422457757    -0.925277040165    12.000000000000
         C            2.293430744270     0.230743542243     1.392101959835    12.000000000000
         C           -0.496704455730     0.327106942243    -0.183886540165    12.000000000000
         C           -1.971986255730    -1.512482457757     0.709122959835    12.000000000000
         H            1.879249744270     1.260854542243    -0.441321040165     1.007825032230
         H            0.603956744270    -1.382539457757    -0.437699040165     1.007825032230
         H           -1.795150955730    -0.932931557757    -1.361259040165     1.007825032230
         H            3.990880744270    -0.051157457757    -0.789334040165     1.007825032230
         H            3.081695744270    -1.555388457757    -0.612817040165     1.007825032230
         H            2.753340744270    -0.477191457757    -1.987268040165     1.007825032230
         H            1.522942744270     0.775920542243     1.941914959835     1.007825032230
         H            3.257830744270     0.714328542243     1.575087959835     1.007825032230
         H            2.344326744270    -0.793576457757     1.774657959835     1.007825032230
         H           -2.958626255730    -1.967671457757     0.605964959835     1.007825032230
         H           -1.908589255730    -1.043622457757     1.693781959835     1.007825032230
         H           -1.218880255730    -2.303836457757     0.640936959835     1.007825032230
         H           -2.443781255730     1.330884542243    -0.153234040165     1.007825032230

  Basis Set: AUG-CC-PVTZ
    Blend: AUG-CC-PVTZ
  Basis Set: (AUG-CC-PVTZ AUX)
    Blend: AUG-CC-PVTZ-JKFIT
	 Reference Energy          =    -439.1380733033911383 [Eh]
	 Singles Energy            =      -0.0000000000000000 [Eh]
	 Same-Spin Energy          =      -0.4459321681038816 [Eh]
	 Opposite-Spin Energy      =      -1.4634736348451747 [Eh]
	 Correlation Energy        =      -1.9094058029490562 [Eh]
	 Total Energy              =    -441.0474791063401767 [Eh]

	 ================> DF-SCS-MP2 Energies <==================
	-----------------------------------------------------------
	 SCS Same-Spin Scale       =       0.3333333333333333 [-]
	 SCS Opposite-Spin Scale   =       1.2000000000000000 [-]
	 SCS Same-Spin Energy      =      -0.1486440560346272 [Eh]
	 SCS Opposite-Spin Energy  =      -1.7561683618142097 [Eh]
	 SCS Correlation Energy    =      -1.9048124178488368 [Eh]
	 SCS Total Energy          =    -441.0428857212399976 [Eh]
	-----------------------------------------------------------

  Dipole Moment: [D]
     X:     3.4142      Y:    -3.0200      Z:    -0.1330     Total:     4.5601

*** Psi4 exiting successfully. Buy a developer a beer!
