                               Psi4 1.3.2 release

  ==> Input File <==

--------------------------------------------------------------------------
#psi4
#
memory 32 gb

molecule  {
0 1
  O       -2.8756320     0.4615000    -0.3051040
  O       -0.5220660     1.5374290     0.0548780
  N        0.6562510    -0.3746370    -0.3360270
  C        1.9647450     0.2268840    -0.0956960
  C       -1.8012180    -0.4504720    -0.3698720
  C        3.0067800    -0.5070980    -0.9241520
  C        2.2930000     0.2310680     1.3932270
  C       -0.5184993     0.3458289    -0.1222561
  C       -1.9724170    -1.5121580     0.7102480
  H        1.8788190     1.2611790    -0.4401960
  H        0.6035260    -1.3822150    -0.4365740
  H       -1.8390232    -0.9507015    -1.3504055
  H        3.9904500    -0.0508330    -0.7882090
  H        3.0812650    -1.5550640    -0.6116920
  H        2.7529100    -0.4768670    -1.9861430
  H        1.5225120     0.7762450     1.9430400
  H        3.2574000     0.7146530     1.5762130
  H        2.3438960    -0.7932520     1.7757830
  H       -2.9590570    -1.9673470     0.6070900
  H       -1.9090200    -1.0432980     1.6949070
  H       -1.2193110    -2.3035120     0.6420620
  H       -2.4442120     1.3312090    -0.1521090
units angstrom
no_reorient  #important for SAPT in psi4, default
symmetry c1  #important for SAPT in psi4, default
}

set PROPERTIES_ORIGIN ["COM"]
properties('MP2/aug-cc-pvtz', properties = ['dipole'])
--------------------------------------------------------------------------

    Molecular point group: c1
  Charge       = 0
  Multiplicity = 1
  Basis Set: AUG-CC-PVTZ
    Blend: AUG-CC-PVTZ
  Basis Set: (AUG-CC-PVTZ AUX)
    Blend: AUG-CC-PVTZ-JKFIT

    Orbital Energies [Eh]
    ---------------------

    Doubly Occupied:

       1A    -20.548507     2A    -20.543447     3A    -15.587920
       4A    -11.360794     5A    -11.297168     6A    -11.273273
       7A    -11.229804     8A    -11.229623     9A    -11.220335
      10A     -1.418171    11A     -1.351841    12A     -1.237266
      13A     -1.066840    14A     -1.022372    15A     -0.947513
      16A     -0.891238    17A     -0.817956    18A     -0.786921
      19A     -0.741557    20A     -0.681115    21A     -0.650719
      22A     -0.636641    23A     -0.626889    24A     -0.599175
      25A     -0.581931    26A     -0.568013    27A     -0.552920
      28A     -0.545176    29A     -0.539726    30A     -0.533419
      31A     -0.518571    32A     -0.503655    33A     -0.490477
      34A     -0.445219    35A     -0.437030    36A     -0.398248

  @DF-RHF Final Energy:  -439.13396505225262

   => Energetics <=

    Nuclear Repulsion Energy =            485.4024043038824061
    One-Electron Energy =               -1561.3097954173954349
    Two-Electron Energy =                 636.7734260612604658
    Total Energy =                       -439.1339650522526199
  Basis Set: (AUG-CC-PVTZ AUX)
    Blend: AUG-CC-PVTZ-RI
    Molecular point group: c1

    Geometry (in Angstrom), charge = 0, multiplicity = 1:

       Center              X                  Y                   Z               Mass
    ------------   -----------------  -----------------  -----------------  -----------------
         O           -2.872911683425     0.459630597094    -0.311842309247    15.994914619570
         O           -0.519345683425     1.535559597094     0.048139690753    15.994914619570
         N            0.658971316575    -0.376506402906    -0.342765309247    14.003074004430
         C            1.967465316575     0.225014597094    -0.102434309247    12.000000000000
         C           -1.798497683425    -0.452341402906    -0.376610309247    12.000000000000
         C            3.009500316575    -0.508967402906    -0.930890309247    12.000000000000
         C            2.295720316575     0.229198597094     1.386488690753    12.000000000000
         C           -0.515778983425     0.343959497094    -0.128994409247    12.000000000000
         C           -1.969696683425    -1.514027402906     0.703509690753    12.000000000000
         H            1.881539316575     1.259309597094    -0.446934309247     1.007825032230
         H            0.606246316575    -1.384084402906    -0.443312309247     1.007825032230
         H           -1.836302883425    -0.952570902906    -1.357143809247     1.007825032230
         H            3.993170316575    -0.052702402906    -0.794947309247     1.007825032230
         H            3.083985316575    -1.556933402906    -0.618430309247     1.007825032230
         H            2.755630316575    -0.478736402906    -1.992881309247     1.007825032230
         H            1.525232316575     0.774375597094     1.936301690753     1.007825032230
         H            3.260120316575     0.712783597094     1.569474690753     1.007825032230
         H            2.346616316575    -0.795121402906     1.769044690753     1.007825032230
         H           -2.956336683425    -1.969216402906     0.600351690753     1.007825032230
         H           -1.906299683425    -1.045167402906     1.688168690753     1.007825032230
         H           -1.216590683425    -2.305381402906     0.635323690753     1.007825032230
         H           -2.441491683425     1.329339597094    -0.158847309247     1.007825032230

  Basis Set: AUG-CC-PVTZ
    Blend: AUG-CC-PVTZ
  Basis Set: (AUG-CC-PVTZ AUX)
    Blend: AUG-CC-PVTZ-JKFIT
	 Reference Energy          =    -439.1339650522526199 [Eh]
	 Singles Energy            =      -0.0000000000000000 [Eh]
	 Same-Spin Energy          =      -0.4456279912597718 [Eh]
	 Opposite-Spin Energy      =      -1.4631233018356933 [Eh]
	 Correlation Energy        =      -1.9087512930954651 [Eh]
	 Total Energy              =    -441.0427163453480830 [Eh]

	 ================> DF-SCS-MP2 Energies <==================
	-----------------------------------------------------------
	 SCS Same-Spin Scale       =       0.3333333333333333 [-]
	 SCS Opposite-Spin Scale   =       1.2000000000000000 [-]
	 SCS Same-Spin Energy      =      -0.1485426637532573 [Eh]
	 SCS Opposite-Spin Energy  =      -1.7557479622028318 [Eh]
	 SCS Correlation Energy    =      -1.9042906259560890 [Eh]
	 SCS Total Energy          =    -441.0382556782087136 [Eh]
	-----------------------------------------------------------

  Dipole Moment: [D]
     X:     3.1819      Y:    -2.8206      Z:    -0.0738     Total:     4.2528

*** Psi4 exiting successfully. Buy a developer a beer!
