                               Psi4 1.3.2 release

  ==> Input File <==

--------------------------------------------------------------------------
#psi4
#
memory 32 gb

molecule  {
0 1
  O       -2.8756320     0.4615000    -0.3051040
  O       -0.5220660     1.5374290     0.0548780
  N        0.6562510    -0.3746370    -0.3360270
  C        1.9647450     0.2268840    -0.0956960
  C       -1.8012180    -0.4504720    -0.3698720
  C        3.0067800    -0.5070980    -0.9241520
  C        2.2930000     0.2310680     1.3932270
  C       -0.5123243     0.3664784    -0.2597760
  C       -2.0419715    -1.5321460     0.6766291
  H        1.8788190     1.2611790    -0.4401960
  H        0.6035260    -1.3822150    -0.4365740
  H       -1.7868920    -0.9288770    -1.3618540
  H        3.9904500    -0.0508330    -0.7882090
  H        3.0812650    -1.5550640    -0.6116920
  H        2.7529100    -0.4768670    -1.9861430
  H        1.5225120     0.7762450     1.9430400
  H        3.2574000     0.7146530     1.5762130
  H        2.3438960    -0.7932520     1.7757830
  H       -2.9590570    -1.9673470     0.6070900
  H       -1.9090200    -1.0432980     1.6949070
  H       -1.2193110    -2.3035120     0.6420620
  H       -2.4442120     1.3312090    -0.1521090
units angstrom
no_reorient  #important for SAPT in psi4, default
symmetry c1  #important for SAPT in psi4, default
}

set PROPERTIES_ORIGIN ["COM"]
properties('MP2/aug-cc-pvtz', properties = ['dipole'])
--------------------------------------------------------------------------

    Molecular point group: c1
  Charge       = 0
  Multiplicity = 1
  Basis Set: AUG-CC-PVTZ
    Blend: AUG-CC-PVTZ
  Basis Set: (AUG-CC-PVTZ AUX)
    Blend: AUG-CC-PVTZ-JKFIT

    Orbital Energies [Eh]
    ---------------------

    Doubly Occupied:

       1A    -20.547674     2A    -20.541874     3A    -15.589652
       4A    -11.362224     5A    -11.297583     6A    -11.274399
       7A    -11.232880     8A    -11.229854     9A    -11.220126
      10A     -1.413664    11A     -1.350724    12A     -1.239223
      13A     -1.066837    14A     -1.021466    15A     -0.947435
      16A     -0.898893    17A     -0.818369    18A     -0.789005
      19A     -0.737042    20A     -0.679729    21A     -0.651320
      22A     -0.637452    23A     -0.625617    24A     -0.599481
      25A     -0.588618    26A     -0.570019    27A     -0.553708
      28A     -0.552066    29A     -0.538261    30A     -0.520775
      31A     -0.512701    32A     -0.503579    33A     -0.490600
      34A     -0.445927    35A     -0.437017    36A     -0.397699

  @DF-RHF Final Energy:  -439.12682502948309

   => Energetics <=

    Nuclear Repulsion Energy =            484.6256083704169555
    One-Electron Energy =               -1559.7378786866127029
    Two-Electron Energy =                 635.9854452867126611
    Total Energy =                       -439.1268250294830295
  Basis Set: (AUG-CC-PVTZ AUX)
    Blend: AUG-CC-PVTZ-RI
    Molecular point group: c1

    Geometry (in Angstrom), charge = 0, multiplicity = 1:

       Center              X                  Y                   Z               Mass
    ------------   -----------------  -----------------  -----------------  -----------------
         O           -2.867510891044     0.459402263731    -0.296088775285    15.994914619570
         O           -0.513944891044     1.535331263731     0.063893224715    15.994914619570
         N            0.664372108956    -0.376734736269    -0.327011775285    14.003074004430
         C            1.972866108956     0.224786263731    -0.086680775285    12.000000000000
         C           -1.793096891044    -0.452569736269    -0.360856775285    12.000000000000
         C            3.014901108956    -0.509195736269    -0.915136775285    12.000000000000
         C            2.301121108956     0.228970263731     1.402242224715    12.000000000000
         C           -0.504203191044     0.364380663731    -0.250760775285    12.000000000000
         C           -2.033850391044    -1.534243736269     0.685644324715    12.000000000000
         H            1.886940108956     1.259081263731    -0.431180775285     1.007825032230
         H            0.611647108956    -1.384312736269    -0.427558775285     1.007825032230
         H           -1.778770891044    -0.930974736269    -1.352838775285     1.007825032230
         H            3.998571108956    -0.052930736269    -0.779193775285     1.007825032230
         H            3.089386108956    -1.557161736269    -0.602676775285     1.007825032230
         H            2.761031108956    -0.478964736269    -1.977127775285     1.007825032230
         H            1.530633108956     0.774147263731     1.952055224715     1.007825032230
         H            3.265521108956     0.712555263731     1.585228224715     1.007825032230
         H            2.352017108956    -0.795349736269     1.784798224715     1.007825032230
         H           -2.950935891044    -1.969444736269     0.616105224715     1.007825032230
         H           -1.900898891044    -1.045395736269     1.703922224715     1.007825032230
         H           -1.211189891044    -2.305609736269     0.651077224715     1.007825032230
         H           -2.436090891044     1.329111263731    -0.143093775285     1.007825032230

  Basis Set: AUG-CC-PVTZ
    Blend: AUG-CC-PVTZ
  Basis Set: (AUG-CC-PVTZ AUX)
    Blend: AUG-CC-PVTZ-JKFIT
	 Reference Energy          =    -439.1268250294830864 [Eh]
	 Singles Energy            =      -0.0000000000000000 [Eh]
	 Same-Spin Energy          =      -0.4456709717327326 [Eh]
	 Opposite-Spin Energy      =      -1.4634182568849439 [Eh]
	 Correlation Energy        =      -1.9090892286176766 [Eh]
	 Total Energy              =    -441.0359142581007745 [Eh]

	 ================> DF-SCS-MP2 Energies <==================
	-----------------------------------------------------------
	 SCS Same-Spin Scale       =       0.3333333333333333 [-]
	 SCS Opposite-Spin Scale   =       1.2000000000000000 [-]
	 SCS Same-Spin Energy      =      -0.1485569905775775 [Eh]
	 SCS Opposite-Spin Energy  =      -1.7561019082619327 [Eh]
	 SCS Correlation Energy    =      -1.9046588988395103 [Eh]
	 SCS Total Energy          =    -441.0314839283225865 [Eh]
	-----------------------------------------------------------

  Dipole Moment: [D]
     X:     3.2318      Y:    -2.8357      Z:    -0.1629     Total:     4.3026

*** Psi4 exiting successfully. Buy a developer a beer!
