                               Psi4 1.3.2 release

  ==> Input File <==

--------------------------------------------------------------------------
#psi4
#
memory 32 gb

molecule  {
0 1
  O       -2.8756320     0.4615000    -0.3051040
  O       -0.5220660     1.5374290     0.0548780
  N        0.6173987    -0.4324515    -0.3486732
  C        1.9647450     0.2268840    -0.0956960
  C       -1.7578968    -0.5164177    -0.3836684
  C        3.0067800    -0.5070980    -0.9241520
  C        2.2930000     0.2310680     1.3932270
  C       -0.4931590     0.3235730    -0.1949090
  C       -1.9724170    -1.5121580     0.7102480
  H        1.8788190     1.2611790    -0.4401960
  H        0.6035260    -1.3822150    -0.4365740
  H       -1.7868920    -0.9288770    -1.3618540
  H        3.9904500    -0.0508330    -0.7882090
  H        3.0812650    -1.5550640    -0.6116920
  H        2.7529100    -0.4768670    -1.9861430
  H        1.5225120     0.7762450     1.9430400
  H        3.2574000     0.7146530     1.5762130
  H        2.3438960    -0.7932520     1.7757830
  H       -2.9590570    -1.9673470     0.6070900
  H       -1.9090200    -1.0432980     1.6949070
  H       -1.2193110    -2.3035120     0.6420620
  H       -2.4442120     1.3312090    -0.1521090
units angstrom
no_reorient  #important for SAPT in psi4, default
symmetry c1  #important for SAPT in psi4, default
}

set PROPERTIES_ORIGIN ["COM"]
properties('MP2/aug-cc-pvtz', properties = ['dipole'])
--------------------------------------------------------------------------

    Molecular point group: c1
  Charge       = 0
  Multiplicity = 1
  Basis Set: AUG-CC-PVTZ
    Blend: AUG-CC-PVTZ
  Basis Set: (AUG-CC-PVTZ AUX)
    Blend: AUG-CC-PVTZ-JKFIT

    Orbital Energies [Eh]
    ---------------------

    Doubly Occupied:

       1A    -20.536963     2A    -20.536860     3A    -15.592382
       4A    -11.361566     5A    -11.293192     6A    -11.282675
       7A    -11.233414     8A    -11.231109     9A    -11.225036
      10A     -1.392192    11A     -1.318045    12A     -1.248270
      13A     -1.076214    14A     -1.030741    15A     -0.951033
      16A     -0.896350    17A     -0.822541    18A     -0.806560
      19A     -0.726003    20A     -0.675923    21A     -0.647324
      22A     -0.634763    23A     -0.625623    24A     -0.601477
      25A     -0.578464    26A     -0.565318    27A     -0.556082
      28A     -0.546306    29A     -0.534189    30A     -0.529064
      31A     -0.505688    32A     -0.501418    33A     -0.490724
      34A     -0.448107    35A     -0.433905    36A     -0.407773

  @DF-RHF Final Energy:  -439.12371072127689

   => Energetics <=

    Nuclear Repulsion Energy =            484.3183208941096041
    One-Electron Energy =               -1559.1974740925236347
    Two-Electron Energy =                 635.7554424771371941
    Total Energy =                       -439.1237107212768933
  Basis Set: (AUG-CC-PVTZ AUX)
    Blend: AUG-CC-PVTZ-RI
    Molecular point group: c1

    Geometry (in Angstrom), charge = 0, multiplicity = 1:

       Center              X                  Y                   Z               Mass
    ------------   -----------------  -----------------  -----------------  -----------------
         O           -2.875447450905     0.473712063767    -0.302490168950    15.994914619570
         O           -0.521881450905     1.549641063767     0.057491831050    15.994914619570
         N            0.617583249095    -0.420239436233    -0.346059368950    14.003074004430
         C            1.964929549095     0.239096063767    -0.093082168950    12.000000000000
         C           -1.757712250905    -0.504205636233    -0.381054568950    12.000000000000
         C            3.006964549095    -0.494885936233    -0.921538168950    12.000000000000
         C            2.293184549095     0.243280063767     1.395840831050    12.000000000000
         C           -0.492974450905     0.335785063767    -0.192295168950    12.000000000000
         C           -1.972232450905    -1.499945936233     0.712861831050    12.000000000000
         H            1.879003549095     1.273391063767    -0.437582168950     1.007825032230
         H            0.603710549095    -1.370002936233    -0.433960168950     1.007825032230
         H           -1.786707450905    -0.916664936233    -1.359240168950     1.007825032230
         H            3.990634549095    -0.038620936233    -0.785595168950     1.007825032230
         H            3.081449549095    -1.542851936233    -0.609078168950     1.007825032230
         H            2.753094549095    -0.464654936233    -1.983529168950     1.007825032230
         H            1.522696549095     0.788457063767     1.945653831050     1.007825032230
         H            3.257584549095     0.726865063767     1.578826831050     1.007825032230
         H            2.344080549095    -0.781039936233     1.778396831050     1.007825032230
         H           -2.958872450905    -1.955134936233     0.609703831050     1.007825032230
         H           -1.908835450905    -1.031085936233     1.697520831050     1.007825032230
         H           -1.219126450905    -2.291299936233     0.644675831050     1.007825032230
         H           -2.444027450905     1.343421063767    -0.149495168950     1.007825032230

  Basis Set: AUG-CC-PVTZ
    Blend: AUG-CC-PVTZ
  Basis Set: (AUG-CC-PVTZ AUX)
    Blend: AUG-CC-PVTZ-JKFIT
	 Reference Energy          =    -439.1237107212768933 [Eh]
	 Singles Energy            =      -0.0000000000000000 [Eh]
	 Same-Spin Energy          =      -0.4459704820297246 [Eh]
	 Opposite-Spin Energy      =      -1.4652686220119922 [Eh]
	 Correlation Energy        =      -1.9112391040417167 [Eh]
	 Total Energy              =    -441.0349498253186198 [Eh]

	 ================> DF-SCS-MP2 Energies <==================
	-----------------------------------------------------------
	 SCS Same-Spin Scale       =       0.3333333333333333 [-]
	 SCS Opposite-Spin Scale   =       1.2000000000000000 [-]
	 SCS Same-Spin Energy      =      -0.1486568273432415 [Eh]
	 SCS Opposite-Spin Energy  =      -1.7583223464143904 [Eh]
	 SCS Correlation Energy    =      -1.9069791737576320 [Eh]
	 SCS Total Energy          =    -441.0306898950345271 [Eh]
	-----------------------------------------------------------

  Dipole Moment: [D]
     X:     3.7712      Y:    -3.1527      Z:    -0.0933     Total:     4.9163

*** Psi4 exiting successfully. Buy a developer a beer!
