                               Psi4 1.4a3.dev225

  ==> Input File <==

--------------------------------------------------------------------------
#psi4
#
memory 32 gb

molecule  {
0 1
  O        2.9110620    -0.5703060    -0.4523520
  O        0.5539390    -1.5540470     0.1662040
  N       -0.5943370     0.3369340    -0.3930300
  C       -1.9154150    -0.2304160    -0.1256420
  C        1.8655780     0.3788930    -0.3941620
  C       -2.9513150     0.5221750    -0.9483650
  C       -2.2232580    -0.2086170     1.3682650
  C        0.5611451    -0.3766380    -0.1880582
  C        2.1035320     1.3624180     0.7499890
  H       -1.8664900    -1.2716350    -0.4595930
  H       -0.5281980     1.3181660    -0.6377390
  H        1.8317100     0.9202690    -1.3505730
  H       -3.9433690     0.0896600    -0.7945050
  H       -2.9965010     1.5743390    -0.6446630
  H       -2.7149650     0.4749500    -2.0147890
  H       -1.4563020    -0.7629570     1.9136170
  H       -3.1950150    -0.6709470     1.5682930
  H       -2.2473660     0.8219210     1.7368640
  H        3.0888910     1.8183940     0.6312910
  H        2.0827360     0.8223960     1.7004970
  H        1.3487660     2.1553220     0.7756360
  H        2.4958040    -1.4028240    -0.1381920
units angstrom
no_reorient  #important for SAPT in psi4, default
symmetry c1  #important for SAPT in psi4, default
}

set PROPERTIES_ORIGIN ["COM"]
properties('MP2/aug-cc-pvtz', properties = ['dipole'])
--------------------------------------------------------------------------

    Molecular point group: c1
  Charge       = 0
  Multiplicity = 1
  Basis Set: AUG-CC-PVTZ
    Blend: AUG-CC-PVTZ
  Basis Set: (AUG-CC-PVTZ AUX)
    Blend: AUG-CC-PVTZ-JKFIT

    Orbital Energies [Eh]
    ---------------------

    Doubly Occupied:

       1A    -20.549623     2A    -20.535590     3A    -15.592587
       4A    -11.359273     5A    -11.298068     6A    -11.276367
       7A    -11.232146     8A    -11.230623     9A    -11.219872
      10A     -1.402022    11A     -1.348289    12A     -1.241176
      13A     -1.069301    14A     -1.023495    15A     -0.948226
      16A     -0.895069    17A     -0.819444    18A     -0.790243
      19A     -0.739206    20A     -0.677908    21A     -0.642547
      22A     -0.636821    23A     -0.628073    24A     -0.595621
      25A     -0.582810    26A     -0.571505    27A     -0.553893
      28A     -0.547275    29A     -0.537126    30A     -0.528830
      31A     -0.514415    32A     -0.502249    33A     -0.490692
      34A     -0.447888    35A     -0.434048    36A     -0.399435

  @DF-RHF Final Energy:  -439.13768283837948

   => Energetics <=

    Nuclear Repulsion Energy =            485.0489646324637079
    One-Electron Energy =               -1560.6497859668943420
    Two-Electron Energy =                 636.4631384960512150
    Total Energy =                       -439.1376828383795328
  Basis Set: (AUG-CC-PVTZ AUX)
    Blend: AUG-CC-PVTZ-RI
    Molecular point group: c1

    Geometry (in Angstrom), charge = 0, multiplicity = 1:

       Center              X                  Y                   Z               Mass
    ------------   -----------------  -----------------  -----------------  -----------------
         O            2.848363998257    -0.524889701913    -0.435324710043    15.994914619570
         O            0.491240998257    -1.508630701913     0.183231289957    15.994914619570
         N           -0.657035001743     0.382350298087    -0.376002710043    14.003074004430
         C           -1.978113001743    -0.184999701913    -0.108614710043    12.000000000000
         C            1.802879998257     0.424309298087    -0.377134710043    12.000000000000
         C           -3.014013001743     0.567591298087    -0.931337710043    12.000000000000
         C           -2.285956001743    -0.163200701913     1.385292289957    12.000000000000
         C            0.498447098257    -0.331221701913    -0.171030910043    12.000000000000
         C            2.040833998257     1.407834298087     0.767016289957    12.000000000000
         H           -1.929188001743    -1.226218701913    -0.442565710043     1.007825032230
         H           -0.590896001743     1.363582298087    -0.620711710043     1.007825032230
         H            1.769011998257     0.965685298087    -1.333545710043     1.007825032230
         H           -4.006067001743     0.135076298087    -0.777477710043     1.007825032230
         H           -3.059199001743     1.619755298087    -0.627635710043     1.007825032230
         H           -2.777663001743     0.520366298087    -1.997761710043     1.007825032230
         H           -1.519000001743    -0.717540701913     1.930644289957     1.007825032230
         H           -3.257713001743    -0.625530701913     1.585320289957     1.007825032230
         H           -2.310064001743     0.867337298087     1.753891289957     1.007825032230
         H            3.026192998257     1.863810298087     0.648318289957     1.007825032230
         H            2.020037998257     0.867812298087     1.717524289957     1.007825032230
         H            1.286067998257     2.200738298087     0.792663289957     1.007825032230
         H            2.433105998257    -1.357407701913    -0.121164710043     1.007825032230

  Basis Set: AUG-CC-PVTZ
    Blend: AUG-CC-PVTZ
  Basis Set: (AUG-CC-PVTZ AUX)
    Blend: AUG-CC-PVTZ-JKFIT
	 Reference Energy          =    -439.1376828383794759 [Eh]
	 Singles Energy            =      -0.0000000000000000 [Eh]
	 Same-Spin Energy          =      -0.4458134135257245 [Eh]
	 Opposite-Spin Energy      =      -1.4635852442378701 [Eh]
	 Correlation Energy        =      -1.9093986577635946 [Eh]
	 Total Energy              =    -441.0470814961430506 [Eh]

	 ================> DF-SCS-MP2 Energies <==================
	-----------------------------------------------------------
	 SCS Same-Spin Scale       =       0.3333333333333333 [-]
	 SCS Opposite-Spin Scale   =       1.2000000000000000 [-]
	 SCS Same-Spin Energy      =      -0.1486044711752415 [Eh]
	 SCS Opposite-Spin Energy  =      -1.7563022930854439 [Eh]
	 SCS Correlation Energy    =      -1.9049067642606854 [Eh]
	 SCS Total Energy          =    -441.0425896026401347 [Eh]
	-----------------------------------------------------------

  Dipole Moment: [D]
     X:    -3.2335      Y:     3.0455      Z:    -0.1609     Total:     4.4448

*** Psi4 exiting successfully. Buy a developer a beer!
