                               Psi4 1.4a3.dev225

  ==> Input File <==

--------------------------------------------------------------------------
#psi4
#
memory 32 gb

molecule  {
0 1
  O        2.9110620    -0.5703060    -0.4523520
  O        0.5539390    -1.5540470     0.1662040
  N       -0.5943370     0.3369340    -0.3930300
  C       -1.9154150    -0.2304160    -0.1256420
  C        1.8655780     0.3788930    -0.3941620
  C       -2.9513150     0.5221750    -0.9483650
  C       -2.2232580    -0.2086170     1.3682650
  C        0.5443190    -0.3662470    -0.1910430
  C        2.1035320     1.3624180     0.7499890
  H       -1.8664900    -1.2716350    -0.4595930
  H       -0.5281980     1.3181660    -0.6377390
  H        1.8301699     0.9448876    -1.3940650
  H       -3.9433690     0.0896600    -0.7945050
  H       -2.9965010     1.5743390    -0.6446630
  H       -2.7149650     0.4749500    -2.0147890
  H       -1.4563020    -0.7629570     1.9136170
  H       -3.1950150    -0.6709470     1.5682930
  H       -2.2473660     0.8219210     1.7368640
  H        3.0888910     1.8183940     0.6312910
  H        2.0827360     0.8223960     1.7004970
  H        1.3487660     2.1553220     0.7756360
  H        2.4958040    -1.4028240    -0.1381920
units angstrom
no_reorient  #important for SAPT in psi4, default
symmetry c1  #important for SAPT in psi4, default
}

set PROPERTIES_ORIGIN ["COM"]
properties('MP2/aug-cc-pvtz', properties = ['dipole'])
--------------------------------------------------------------------------

    Molecular point group: c1
  Charge       = 0
  Multiplicity = 1
  Basis Set: AUG-CC-PVTZ
    Blend: AUG-CC-PVTZ
  Basis Set: (AUG-CC-PVTZ AUX)
    Blend: AUG-CC-PVTZ-JKFIT

    Orbital Energies [Eh]
    ---------------------

    Doubly Occupied:

       1A    -20.549709     2A    -20.532066     3A    -15.596078
       4A    -11.358588     5A    -11.303726     6A    -11.278086
       7A    -11.233457     8A    -11.230416     9A    -11.221080
      10A     -1.396168    11A     -1.346307    12A     -1.246720
      13A     -1.070898    14A     -1.022492    15A     -0.949570
      16A     -0.892751    17A     -0.819782    18A     -0.793672
      19A     -0.736118    20A     -0.676565    21A     -0.639323
      22A     -0.635385    23A     -0.629029    24A     -0.595285
      25A     -0.582662    26A     -0.571198    27A     -0.555145
      28A     -0.548360    29A     -0.536531    30A     -0.527644
      31A     -0.511467    32A     -0.502165    33A     -0.491422
      34A     -0.444685    35A     -0.432138    36A     -0.401297

  @DF-RHF Final Energy:  -439.13549923068632

   => Energetics <=

    Nuclear Repulsion Energy =            484.8112395341620413
    One-Electron Energy =               -1560.1775041778419109
    Two-Electron Energy =                 636.2307654129936054
    Total Energy =                       -439.1354992306862641
  Basis Set: (AUG-CC-PVTZ AUX)
    Blend: AUG-CC-PVTZ-RI
    Molecular point group: c1

    Geometry (in Angstrom), charge = 0, multiplicity = 1:

       Center              X                  Y                   Z               Mass
    ------------   -----------------  -----------------  -----------------  -----------------
         O            2.849916047745    -0.526030124239    -0.434717134225    15.994914619570
         O            0.492793047745    -1.509771124239     0.183838865775    15.994914619570
         N           -0.655482952255     0.381209875761    -0.375395134225    14.003074004430
         C           -1.976560952255    -0.186140124239    -0.108007134225    12.000000000000
         C            1.804432047745     0.423168875761    -0.376527134225    12.000000000000
         C           -3.012460952255     0.566450875761    -0.930730134225    12.000000000000
         C           -2.284403952255    -0.164341124239     1.385899865775    12.000000000000
         C            0.483173047745    -0.321971124239    -0.173408134225    12.000000000000
         C            2.042386047745     1.406693875761     0.767623865775    12.000000000000
         H           -1.927635952255    -1.227359124239    -0.441958134225     1.007825032230
         H           -0.589343952255     1.362441875761    -0.620104134225     1.007825032230
         H            1.769023947745     0.989163475761    -1.376430134225     1.007825032230
         H           -4.004514952255     0.133935875761    -0.776870134225     1.007825032230
         H           -3.057646952255     1.618614875761    -0.627028134225     1.007825032230
         H           -2.776110952255     0.519225875761    -1.997154134225     1.007825032230
         H           -1.517447952255    -0.718681124239     1.931251865775     1.007825032230
         H           -3.256160952255    -0.626671124239     1.585927865775     1.007825032230
         H           -2.308511952255     0.866196875761     1.754498865775     1.007825032230
         H            3.027745047745     1.862669875761     0.648925865775     1.007825032230
         H            2.021590047745     0.866671875761     1.718131865775     1.007825032230
         H            1.287620047745     2.199597875761     0.793270865775     1.007825032230
         H            2.434658047745    -1.358548124239    -0.120557134225     1.007825032230

  Basis Set: AUG-CC-PVTZ
    Blend: AUG-CC-PVTZ
  Basis Set: (AUG-CC-PVTZ AUX)
    Blend: AUG-CC-PVTZ-JKFIT
	 Reference Energy          =    -439.1354992306863210 [Eh]
	 Singles Energy            =      -0.0000000000000000 [Eh]
	 Same-Spin Energy          =      -0.4460191533553562 [Eh]
	 Opposite-Spin Energy      =      -1.4642070644569132 [Eh]
	 Correlation Energy        =      -1.9102262178122693 [Eh]
	 Total Energy              =    -441.0457254484986152 [Eh]

	 ================> DF-SCS-MP2 Energies <==================
	-----------------------------------------------------------
	 SCS Same-Spin Scale       =       0.3333333333333333 [-]
	 SCS Opposite-Spin Scale   =       1.2000000000000000 [-]
	 SCS Same-Spin Energy      =      -0.1486730511184521 [Eh]
	 SCS Opposite-Spin Energy  =      -1.7570484773482957 [Eh]
	 SCS Correlation Energy    =      -1.9057215284667477 [Eh]
	 SCS Total Energy          =    -441.0412207591530773 [Eh]
	-----------------------------------------------------------

  Dipole Moment: [D]
     X:    -3.3731      Y:     3.1036      Z:    -0.1573     Total:     4.5864

*** Psi4 exiting successfully. Buy a developer a beer!
