                               Psi4 1.3.2 release

  ==> Input File <==

--------------------------------------------------------------------------
#psi4
#
memory 32 gb

molecule  {
0 1
  O       -2.8756320     0.4615000    -0.3051040
  O       -0.5220660     1.5374290     0.0548780
  N        0.6562510    -0.3746370    -0.3360270
  C        1.9647450     0.2268840    -0.0956960
  C       -1.8012180    -0.4504720    -0.3698720
  C        3.0067800    -0.5070980    -0.9241520
  C        2.2930000     0.2310680     1.3932270
  C       -0.5055405     0.3524197    -0.2381113
  C       -2.0188506    -1.5258102     0.6881588
  H        1.8788190     1.2611790    -0.4401960
  H        0.6035260    -1.3822150    -0.4365740
  H       -1.7868920    -0.9288770    -1.3618540
  H        3.9904500    -0.0508330    -0.7882090
  H        3.0812650    -1.5550640    -0.6116920
  H        2.7529100    -0.4768670    -1.9861430
  H        1.5225120     0.7762450     1.9430400
  H        3.2574000     0.7146530     1.5762130
  H        2.3438960    -0.7932520     1.7757830
  H       -2.9590570    -1.9673470     0.6070900
  H       -1.9090200    -1.0432980     1.6949070
  H       -1.2193110    -2.3035120     0.6420620
  H       -2.4442120     1.3312090    -0.1521090
units angstrom
no_reorient  #important for SAPT in psi4, default
symmetry c1  #important for SAPT in psi4, default
}

set PROPERTIES_ORIGIN ["COM"]
properties('MP2/aug-cc-pvtz', properties = ['dipole'])
--------------------------------------------------------------------------

    Molecular point group: c1
  Charge       = 0
  Multiplicity = 1
  Basis Set: AUG-CC-PVTZ
    Blend: AUG-CC-PVTZ
  Basis Set: (AUG-CC-PVTZ AUX)
    Blend: AUG-CC-PVTZ-JKFIT

    Orbital Energies [Eh]
    ---------------------

    Doubly Occupied:

       1A    -20.547645     2A    -20.538641     3A    -15.591648
       4A    -11.360676     5A    -11.297279     6A    -11.275345
       7A    -11.231910     8A    -11.230681     9A    -11.220841
      10A     -1.408053    11A     -1.349208    12A     -1.242466
      13A     -1.068623    14A     -1.022096    15A     -0.948245
      16A     -0.897338    17A     -0.819670    18A     -0.791016
      19A     -0.736845    20A     -0.679205    21A     -0.650012
      22A     -0.636286    23A     -0.626636    24A     -0.597755
      25A     -0.585385    26A     -0.570180    27A     -0.553782
      28A     -0.551596    29A     -0.537887    30A     -0.523454
      31A     -0.514519    32A     -0.503467    33A     -0.491092
      34A     -0.444936    35A     -0.437158    36A     -0.399150

  @DF-RHF Final Energy:  -439.13351225912180

   => Energetics <=

    Nuclear Repulsion Energy =            484.8711574057739995
    One-Electron Energy =               -1560.2478852761746566
    Two-Electron Energy =                 636.2432156112788562
    Total Energy =                       -439.1335122591217441
  Basis Set: (AUG-CC-PVTZ AUX)
    Blend: AUG-CC-PVTZ-RI
    Molecular point group: c1

    Geometry (in Angstrom), charge = 0, multiplicity = 1:

       Center              X                  Y                   Z               Mass
    ------------   -----------------  -----------------  -----------------  -----------------
         O           -2.870248275509     0.460109194296    -0.299127288792    15.994914619570
         O           -0.516682275509     1.536038194296     0.060854711208    15.994914619570
         N            0.661634724491    -0.376027805704    -0.330050288792    14.003074004430
         C            1.970128724491     0.225493194296    -0.089719288792    12.000000000000
         C           -1.795834275509    -0.451862805704    -0.363895288792    12.000000000000
         C            3.012163724491    -0.508488805704    -0.918175288792    12.000000000000
         C            2.298383724491     0.229677194296     1.399203711208    12.000000000000
         C           -0.500156775509     0.351028894296    -0.232134588792    12.000000000000
         C           -2.013466875509    -1.527201005704     0.694135511208    12.000000000000
         H            1.884202724491     1.259788194296    -0.434219288792     1.007825032230
         H            0.608909724491    -1.383605805704    -0.430597288792     1.007825032230
         H           -1.781508275509    -0.930267805704    -1.355877288792     1.007825032230
         H            3.995833724491    -0.052223805704    -0.782232288792     1.007825032230
         H            3.086648724491    -1.556454805704    -0.605715288792     1.007825032230
         H            2.758293724491    -0.478257805704    -1.980166288792     1.007825032230
         H            1.527895724491     0.774854194296     1.949016711208     1.007825032230
         H            3.262783724491     0.713262194296     1.582189711208     1.007825032230
         H            2.349279724491    -0.794642805704     1.781759711208     1.007825032230
         H           -2.953673275509    -1.968737805704     0.613066711208     1.007825032230
         H           -1.903636275509    -1.044688805704     1.700883711208     1.007825032230
         H           -1.213927275509    -2.304902805704     0.648038711208     1.007825032230
         H           -2.438828275509     1.329818194296    -0.146132288792     1.007825032230

  Basis Set: AUG-CC-PVTZ
    Blend: AUG-CC-PVTZ
  Basis Set: (AUG-CC-PVTZ AUX)
    Blend: AUG-CC-PVTZ-JKFIT
	 Reference Energy          =    -439.1335122591218010 [Eh]
	 Singles Energy            =      -0.0000000000000000 [Eh]
	 Same-Spin Energy          =      -0.4457023457030802 [Eh]
	 Opposite-Spin Energy      =      -1.4632670052769507 [Eh]
	 Correlation Energy        =      -1.9089693509800310 [Eh]
	 Total Energy              =    -441.0424816101018450 [Eh]

	 ================> DF-SCS-MP2 Energies <==================
	-----------------------------------------------------------
	 SCS Same-Spin Scale       =       0.3333333333333333 [-]
	 SCS Opposite-Spin Scale   =       1.2000000000000000 [-]
	 SCS Same-Spin Energy      =      -0.1485674485676934 [Eh]
	 SCS Opposite-Spin Energy  =      -1.7559204063323408 [Eh]
	 SCS Correlation Energy    =      -1.9044878549000341 [Eh]
	 SCS Total Energy          =    -441.0380001140218269 [Eh]
	-----------------------------------------------------------

  Dipole Moment: [D]
     X:     3.3081      Y:    -2.9136      Z:    -0.1539     Total:     4.4109

*** Psi4 exiting successfully. Buy a developer a beer!
