                               Psi4 1.3.2 release

  ==> Input File <==

--------------------------------------------------------------------------
#psi4
#
memory 32 gb

molecule  {
0 1
  O       -2.8756320     0.4615000    -0.3051040
  O       -0.5220660     1.5374290     0.0548780
  N        0.6562510    -0.3746370    -0.3360270
  C        1.9647450     0.2268840    -0.0956960
  C       -1.8092008    -0.4596636    -0.3717034
  C        3.0067800    -0.5070980    -0.9241520
  C        2.2930000     0.2310680     1.3932270
  C       -0.4931590     0.3235730    -0.1949090
  C       -1.9724170    -1.5121580     0.7102480
  H        1.8788190     1.2611790    -0.4401960
  H        0.6035260    -1.3822150    -0.4365740
  H       -1.7868920    -0.9288770    -1.3618540
  H        3.9904500    -0.0508330    -0.7882090
  H        3.0812650    -1.5550640    -0.6116920
  H        2.7529100    -0.4768670    -1.9861430
  H        1.5225120     0.7762450     1.9430400
  H        3.2574000     0.7146530     1.5762130
  H        2.3438960    -0.7932520     1.7757830
  H       -2.9590570    -1.9673470     0.6070900
  H       -1.9090200    -1.0432980     1.6949070
  H       -1.2193110    -2.3035120     0.6420620
  H       -2.4519162     1.3349773    -0.1520459
units angstrom
no_reorient  #important for SAPT in psi4, default
symmetry c1  #important for SAPT in psi4, default
}

set PROPERTIES_ORIGIN ["COM"]
properties('MP2/aug-cc-pvtz', properties = ['dipole'])
--------------------------------------------------------------------------

    Molecular point group: c1
  Charge       = 0
  Multiplicity = 1
  Basis Set: AUG-CC-PVTZ
    Blend: AUG-CC-PVTZ
  Basis Set: (AUG-CC-PVTZ AUX)
    Blend: AUG-CC-PVTZ-JKFIT

    Orbital Energies [Eh]
    ---------------------

    Doubly Occupied:

       1A    -20.547362     2A    -20.532110     3A    -15.595440
       4A    -11.358050     5A    -11.297453     6A    -11.277006
       7A    -11.232170     8A    -11.230482     9A    -11.222154
      10A     -1.396202    11A     -1.345413    12A     -1.247566
      13A     -1.071822    14A     -1.024733    15A     -0.949718
      16A     -0.893332    17A     -0.822552    18A     -0.794945
      19A     -0.735217    20A     -0.679135    21A     -0.650445
      22A     -0.632128    23A     -0.628531    24A     -0.596899
      25A     -0.582075    26A     -0.568048    27A     -0.554940
      28A     -0.547741    29A     -0.539326    30A     -0.530601
      31A     -0.510925    32A     -0.502622    33A     -0.491206
      34A     -0.446214    35A     -0.432382    36A     -0.401189

  @DF-RHF Final Energy:  -439.13784210436944

   => Energetics <=

    Nuclear Repulsion Energy =            485.1580740754574208
    One-Electron Energy =               -1560.8555655305967775
    Two-Electron Energy =                 636.5596493507698597
    Total Energy =                       -439.1378421043693834
  Basis Set: (AUG-CC-PVTZ AUX)
    Blend: AUG-CC-PVTZ-RI
    Molecular point group: c1

    Geometry (in Angstrom), charge = 0, multiplicity = 1:

       Center              X                  Y                   Z               Mass
    ------------   -----------------  -----------------  -----------------  -----------------
         O           -2.874842080156     0.462312453239    -0.304936716696    15.994914619570
         O           -0.521276080156     1.538241453239     0.055045283304    15.994914619570
         N            0.657040919844    -0.373824546761    -0.335859716696    14.003074004430
         C            1.965534919844     0.227696453239    -0.095528716696    12.000000000000
         C           -1.808410880156    -0.458851146761    -0.371536116696    12.000000000000
         C            3.007569919844    -0.506285546761    -0.923984716696    12.000000000000
         C            2.293789919844     0.231880453239     1.393394283304    12.000000000000
         C           -0.492369080156     0.324385453239    -0.194741716696    12.000000000000
         C           -1.971627080156    -1.511345546761     0.710415283304    12.000000000000
         H            1.879608919844     1.261991453239    -0.440028716696     1.007825032230
         H            0.604315919844    -1.381402546761    -0.436406716696     1.007825032230
         H           -1.786102080156    -0.928064546761    -1.361686716696     1.007825032230
         H            3.991239919844    -0.050020546761    -0.788041716696     1.007825032230
         H            3.082054919844    -1.554251546761    -0.611524716696     1.007825032230
         H            2.753699919844    -0.476054546761    -1.985975716696     1.007825032230
         H            1.523301919844     0.777057453239     1.943207283304     1.007825032230
         H            3.258189919844     0.715465453239     1.576380283304     1.007825032230
         H            2.344685919844    -0.792439546761     1.775950283304     1.007825032230
         H           -2.958267080156    -1.966534546761     0.607257283304     1.007825032230
         H           -1.908230080156    -1.042485546761     1.695074283304     1.007825032230
         H           -1.218521080156    -2.302699546761     0.642229283304     1.007825032230
         H           -2.451126280156     1.335789753239    -0.151878616696     1.007825032230

  Basis Set: AUG-CC-PVTZ
    Blend: AUG-CC-PVTZ
  Basis Set: (AUG-CC-PVTZ AUX)
    Blend: AUG-CC-PVTZ-JKFIT
	 Reference Energy          =    -439.1378421043694402 [Eh]
	 Singles Energy            =      -0.0000000000000000 [Eh]
	 Same-Spin Energy          =      -0.4459732262278064 [Eh]
	 Opposite-Spin Energy      =      -1.4635434148486102 [Eh]
	 Correlation Energy        =      -1.9095166410764166 [Eh]
	 Total Energy              =    -441.0473587454458766 [Eh]

	 ================> DF-SCS-MP2 Energies <==================
	-----------------------------------------------------------
	 SCS Same-Spin Scale       =       0.3333333333333333 [-]
	 SCS Opposite-Spin Scale   =       1.2000000000000000 [-]
	 SCS Same-Spin Energy      =      -0.1486577420759355 [Eh]
	 SCS Opposite-Spin Energy  =      -1.7562520978183322 [Eh]
	 SCS Correlation Energy    =      -1.9049098398942677 [Eh]
	 SCS Total Energy          =    -441.0427519442637276 [Eh]
	-----------------------------------------------------------

  Dipole Moment: [D]
     X:     3.4466      Y:    -3.0605      Z:    -0.1428     Total:     4.6115

*** Psi4 exiting successfully. Buy a developer a beer!
