                               Psi4 1.3.2 release

  ==> Input File <==

--------------------------------------------------------------------------
#psi4
#
memory 32 gb

molecule  {
0 1
  O       -2.8756320     0.4615000    -0.3051040
  O       -0.4571713     1.5370958     0.0555764
  N        0.6562510    -0.3746370    -0.3360270
  C        1.9647450     0.2268840    -0.0956960
  C       -1.7579033    -0.5165625    -0.3829787
  C        3.0067800    -0.5070980    -0.9241520
  C        2.2930000     0.2310680     1.3932270
  C       -0.4931590     0.3235730    -0.1949090
  C       -1.9724170    -1.5121580     0.7102480
  H        1.8788190     1.2611790    -0.4401960
  H        0.6035260    -1.3822150    -0.4365740
  H       -1.7868920    -0.9288770    -1.3618540
  H        3.9904500    -0.0508330    -0.7882090
  H        3.0812650    -1.5550640    -0.6116920
  H        2.7529100    -0.4768670    -1.9861430
  H        1.5225120     0.7762450     1.9430400
  H        3.2574000     0.7146530     1.5762130
  H        2.3438960    -0.7932520     1.7757830
  H       -2.9590570    -1.9673470     0.6070900
  H       -1.9090200    -1.0432980     1.6949070
  H       -1.2193110    -2.3035120     0.6420620
  H       -2.4442120     1.3312090    -0.1521090
units angstrom
no_reorient  #important for SAPT in psi4, default
symmetry c1  #important for SAPT in psi4, default
}

set PROPERTIES_ORIGIN ["COM"]
properties('MP2/aug-cc-pvtz', properties = ['dipole'])
--------------------------------------------------------------------------

    Molecular point group: c1
  Charge       = 0
  Multiplicity = 1
  Basis Set: AUG-CC-PVTZ
    Blend: AUG-CC-PVTZ
  Basis Set: (AUG-CC-PVTZ AUX)
    Blend: AUG-CC-PVTZ-JKFIT

    Orbital Energies [Eh]
    ---------------------

    Doubly Occupied:

       1A    -20.543708     2A    -20.532795     3A    -15.592881
       4A    -11.360221     5A    -11.300682     6A    -11.274945
       7A    -11.234430     8A    -11.231075     9A    -11.221086
      10A     -1.392747    11A     -1.324773    12A     -1.245266
      13A     -1.075745    14A     -1.032049    15A     -0.948560
      16A     -0.899843    17A     -0.822064    18A     -0.794638
      19A     -0.729253    20A     -0.677025    21A     -0.649769
      22A     -0.631271    23A     -0.626868    24A     -0.596666
      25A     -0.580305    26A     -0.568419    27A     -0.553640
      28A     -0.549124    29A     -0.532495    30A     -0.531940
      31A     -0.507911    32A     -0.501380    33A     -0.489101
      34A     -0.452928    35A     -0.436687    36A     -0.399737

  @DF-RHF Final Energy:  -439.12858534579129

   => Energetics <=

    Nuclear Repulsion Energy =            485.0371716693848043
    One-Electron Energy =               -1560.6474606060660335
    Two-Electron Energy =                 636.4817035908898788
    Total Energy =                       -439.1285853457912935
  Basis Set: (AUG-CC-PVTZ AUX)
    Blend: AUG-CC-PVTZ-RI
    Molecular point group: c1

    Geometry (in Angstrom), charge = 0, multiplicity = 1:

       Center              X                  Y                   Z               Mass
    ------------   -----------------  -----------------  -----------------  -----------------
         O           -2.887514755523     0.467590427628    -0.303989337336    15.994914619570
         O           -0.469054055523     1.543186227628     0.056691062664    15.994914619570
         N            0.644368244477    -0.368546572372    -0.334912337336    14.003074004430
         C            1.952862244477     0.232974427628    -0.094581337336    12.000000000000
         C           -1.769786055523    -0.510472072372    -0.381864037336    12.000000000000
         C            2.994897244477    -0.501007572372    -0.923037337336    12.000000000000
         C            2.281117244477     0.237158427628     1.394341662664    12.000000000000
         C           -0.505041755523     0.329663427628    -0.193794337336    12.000000000000
         C           -1.984299755523    -1.506067572372     0.711362662664    12.000000000000
         H            1.866936244477     1.267269427628    -0.439081337336     1.007825032230
         H            0.591643244477    -1.376124572372    -0.435459337336     1.007825032230
         H           -1.798774755523    -0.922786572372    -1.360739337336     1.007825032230
         H            3.978567244477    -0.044742572372    -0.787094337336     1.007825032230
         H            3.069382244477    -1.548973572372    -0.610577337336     1.007825032230
         H            2.741027244477    -0.470776572372    -1.985028337336     1.007825032230
         H            1.510629244477     0.782335427628     1.944154662664     1.007825032230
         H            3.245517244477     0.720743427628     1.577327662664     1.007825032230
         H            2.332013244477    -0.787161572372     1.776897662664     1.007825032230
         H           -2.970939755523    -1.961256572372     0.608204662664     1.007825032230
         H           -1.920902755523    -1.037207572372     1.696021662664     1.007825032230
         H           -1.231193755523    -2.297421572372     0.643176662664     1.007825032230
         H           -2.456094755523     1.337299427628    -0.150994337336     1.007825032230

  Basis Set: AUG-CC-PVTZ
    Blend: AUG-CC-PVTZ
  Basis Set: (AUG-CC-PVTZ AUX)
    Blend: AUG-CC-PVTZ-JKFIT
	 Reference Energy          =    -439.1285853457912935 [Eh]
	 Singles Energy            =      -0.0000000000000000 [Eh]
	 Same-Spin Energy          =      -0.4465127223448022 [Eh]
	 Opposite-Spin Energy      =      -1.4657232078093783 [Eh]
	 Correlation Energy        =      -1.9122359301541805 [Eh]
	 Total Energy              =    -441.0408212759454614 [Eh]

	 ================> DF-SCS-MP2 Energies <==================
	-----------------------------------------------------------
	 SCS Same-Spin Scale       =       0.3333333333333333 [-]
	 SCS Opposite-Spin Scale   =       1.2000000000000000 [-]
	 SCS Same-Spin Energy      =      -0.1488375741149341 [Eh]
	 SCS Opposite-Spin Energy  =      -1.7588678493712540 [Eh]
	 SCS Correlation Energy    =      -1.9077054234861881 [Eh]
	 SCS Total Energy          =    -441.0362907692774570 [Eh]
	-----------------------------------------------------------

  Dipole Moment: [D]
     X:     3.3828      Y:    -3.2567      Z:    -0.1384     Total:     4.6977

*** Psi4 exiting successfully. Buy a developer a beer!
