                               Psi4 1.3.2 release

  ==> Input File <==

--------------------------------------------------------------------------
#psi4
#
memory 32 gb

molecule  {
0 1
  O       -2.8756320     0.4615000    -0.3051040
  O       -0.5220660     1.5374290     0.0548780
  N        0.6562510    -0.3746370    -0.3360270
  C        1.9647450     0.2268840    -0.0956960
  C       -1.7701108    -0.4130182    -0.3624984
  C        3.0067800    -0.5070980    -0.9241520
  C        2.2930000     0.2310680     1.3932270
  C       -0.4931590     0.3235730    -0.1949090
  C       -1.9724170    -1.5121580     0.7102480
  H        1.8788190     1.2611790    -0.4401960
  H        0.6035260    -1.3822150    -0.4365740
  H       -1.7868920    -0.9288770    -1.3618540
  H        3.9904500    -0.0508330    -0.7882090
  H        3.0812650    -1.5550640    -0.6116920
  H        2.7529100    -0.4768670    -1.9861430
  H        1.5225120     0.7762450     1.9430400
  H        3.2574000     0.7146530     1.5762130
  H        2.3438960    -0.7932520     1.7757830
  H       -2.9590570    -1.9673470     0.6070900
  H       -1.9090200    -1.0432980     1.6949070
  H       -1.2193110    -2.3035120     0.6420620
  H       -2.4137295     1.3154764    -0.1524777
units angstrom
no_reorient  #important for SAPT in psi4, default
symmetry c1  #important for SAPT in psi4, default
}

set PROPERTIES_ORIGIN ["COM"]
properties('MP2/aug-cc-pvtz', properties = ['dipole'])
--------------------------------------------------------------------------

    Molecular point group: c1
  Charge       = 0
  Multiplicity = 1
  Basis Set: AUG-CC-PVTZ
    Blend: AUG-CC-PVTZ
  Basis Set: (AUG-CC-PVTZ AUX)
    Blend: AUG-CC-PVTZ-JKFIT

    Orbital Energies [Eh]
    ---------------------

    Doubly Occupied:

       1A    -20.549486     2A    -20.533761     3A    -15.596629
       4A    -11.358783     5A    -11.297264     6A    -11.278054
       7A    -11.232795     8A    -11.232302     9A    -11.222776
      10A     -1.401737    11A     -1.347995    12A     -1.249567
      13A     -1.074135    14A     -1.020708    15A     -0.950374
      16A     -0.902237    17A     -0.822074    18A     -0.794986
      19A     -0.740848    20A     -0.678663    21A     -0.647878
      22A     -0.632919    23A     -0.629426    24A     -0.597524
      25A     -0.581353    26A     -0.563086    27A     -0.555777
      28A     -0.549933    29A     -0.540060    30A     -0.528661
      31A     -0.518240    32A     -0.503459    33A     -0.492585
      34A     -0.441708    35A     -0.439049    36A     -0.402106

  @DF-RHF Final Energy:  -439.13417746114698

   => Energetics <=

    Nuclear Repulsion Energy =            486.0419498174972546
    One-Electron Energy =               -1562.5343754304151389
    Two-Electron Energy =                 637.3582481517709084
    Total Energy =                       -439.1341774611470328
  Basis Set: (AUG-CC-PVTZ AUX)
    Blend: AUG-CC-PVTZ-RI
    Molecular point group: c1

    Geometry (in Angstrom), charge = 0, multiplicity = 1:

       Center              X                  Y                   Z               Mass
    ------------   -----------------  -----------------  -----------------  -----------------
         O           -2.878713829269     0.458192594856    -0.305775994569    15.994914619570
         O           -0.525147829269     1.534121594856     0.054206005431    15.994914619570
         N            0.653169170731    -0.377944405144    -0.336698994569    14.003074004430
         C            1.961663170731     0.223576594856    -0.096367994569    12.000000000000
         C           -1.773192629269    -0.416325605144    -0.363170394569    12.000000000000
         C            3.003698170731    -0.510405405144    -0.924823994569    12.000000000000
         C            2.289918170731     0.227760594856     1.392555005431    12.000000000000
         C           -0.496240829269     0.320265594856    -0.195580994569    12.000000000000
         C           -1.975498829269    -1.515465405144     0.709576005431    12.000000000000
         H            1.875737170731     1.257871594856    -0.440867994569     1.007825032230
         H            0.600444170731    -1.385522405144    -0.437245994569     1.007825032230
         H           -1.789973829269    -0.932184405144    -1.362525994569     1.007825032230
         H            3.987368170731    -0.054140405144    -0.788880994569     1.007825032230
         H            3.078183170731    -1.558371405144    -0.612363994569     1.007825032230
         H            2.749828170731    -0.480174405144    -1.986814994569     1.007825032230
         H            1.519430170731     0.772937594856     1.942368005431     1.007825032230
         H            3.254318170731     0.711345594856     1.575541005431     1.007825032230
         H            2.340814170731    -0.796559405144     1.775111005431     1.007825032230
         H           -2.962138829269    -1.970654405144     0.606418005431     1.007825032230
         H           -1.912101829269    -1.046605405144     1.694235005431     1.007825032230
         H           -1.222392829269    -2.306819405144     0.641390005431     1.007825032230
         H           -2.416811329269     1.312168994856    -0.153149694569     1.007825032230

  Basis Set: AUG-CC-PVTZ
    Blend: AUG-CC-PVTZ
  Basis Set: (AUG-CC-PVTZ AUX)
    Blend: AUG-CC-PVTZ-JKFIT
	 Reference Energy          =    -439.1341774611469759 [Eh]
	 Singles Energy            =      -0.0000000000000000 [Eh]
	 Same-Spin Energy          =      -0.4464325671619623 [Eh]
	 Opposite-Spin Energy      =      -1.4642924063903464 [Eh]
	 Correlation Energy        =      -1.9107249735523086 [Eh]
	 Total Energy              =    -441.0449024346992815 [Eh]

	 ================> DF-SCS-MP2 Energies <==================
	-----------------------------------------------------------
	 SCS Same-Spin Scale       =       0.3333333333333333 [-]
	 SCS Opposite-Spin Scale   =       1.2000000000000000 [-]
	 SCS Same-Spin Energy      =      -0.1488108557206541 [Eh]
	 SCS Opposite-Spin Energy  =      -1.7571508876684157 [Eh]
	 SCS Correlation Energy    =      -1.9059617433890699 [Eh]
	 SCS Total Energy          =    -441.0401392045360467 [Eh]
	-----------------------------------------------------------

  Dipole Moment: [D]
     X:     3.4995      Y:    -3.0605      Z:    -0.1432     Total:     4.6512

*** Psi4 exiting successfully. Buy a developer a beer!
