                               Psi4 1.3.2 release

  ==> Input File <==

--------------------------------------------------------------------------
#psi4
#
memory 32 gb

molecule  {
0 1
  O       -2.8756320     0.4615000    -0.3051040
  O       -0.5220660     1.5374290     0.0548780
  N        0.6562510    -0.3746370    -0.3360270
  C        1.9647450     0.2268840    -0.0956960
  C       -1.8012180    -0.4504720    -0.3698720
  C        3.0067800    -0.5070980    -0.9241520
  C        2.2930000     0.2310680     1.3932270
  C       -0.3221664     0.4247580    -0.1720374
  C       -1.9724170    -1.5121580     0.7102480
  H        1.8788190     1.2611790    -0.4401960
  H        0.6035260    -1.3822150    -0.4365740
  H       -1.7868920    -0.9288770    -1.3618540
  H        3.9904500    -0.0508330    -0.7882090
  H        3.0812650    -1.5550640    -0.6116920
  H        2.7529100    -0.4768670    -1.9861430
  H        1.5225120     0.7762450     1.9430400
  H        3.2574000     0.7146530     1.5762130
  H        2.3438960    -0.7932520     1.7757830
  H       -2.9590570    -1.9673470     0.6070900
  H       -1.9090200    -1.0432980     1.6949070
  H       -1.2193110    -2.3035120     0.6420620
  H       -2.4442120     1.3312090    -0.1521090
units angstrom
no_reorient  #important for SAPT in psi4, default
symmetry c1  #important for SAPT in psi4, default
}

set PROPERTIES_ORIGIN ["COM"]
properties('MP2/aug-cc-pvtz', properties = ['dipole'])
--------------------------------------------------------------------------

    Molecular point group: c1
  Charge       = 0
  Multiplicity = 1
  Basis Set: AUG-CC-PVTZ
    Blend: AUG-CC-PVTZ
  Basis Set: (AUG-CC-PVTZ AUX)
    Blend: AUG-CC-PVTZ-JKFIT

    Orbital Energies [Eh]
    ---------------------

    Doubly Occupied:

       1A    -20.540870     2A    -20.537477     3A    -15.602450
       4A    -11.349875     5A    -11.281654     6A    -11.277722
       7A    -11.236915     8A    -11.228898     9A    -11.216746
      10A     -1.444707    11A     -1.339081    12A     -1.288782
      13A     -1.074878    14A     -1.003115    15A     -0.956662
      16A     -0.868782    17A     -0.832499    18A     -0.809641
      19A     -0.717979    20A     -0.689825    21A     -0.655713
      22A     -0.644766    23A     -0.629869    24A     -0.617742
      25A     -0.575617    26A     -0.562288    27A     -0.557599
      28A     -0.552422    29A     -0.548583    30A     -0.523959
      31A     -0.521235    32A     -0.513301    33A     -0.500161
      34A     -0.434916    35A     -0.416864    36A     -0.379060

  @DF-RHF Final Energy:  -439.10083543795349

   => Energetics <=

    Nuclear Repulsion Energy =            486.2728263845125980
    One-Electron Energy =               -1562.8820251644335713
    Two-Electron Energy =                 637.5083633419674243
    Total Energy =                       -439.1008354379534921
  Basis Set: (AUG-CC-PVTZ AUX)
    Blend: AUG-CC-PVTZ-RI
    Molecular point group: c1

    Geometry (in Angstrom), charge = 0, multiplicity = 1:

       Center              X                  Y                   Z               Mass
    ------------   -----------------  -----------------  -----------------  -----------------
         O           -2.891284167125     0.452237887817    -0.307197468408    15.994914619570
         O           -0.537718167125     1.528166887817     0.052784531592    15.994914619570
         N            0.640598832875    -0.383899112183    -0.338120468408    14.003074004430
         C            1.949092832875     0.217621887817    -0.097789468408    12.000000000000
         C           -1.816870167125    -0.459734112183    -0.371965468408    12.000000000000
         C            2.991127832875    -0.516360112183    -0.926245468408    12.000000000000
         C            2.277347832875     0.221805887817     1.391133531592    12.000000000000
         C           -0.337818567125     0.415495887817    -0.174130868408    12.000000000000
         C           -1.988069167125    -1.521420112183     0.708154531592    12.000000000000
         H            1.863166832875     1.251916887817    -0.442289468408     1.007825032230
         H            0.587873832875    -1.391477112183    -0.438667468408     1.007825032230
         H           -1.802544167125    -0.938139112183    -1.363947468408     1.007825032230
         H            3.974797832875    -0.060095112183    -0.790302468408     1.007825032230
         H            3.065612832875    -1.564326112183    -0.613785468408     1.007825032230
         H            2.737257832875    -0.486129112183    -1.988236468408     1.007825032230
         H            1.506859832875     0.766982887817     1.940946531592     1.007825032230
         H            3.241747832875     0.705390887817     1.574119531592     1.007825032230
         H            2.328243832875    -0.802514112183     1.773689531592     1.007825032230
         H           -2.974709167125    -1.976609112183     0.604996531592     1.007825032230
         H           -1.924672167125    -1.052560112183     1.692813531592     1.007825032230
         H           -1.234963167125    -2.312774112183     0.639968531592     1.007825032230
         H           -2.459864167125     1.321946887817    -0.154202468408     1.007825032230

  Basis Set: AUG-CC-PVTZ
    Blend: AUG-CC-PVTZ
  Basis Set: (AUG-CC-PVTZ AUX)
    Blend: AUG-CC-PVTZ-JKFIT
	 Reference Energy          =    -439.1008354379534921 [Eh]
	 Singles Energy            =      -0.0000000000000000 [Eh]
	 Same-Spin Energy          =      -0.4454839011822829 [Eh]
	 Opposite-Spin Energy      =      -1.4621517515812048 [Eh]
	 Correlation Energy        =      -1.9076356527634877 [Eh]
	 Total Energy              =    -441.0084710907169665 [Eh]

	 ================> DF-SCS-MP2 Energies <==================
	-----------------------------------------------------------
	 SCS Same-Spin Scale       =       0.3333333333333333 [-]
	 SCS Opposite-Spin Scale   =       1.2000000000000000 [-]
	 SCS Same-Spin Energy      =      -0.1484946337274276 [Eh]
	 SCS Opposite-Spin Energy  =      -1.7545821018974457 [Eh]
	 SCS Correlation Energy    =      -1.9030767356248732 [Eh]
	 SCS Total Energy          =    -441.0039121735783851 [Eh]
	-----------------------------------------------------------

  Dipole Moment: [D]
     X:     4.4096      Y:    -2.5563      Z:    -0.0947     Total:     5.0979

*** Psi4 exiting successfully. Buy a developer a beer!
