                               Psi4 1.3.2 release

  ==> Input File <==

--------------------------------------------------------------------------
#psi4
#
memory 32 gb

molecule  {
0 1
  O       -2.8756320     0.4615000    -0.3051040
  O       -0.5220660     1.5374290     0.0548780
  N        0.6562510    -0.3746370    -0.3360270
  C        1.9647450     0.2268840    -0.0956960
  C       -1.8012180    -0.4504720    -0.3698720
  C        3.0067800    -0.5070980    -0.9241520
  C        2.2930000     0.2310680     1.3932270
  C       -0.5786553     0.2729805    -0.2063448
  C       -1.9724170    -1.5121580     0.7102480
  H        1.8788190     1.2611790    -0.4401960
  H        0.6035260    -1.3822150    -0.4365740
  H       -1.7868920    -0.9288770    -1.3618540
  H        3.9904500    -0.0508330    -0.7882090
  H        3.0812650    -1.5550640    -0.6116920
  H        2.7529100    -0.4768670    -1.9861430
  H        1.5225120     0.7762450     1.9430400
  H        3.2574000     0.7146530     1.5762130
  H        2.3438960    -0.7932520     1.7757830
  H       -2.9590570    -1.9673470     0.6070900
  H       -1.9090200    -1.0432980     1.6949070
  H       -1.2193110    -2.3035120     0.6420620
  H       -2.4442120     1.3312090    -0.1521090
units angstrom
no_reorient  #important for SAPT in psi4, default
symmetry c1  #important for SAPT in psi4, default
}

set PROPERTIES_ORIGIN ["COM"]
properties('MP2/aug-cc-pvtz', properties = ['dipole'])
--------------------------------------------------------------------------

    Molecular point group: c1
  Charge       = 0
  Multiplicity = 1
  Basis Set: AUG-CC-PVTZ
    Blend: AUG-CC-PVTZ
  Basis Set: (AUG-CC-PVTZ AUX)
    Blend: AUG-CC-PVTZ-JKFIT

    Orbital Energies [Eh]
    ---------------------

    Doubly Occupied:

       1A    -20.552808     2A    -20.530972     3A    -15.593895
       4A    -11.367663     5A    -11.300823     6A    -11.275691
       7A    -11.238090     8A    -11.230320     9A    -11.219367
      10A     -1.387152    11A     -1.336065    12A     -1.229563
      13A     -1.079026    14A     -1.030875    15A     -0.946969
      16A     -0.916618    17A     -0.822477    18A     -0.780781
      19A     -0.744688    20A     -0.681873    21A     -0.650667
      22A     -0.626650    23A     -0.626370    24A     -0.586222
      25A     -0.581730    26A     -0.572712    27A     -0.552868
      28A     -0.548242    29A     -0.539694    30A     -0.522867
      31A     -0.515072    32A     -0.497053    33A     -0.486708
      34A     -0.450120    35A     -0.442622    36A     -0.393031

  @DF-RHF Final Energy:  -439.11801594146539

   => Energetics <=

    Nuclear Repulsion Energy =            484.9747074452335482
    One-Electron Energy =               -1560.4687674864742348
    Two-Electron Energy =                 636.3760440997751857
    Total Energy =                       -439.1180159414653872
  Basis Set: (AUG-CC-PVTZ AUX)
    Blend: AUG-CC-PVTZ-RI
    Molecular point group: c1

    Geometry (in Angstrom), charge = 0, multiplicity = 1:

       Center              X                  Y                   Z               Mass
    ------------   -----------------  -----------------  -----------------  -----------------
         O           -2.867805960341     0.466131134387    -0.304057074296    15.994914619570
         O           -0.514239960341     1.542060134387     0.055924925704    15.994914619570
         N            0.664077039659    -0.370005865613    -0.334980074296    14.003074004430
         C            1.972571039659     0.231515134387    -0.094649074296    12.000000000000
         C           -1.793391960341    -0.445840865613    -0.368825074296    12.000000000000
         C            3.014606039659    -0.502466865613    -0.923105074296    12.000000000000
         C            2.300826039659     0.235699134387     1.394273925704    12.000000000000
         C           -0.570829260341     0.277611634387    -0.205297874296    12.000000000000
         C           -1.964590960341    -1.507526865613     0.711294925704    12.000000000000
         H            1.886645039659     1.265810134387    -0.439149074296     1.007825032230
         H            0.611352039659    -1.377583865613    -0.435527074296     1.007825032230
         H           -1.779065960341    -0.924245865613    -1.360807074296     1.007825032230
         H            3.998276039659    -0.046201865613    -0.787162074296     1.007825032230
         H            3.089091039659    -1.550432865613    -0.610645074296     1.007825032230
         H            2.760736039659    -0.472235865613    -1.985096074296     1.007825032230
         H            1.530338039659     0.780876134387     1.944086925704     1.007825032230
         H            3.265226039659     0.719284134387     1.577259925704     1.007825032230
         H            2.351722039659    -0.788620865613     1.776829925704     1.007825032230
         H           -2.951230960341    -1.962715865613     0.608136925704     1.007825032230
         H           -1.901193960341    -1.038666865613     1.695953925704     1.007825032230
         H           -1.211484960341    -2.298880865613     0.643108925704     1.007825032230
         H           -2.436385960341     1.335840134387    -0.151062074296     1.007825032230

  Basis Set: AUG-CC-PVTZ
    Blend: AUG-CC-PVTZ
  Basis Set: (AUG-CC-PVTZ AUX)
    Blend: AUG-CC-PVTZ-JKFIT
	 Reference Energy          =    -439.1180159414653872 [Eh]
	 Singles Energy            =      -0.0000000000000000 [Eh]
	 Same-Spin Energy          =      -0.4481984187255106 [Eh]
	 Opposite-Spin Energy      =      -1.4678058761432444 [Eh]
	 Correlation Energy        =      -1.9160042948687550 [Eh]
	 Total Energy              =    -441.0340202363341291 [Eh]

	 ================> DF-SCS-MP2 Energies <==================
	-----------------------------------------------------------
	 SCS Same-Spin Scale       =       0.3333333333333333 [-]
	 SCS Opposite-Spin Scale   =       1.2000000000000000 [-]
	 SCS Same-Spin Energy      =      -0.1493994729085035 [Eh]
	 SCS Opposite-Spin Energy  =      -1.7613670513718933 [Eh]
	 SCS Correlation Energy    =      -1.9107665242803968 [Eh]
	 SCS Total Energy          =    -441.0287824657457918 [Eh]
	-----------------------------------------------------------

  Dipole Moment: [D]
     X:     3.0398      Y:    -3.2515      Z:    -0.1546     Total:     4.4538

*** Psi4 exiting successfully. Buy a developer a beer!
