                               Psi4 1.3.2 release

  ==> Input File <==

--------------------------------------------------------------------------
#psi4
#
memory 32 gb

molecule  {
0 1
  O       -2.8756320     0.4615000    -0.3051040
  O       -0.5436901     1.5367596     0.0546914
  N        0.6436442    -0.3941732    -0.3400767
  C        1.9647450     0.2268840    -0.0956960
  C       -1.8012180    -0.4504720    -0.3698720
  C        3.0067800    -0.5070980    -0.9241520
  C        2.2930000     0.2310680     1.3932270
  C       -0.4931590     0.3235730    -0.1949090
  C       -1.9724170    -1.5121580     0.7102480
  H        1.8788190     1.2611790    -0.4401960
  H        0.6035260    -1.3822150    -0.4365740
  H       -1.7868920    -0.9288770    -1.3618540
  H        3.9904500    -0.0508330    -0.7882090
  H        3.0812650    -1.5550640    -0.6116920
  H        2.7529100    -0.4768670    -1.9861430
  H        1.5225120     0.7762450     1.9430400
  H        3.2574000     0.7146530     1.5762130
  H        2.3438960    -0.7932520     1.7757830
  H       -2.9590570    -1.9673470     0.6070900
  H       -1.9090200    -1.0432980     1.6949070
  H       -1.2193110    -2.3035120     0.6420620
  H       -2.4442120     1.3312090    -0.1521090
units angstrom
no_reorient  #important for SAPT in psi4, default
symmetry c1  #important for SAPT in psi4, default
}

set PROPERTIES_ORIGIN ["COM"]
properties('MP2/aug-cc-pvtz', properties = ['dipole'])
--------------------------------------------------------------------------

    Molecular point group: c1
  Charge       = 0
  Multiplicity = 1
  Basis Set: AUG-CC-PVTZ
    Blend: AUG-CC-PVTZ
  Basis Set: (AUG-CC-PVTZ AUX)
    Blend: AUG-CC-PVTZ-JKFIT

    Orbital Energies [Eh]
    ---------------------

    Doubly Occupied:

       1A    -20.545501     2A    -20.533777     3A    -15.595554
       4A    -11.358662     5A    -11.294785     6A    -11.279789
       7A    -11.233067     8A    -11.229627     9A    -11.223607
      10A     -1.397152    11A     -1.343667    12A     -1.248532
      13A     -1.072797    14A     -1.023086    15A     -0.950667
      16A     -0.893521    17A     -0.821471    18A     -0.799799
      19A     -0.735190    20A     -0.678625    21A     -0.649213
      22A     -0.633446    23A     -0.628393    24A     -0.598818
      25A     -0.580808    26A     -0.566302    27A     -0.555919
      28A     -0.547236    29A     -0.539280    30A     -0.529806
      31A     -0.510994    32A     -0.503323    33A     -0.492727
      34A     -0.443483    35A     -0.433358    36A     -0.404049

  @DF-RHF Final Energy:  -439.13745309981510

   => Energetics <=

    Nuclear Repulsion Energy =            485.1099047689390886
    One-Electron Energy =               -1560.7426578784254616
    Two-Electron Energy =                 636.4953000096712685
    Total Energy =                       -439.1374530998151613
  Basis Set: (AUG-CC-PVTZ AUX)
    Blend: AUG-CC-PVTZ-RI
    Molecular point group: c1

    Geometry (in Angstrom), charge = 0, multiplicity = 1:

       Center              X                  Y                   Z               Mass
    ------------   -----------------  -----------------  -----------------  -----------------
         O           -2.871647048405     0.463668515185    -0.304648530261    15.994914619570
         O           -0.539705148405     1.538928115185     0.055146869739    15.994914619570
         N            0.647629151595    -0.392004684815    -0.339621230261    14.003074004430
         C            1.968729951595     0.229052515185    -0.095240530261    12.000000000000
         C           -1.797233048405    -0.448303484815    -0.369416530261    12.000000000000
         C            3.010764951595    -0.504929484815    -0.923696530261    12.000000000000
         C            2.296984951595     0.233236515185     1.393682469739    12.000000000000
         C           -0.489174048405     0.325741515185    -0.194453530261    12.000000000000
         C           -1.968432048405    -1.509989484815     0.710703469739    12.000000000000
         H            1.882803951595     1.263347515185    -0.439740530261     1.007825032230
         H            0.607510951595    -1.380046484815    -0.436118530261     1.007825032230
         H           -1.782907048405    -0.926708484815    -1.361398530261     1.007825032230
         H            3.994434951595    -0.048664484815    -0.787753530261     1.007825032230
         H            3.085249951595    -1.552895484815    -0.611236530261     1.007825032230
         H            2.756894951595    -0.474698484815    -1.985687530261     1.007825032230
         H            1.526496951595     0.778413515185     1.943495469739     1.007825032230
         H            3.261384951595     0.716821515185     1.576668469739     1.007825032230
         H            2.347880951595    -0.791083484815     1.776238469739     1.007825032230
         H           -2.955072048405    -1.965178484815     0.607545469739     1.007825032230
         H           -1.905035048405    -1.041129484815     1.695362469739     1.007825032230
         H           -1.215326048405    -2.301343484815     0.642517469739     1.007825032230
         H           -2.440227048405     1.333377515185    -0.151653530261     1.007825032230

  Basis Set: AUG-CC-PVTZ
    Blend: AUG-CC-PVTZ
  Basis Set: (AUG-CC-PVTZ AUX)
    Blend: AUG-CC-PVTZ-JKFIT
	 Reference Energy          =    -439.1374530998151045 [Eh]
	 Singles Energy            =      -0.0000000000000000 [Eh]
	 Same-Spin Energy          =      -0.4458263828411252 [Eh]
	 Opposite-Spin Energy      =      -1.4634111984505069 [Eh]
	 Correlation Energy        =      -1.9092375812916322 [Eh]
	 Total Energy              =    -441.0466906811067247 [Eh]

	 ================> DF-SCS-MP2 Energies <==================
	-----------------------------------------------------------
	 SCS Same-Spin Scale       =       0.3333333333333333 [-]
	 SCS Opposite-Spin Scale   =       1.2000000000000000 [-]
	 SCS Same-Spin Energy      =      -0.1486087942803750 [Eh]
	 SCS Opposite-Spin Energy  =      -1.7560934381406084 [Eh]
	 SCS Correlation Energy    =      -1.9047022324209835 [Eh]
	 SCS Total Energy          =    -441.0421553322360637 [Eh]
	-----------------------------------------------------------

  Dipole Moment: [D]
     X:     3.5895      Y:    -3.0236      Z:    -0.1279     Total:     4.6950

*** Psi4 exiting successfully. Buy a developer a beer!
