                               Psi4 1.3.2 release

  ==> Input File <==

--------------------------------------------------------------------------
#psi4
#
memory 32 gb

molecule  {
0 1
  O       -2.8756320     0.4615000    -0.3051040
  O       -0.5220660     1.5374290     0.0548780
  N        0.6562510    -0.3746370    -0.3360270
  C        1.9647450     0.2268840    -0.0956960
  C       -1.8256438    -0.4559957    -0.3788453
  C        3.0067800    -0.5070980    -0.9241520
  C        2.2930000     0.2310680     1.3932270
  C       -0.4931590     0.3235730    -0.1949090
  C       -1.9724170    -1.5121580     0.7102480
  H        1.8788190     1.2611790    -0.4401960
  H        0.6035260    -1.3822150    -0.4365740
  H       -1.7868920    -0.9288770    -1.3618540
  H        3.9904500    -0.0508330    -0.7882090
  H        3.0812650    -1.5550640    -0.6116920
  H        2.7529100    -0.4768670    -1.9861430
  H        1.5225120     0.7762450     1.9430400
  H        3.2574000     0.7146530     1.5762130
  H        2.3438960    -0.7932520     1.7757830
  H       -2.9625629    -1.9559778     0.5922128
  H       -1.9090200    -1.0432980     1.6949070
  H       -1.2193110    -2.3035120     0.6420620
  H       -2.4442120     1.3312090    -0.1521090
units angstrom
no_reorient  #important for SAPT in psi4, default
symmetry c1  #important for SAPT in psi4, default
}

set PROPERTIES_ORIGIN ["COM"]
properties('MP2/aug-cc-pvtz', properties = ['dipole'])
--------------------------------------------------------------------------

    Molecular point group: c1
  Charge       = 0
  Multiplicity = 1
  Basis Set: AUG-CC-PVTZ
    Blend: AUG-CC-PVTZ
  Basis Set: (AUG-CC-PVTZ AUX)
    Blend: AUG-CC-PVTZ-JKFIT

    Orbital Energies [Eh]
    ---------------------

    Doubly Occupied:

       1A    -20.548574     2A    -20.531959     3A    -15.595315
       4A    -11.357551     5A    -11.297378     6A    -11.276921
       7A    -11.232098     8A    -11.230016     9A    -11.222051
      10A     -1.397269    11A     -1.350049    12A     -1.247135
      13A     -1.070664    14A     -1.023220    15A     -0.949626
      16A     -0.890921    17A     -0.822838    18A     -0.794925
      19A     -0.736701    20A     -0.679702    21A     -0.651442
      22A     -0.631522    23A     -0.628689    24A     -0.596841
      25A     -0.583228    26A     -0.569630    27A     -0.554921
      28A     -0.547058    29A     -0.540667    30A     -0.531366
      31A     -0.510457    32A     -0.502582    33A     -0.490992
      34A     -0.445831    35A     -0.429982    36A     -0.401107

  @DF-RHF Final Energy:  -439.13761391748238

   => Energetics <=

    Nuclear Repulsion Energy =            485.0916408535517803
    One-Electron Energy =               -1560.7160537044885587
    Two-Electron Energy =                 636.4867989334543381
    Total Energy =                       -439.1376139174824402
  Basis Set: (AUG-CC-PVTZ AUX)
    Blend: AUG-CC-PVTZ-RI
    Molecular point group: c1

    Geometry (in Angstrom), charge = 0, multiplicity = 1:

       Center              X                  Y                   Z               Mass
    ------------   -----------------  -----------------  -----------------  -----------------
         O           -2.873369213952     0.461918270977    -0.304168111534    15.994914619570
         O           -0.519803213952     1.537847270977     0.055813888466    15.994914619570
         N            0.658513786048    -0.374218729023    -0.335091111534    14.003074004430
         C            1.967007786048     0.227302270977    -0.094760111534    12.000000000000
         C           -1.823381013952    -0.455577429023    -0.377909411534    12.000000000000
         C            3.009042786048    -0.506679729023    -0.923216111534    12.000000000000
         C            2.295262786048     0.231486270977     1.394162888466    12.000000000000
         C           -0.490896213952     0.323991270977    -0.193973111534    12.000000000000
         C           -1.970154213952    -1.511739729023     0.711183888466    12.000000000000
         H            1.881081786048     1.261597270977    -0.439260111534     1.007825032230
         H            0.605788786048    -1.381796729023    -0.435638111534     1.007825032230
         H           -1.784629213952    -0.928458729023    -1.360918111534     1.007825032230
         H            3.992712786048    -0.050414729023    -0.787273111534     1.007825032230
         H            3.083527786048    -1.554645729023    -0.610756111534     1.007825032230
         H            2.755172786048    -0.476448729023    -1.985207111534     1.007825032230
         H            1.524774786048     0.776663270977     1.943975888466     1.007825032230
         H            3.259662786048     0.715071270977     1.577148888466     1.007825032230
         H            2.346158786048    -0.792833729023     1.776718888466     1.007825032230
         H           -2.960300113952    -1.955559529023     0.593148688466     1.007825032230
         H           -1.906757213952    -1.042879729023     1.695842888466     1.007825032230
         H           -1.217048213952    -2.303093729023     0.642997888466     1.007825032230
         H           -2.441949213952     1.331627270977    -0.151173111534     1.007825032230

  Basis Set: AUG-CC-PVTZ
    Blend: AUG-CC-PVTZ
  Basis Set: (AUG-CC-PVTZ AUX)
    Blend: AUG-CC-PVTZ-JKFIT
	 Reference Energy          =    -439.1376139174823834 [Eh]
	 Singles Energy            =      -0.0000000000000000 [Eh]
	 Same-Spin Energy          =      -0.4459438199289226 [Eh]
	 Opposite-Spin Energy      =      -1.4633013250734335 [Eh]
	 Correlation Energy        =      -1.9092451450023562 [Eh]
	 Total Energy              =    -441.0468590624847138 [Eh]

	 ================> DF-SCS-MP2 Energies <==================
	-----------------------------------------------------------
	 SCS Same-Spin Scale       =       0.3333333333333333 [-]
	 SCS Opposite-Spin Scale   =       1.2000000000000000 [-]
	 SCS Same-Spin Energy      =      -0.1486479399763075 [Eh]
	 SCS Opposite-Spin Energy  =      -1.7559615900881200 [Eh]
	 SCS Correlation Energy    =      -1.9046095300644277 [Eh]
	 SCS Total Energy          =    -441.0422234475468031 [Eh]
	-----------------------------------------------------------

  Dipole Moment: [D]
     X:     3.4309      Y:    -3.0327      Z:    -0.1599     Total:     4.5819

*** Psi4 exiting successfully. Buy a developer a beer!
