                               Psi4 1.3.2 release

  ==> Input File <==

--------------------------------------------------------------------------
#psi4
#
memory 32 gb

molecule  {
0 1
  O       -2.8756320     0.4615000    -0.3051040
  O       -0.5220660     1.5374290     0.0548780
  N        0.6919528    -0.3149088    -0.3229940
  C        1.9647450     0.2268840    -0.0956960
  C       -1.8409539    -0.3824047    -0.3555961
  C        3.0067800    -0.5070980    -0.9241520
  C        2.2930000     0.2310680     1.3932270
  C       -0.4931590     0.3235730    -0.1949090
  C       -1.9724170    -1.5121580     0.7102480
  H        1.8788190     1.2611790    -0.4401960
  H        0.6035260    -1.3822150    -0.4365740
  H       -1.7868920    -0.9288770    -1.3618540
  H        3.9904500    -0.0508330    -0.7882090
  H        3.0812650    -1.5550640    -0.6116920
  H        2.7529100    -0.4768670    -1.9861430
  H        1.5225120     0.7762450     1.9430400
  H        3.2574000     0.7146530     1.5762130
  H        2.3438960    -0.7932520     1.7757830
  H       -2.9590570    -1.9673470     0.6070900
  H       -1.9090200    -1.0432980     1.6949070
  H       -1.2193110    -2.3035120     0.6420620
  H       -2.4442120     1.3312090    -0.1521090
units angstrom
no_reorient  #important for SAPT in psi4, default
symmetry c1  #important for SAPT in psi4, default
}

set PROPERTIES_ORIGIN ["COM"]
properties('MP2/aug-cc-pvtz', properties = ['dipole'])
--------------------------------------------------------------------------

    Molecular point group: c1
  Charge       = 0
  Multiplicity = 1
  Basis Set: AUG-CC-PVTZ
    Blend: AUG-CC-PVTZ
  Basis Set: (AUG-CC-PVTZ AUX)
    Blend: AUG-CC-PVTZ-JKFIT

    Orbital Energies [Eh]
    ---------------------

    Doubly Occupied:

       1A    -20.558867     2A    -20.528592     3A    -15.599012
       4A    -11.356798     5A    -11.304036     6A    -11.272153
       7A    -11.231443     8A    -11.230585     9A    -11.219667
      10A     -1.413488    11A     -1.369856    12A     -1.251425
      13A     -1.067909    14A     -1.016896    15A     -0.948953
      16A     -0.896278    17A     -0.829664    18A     -0.780363
      19A     -0.754054    20A     -0.680867    21A     -0.651788
      22A     -0.632827    23A     -0.631512    24A     -0.596282
      25A     -0.592011    26A     -0.567563    27A     -0.554158
      28A     -0.548620    29A     -0.546397    30A     -0.531403
      31A     -0.514017    32A     -0.502641    33A     -0.488814
      34A     -0.435136    35A     -0.431758    36A     -0.394558

  @DF-RHF Final Energy:  -439.12271937514657

   => Energetics <=

    Nuclear Repulsion Energy =            486.5078956959687844
    One-Electron Energy =               -1563.4004510346858297
    Two-Electron Energy =                 637.7698359635704719
    Total Energy =                       -439.1227193751466302
  Basis Set: (AUG-CC-PVTZ AUX)
    Blend: AUG-CC-PVTZ-RI
    Molecular point group: c1

    Geometry (in Angstrom), charge = 0, multiplicity = 1:

       Center              X                  Y                   Z               Mass
    ------------   -----------------  -----------------  -----------------  -----------------
         O           -2.875808269499     0.448889421070    -0.307802784311    15.994914619570
         O           -0.522242269499     1.524818421070     0.052179215689    15.994914619570
         N            0.691776530501    -0.327519378930    -0.325692784311    14.003074004430
         C            1.964568730501     0.214273421070    -0.098394784311    12.000000000000
         C           -1.841130169499    -0.395015278930    -0.358294884311    12.000000000000
         C            3.006603730501    -0.519708578930    -0.926850784311    12.000000000000
         C            2.292823730501     0.218457421070     1.390528215689    12.000000000000
         C           -0.493335269499     0.310962421070    -0.197607784311    12.000000000000
         C           -1.972593269499    -1.524768578930     0.707549215689    12.000000000000
         H            1.878642730501     1.248568421070    -0.442894784311     1.007825032230
         H            0.603349730501    -1.394825578930    -0.439272784311     1.007825032230
         H           -1.787068269499    -0.941487578930    -1.364552784311     1.007825032230
         H            3.990273730501    -0.063443578930    -0.790907784311     1.007825032230
         H            3.081088730501    -1.567674578930    -0.614390784311     1.007825032230
         H            2.752733730501    -0.489477578930    -1.988841784311     1.007825032230
         H            1.522335730501     0.763634421070     1.940341215689     1.007825032230
         H            3.257223730501     0.702042421070     1.573514215689     1.007825032230
         H            2.343719730501    -0.805862578930     1.773084215689     1.007825032230
         H           -2.959233269499    -1.979957578930     0.604391215689     1.007825032230
         H           -1.909196269499    -1.055908578930     1.692208215689     1.007825032230
         H           -1.219487269499    -2.316122578930     0.639363215689     1.007825032230
         H           -2.444388269499     1.318598421070    -0.154807784311     1.007825032230

  Basis Set: AUG-CC-PVTZ
    Blend: AUG-CC-PVTZ
  Basis Set: (AUG-CC-PVTZ AUX)
    Blend: AUG-CC-PVTZ-JKFIT
	 Reference Energy          =    -439.1227193751465734 [Eh]
	 Singles Energy            =      -0.0000000000000000 [Eh]
	 Same-Spin Energy          =      -0.4470662670826492 [Eh]
	 Opposite-Spin Energy      =      -1.4640951977137431 [Eh]
	 Correlation Energy        =      -1.9111614647963924 [Eh]
	 Total Energy              =    -441.0338808399429809 [Eh]

	 ================> DF-SCS-MP2 Energies <==================
	-----------------------------------------------------------
	 SCS Same-Spin Scale       =       0.3333333333333333 [-]
	 SCS Opposite-Spin Scale   =       1.2000000000000000 [-]
	 SCS Same-Spin Energy      =      -0.1490220890275497 [Eh]
	 SCS Opposite-Spin Energy  =      -1.7569142372564917 [Eh]
	 SCS Correlation Energy    =      -1.9059363262840414 [Eh]
	 SCS Total Energy          =    -441.0286557014306368 [Eh]
	-----------------------------------------------------------

  Dipole Moment: [D]
     X:     3.1309      Y:    -2.9186      Z:    -0.1776     Total:     4.2840

*** Psi4 exiting successfully. Buy a developer a beer!
