                               Psi4 1.3.2 release

  ==> Input File <==

--------------------------------------------------------------------------
#psi4
#
memory 32 gb

molecule  {
0 1
  O       -2.8756320     0.4615000    -0.3051040
  O       -0.5220660     1.5374290     0.0548780
  N        0.6562510    -0.3746370    -0.3360270
  C        1.9647450     0.2268840    -0.0956960
  C       -1.8012180    -0.4504720    -0.3698720
  C        3.0067800    -0.5070980    -0.9241520
  C        2.2930000     0.2310680     1.3932270
  C       -0.4931590     0.3235730    -0.1949090
  C       -1.9724170    -1.5121580     0.7102480
  H        1.8788190     1.2611790    -0.4401960
  H        0.6035260    -1.3822150    -0.4365740
  H       -1.7868920    -0.9288770    -1.3618540
  H        3.9904500    -0.0508330    -0.7882090
  H        3.0812650    -1.5550640    -0.6116920
  H        2.7529100    -0.4768670    -1.9861430
  H        1.5225120     0.7762450     1.9430400
  H        3.2574000     0.7146530     1.5762130
  H        2.3438960    -0.7932520     1.7757830
  H       -2.9590570    -1.9673470     0.6070900
  H       -1.9090200    -1.0432980     1.6949070
  H       -1.2193110    -2.3035120     0.6420620
  H       -2.4442120     1.3312090    -0.1521090
units angstrom
no_reorient  #important for SAPT in psi4, default
symmetry c1  #important for SAPT in psi4, default
}

set PROPERTIES_ORIGIN ["COM"]
properties('MP2/aug-cc-pvtz', properties = ['dipole'])
--------------------------------------------------------------------------

    Molecular point group: c1
  Charge       = 0
  Multiplicity = 1
  Basis Set: AUG-CC-PVTZ
    Blend: AUG-CC-PVTZ
  Basis Set: (AUG-CC-PVTZ AUX)
    Blend: AUG-CC-PVTZ-JKFIT

    Orbital Energies [Eh]
    ---------------------

    Doubly Occupied:

       1A    -20.547774     2A    -20.532467     3A    -15.595708
       4A    -11.358284     5A    -11.297324     6A    -11.277233
       7A    -11.232308     8A    -11.230779     9A    -11.222292
      10A     -1.397280    11A     -1.345911    12A     -1.247992
      13A     -1.072250    14A     -1.023848    15A     -0.949862
      16A     -0.895012    17A     -0.822412    18A     -0.794968
      19A     -0.736466    20A     -0.678967    21A     -0.649849
      22A     -0.632338    23A     -0.628752    24A     -0.597072
      25A     -0.581612    26A     -0.567276    27A     -0.555109
      28A     -0.548116    29A     -0.539460    30A     -0.530236
      31A     -0.512457    32A     -0.502806    33A     -0.491520
      34A     -0.444937    35A     -0.434379    36A     -0.401417

  @DF-RHF Final Energy:  -439.13786269891449

   => Energetics <=

    Nuclear Repulsion Energy =            485.3333139595773105
    One-Electron Energy =               -1561.1894066257223130
    Two-Electron Energy =                 636.7182299672306272
    Total Energy =                       -439.1378626989144323
  Basis Set: (AUG-CC-PVTZ AUX)
    Blend: AUG-CC-PVTZ-RI
    Molecular point group: c1

    Geometry (in Angstrom), charge = 0, multiplicity = 1:

       Center              X                  Y                   Z               Mass
    ------------   -----------------  -----------------  -----------------  -----------------
         O           -2.875632029269     0.461500052197    -0.305103872334    15.994914619570
         O           -0.522066029269     1.537429052197     0.054878127666    15.994914619570
         N            0.656250970731    -0.374636947803    -0.336026872334    14.003074004430
         C            1.964744970731     0.226884052197    -0.095695872334    12.000000000000
         C           -1.801218029269    -0.450471947803    -0.369871872334    12.000000000000
         C            3.006779970731    -0.507097947803    -0.924151872334    12.000000000000
         C            2.292999970731     0.231068052197     1.393227127666    12.000000000000
         C           -0.493159029269     0.323573052197    -0.194908872334    12.000000000000
         C           -1.972417029269    -1.512157947803     0.710248127666    12.000000000000
         H            1.878818970731     1.261179052197    -0.440195872334     1.007825032230
         H            0.603525970731    -1.382214947803    -0.436573872334     1.007825032230
         H           -1.786892029269    -0.928876947803    -1.361853872334     1.007825032230
         H            3.990449970731    -0.050832947803    -0.788208872334     1.007825032230
         H            3.081264970731    -1.555063947803    -0.611691872334     1.007825032230
         H            2.752909970731    -0.476866947803    -1.986142872334     1.007825032230
         H            1.522511970731     0.776245052197     1.943040127666     1.007825032230
         H            3.257399970731     0.714653052197     1.576213127666     1.007825032230
         H            2.343895970731    -0.793251947803     1.775783127666     1.007825032230
         H           -2.959057029269    -1.967346947803     0.607090127666     1.007825032230
         H           -1.909020029269    -1.043297947803     1.694907127666     1.007825032230
         H           -1.219311029269    -2.303511947803     0.642062127666     1.007825032230
         H           -2.444212029269     1.331209052197    -0.152108872334     1.007825032230

  Basis Set: AUG-CC-PVTZ
    Blend: AUG-CC-PVTZ
  Basis Set: (AUG-CC-PVTZ AUX)
    Blend: AUG-CC-PVTZ-JKFIT
	 Reference Energy          =    -439.1378626989144891 [Eh]
	 Singles Energy            =      -0.0000000000000000 [Eh]
	 Same-Spin Energy          =      -0.4460295877620520 [Eh]
	 Opposite-Spin Energy      =      -1.4636335008424588 [Eh]
	 Correlation Energy        =      -1.9096630886045109 [Eh]
	 Total Energy              =    -441.0475257875190209 [Eh]

	 ================> DF-SCS-MP2 Energies <==================
	-----------------------------------------------------------
	 SCS Same-Spin Scale       =       0.3333333333333333 [-]
	 SCS Opposite-Spin Scale   =       1.2000000000000000 [-]
	 SCS Same-Spin Energy      =      -0.1486765292540173 [Eh]
	 SCS Opposite-Spin Energy  =      -1.7563602010109505 [Eh]
	 SCS Correlation Energy    =      -1.9050367302649678 [Eh]
	 SCS Total Energy          =    -441.0428994291794424 [Eh]
	-----------------------------------------------------------

  Dipole Moment: [D]
     X:     3.4590      Y:    -3.0599      Z:    -0.1432     Total:     4.6205

*** Psi4 exiting successfully. Buy a developer a beer!
