                               Psi4 1.3.2 release

  ==> Input File <==

--------------------------------------------------------------------------
#psi4
#
memory 32 gb

molecule  {
0 1
  O       -2.8756320     0.4615000    -0.3051040
  O       -0.5220660     1.5374290     0.0548780
  N        0.6562510    -0.3746370    -0.3360270
  C        1.9966402     0.1596956    -0.1133421
  C       -1.8012180    -0.4504720    -0.3698720
  C        3.0067800    -0.5070980    -0.9241520
  C        2.2930000     0.2310680     1.3932270
  C       -0.5286986     0.2652348    -0.2134974
  C       -1.9724170    -1.5121580     0.7102480
  H        1.8788190     1.2611790    -0.4401960
  H        0.6035260    -1.3822150    -0.4365740
  H       -1.7868920    -0.9288770    -1.3618540
  H        3.9904500    -0.0508330    -0.7882090
  H        3.0812650    -1.5550640    -0.6116920
  H        2.7529100    -0.4768670    -1.9861430
  H        1.5225120     0.7762450     1.9430400
  H        3.2574000     0.7146530     1.5762130
  H        2.3438960    -0.7932520     1.7757830
  H       -2.9590570    -1.9673470     0.6070900
  H       -1.9090200    -1.0432980     1.6949070
  H       -1.2193110    -2.3035120     0.6420620
  H       -2.4442120     1.3312090    -0.1521090
units angstrom
no_reorient  #important for SAPT in psi4, default
symmetry c1  #important for SAPT in psi4, default
}

set PROPERTIES_ORIGIN ["COM"]
properties('MP2/aug-cc-pvtz', properties = ['dipole'])
--------------------------------------------------------------------------

    Molecular point group: c1
  Charge       = 0
  Multiplicity = 1
  Basis Set: AUG-CC-PVTZ
    Blend: AUG-CC-PVTZ
  Basis Set: (AUG-CC-PVTZ AUX)
    Blend: AUG-CC-PVTZ-JKFIT

    Orbital Energies [Eh]
    ---------------------

    Doubly Occupied:

       1A    -20.550083     2A    -20.523901     3A    -15.601307
       4A    -11.364251     5A    -11.300297     6A    -11.281908
       7A    -11.234877     8A    -11.232575     9A    -11.223313
      10A     -1.381012    11A     -1.333914    12A     -1.241744
      13A     -1.084365    14A     -1.033765    15A     -0.954388
      16A     -0.909056    17A     -0.823546    18A     -0.788507
      19A     -0.741781    20A     -0.677554    21A     -0.650727
      22A     -0.635245    23A     -0.625015    24A     -0.592060
      25A     -0.581393    26A     -0.570383    27A     -0.555136
      28A     -0.550003    29A     -0.540694    30A     -0.525090
      31A     -0.513843    32A     -0.505946    33A     -0.471720
      34A     -0.446684    35A     -0.435580    36A     -0.395868

  @DF-RHF Final Energy:  -439.11655350208162

   => Energetics <=

    Nuclear Repulsion Energy =            485.1191422248064100
    One-Electron Energy =               -1560.7163257147105924
    Two-Electron Energy =                 636.4806299878225673
    Total Energy =                       -439.1165535020816151
  Basis Set: (AUG-CC-PVTZ AUX)
    Blend: AUG-CC-PVTZ-RI
    Molecular point group: c1

    Geometry (in Angstrom), charge = 0, multiplicity = 1:

       Center              X                  Y                   Z               Mass
    ------------   -----------------  -----------------  -----------------  -----------------
         O           -2.875298432077     0.472990371941    -0.301787077401    15.994914619570
         O           -0.521732432077     1.548919371941     0.058194922599    15.994914619570
         N            0.656584567923    -0.363146628059    -0.332710077401    14.003074004430
         C            1.996973767923     0.171185971941    -0.110025177401    12.000000000000
         C           -1.800884432077    -0.438981628059    -0.366555077401    12.000000000000
         C            3.007113567923    -0.495607628059    -0.920835077401    12.000000000000
         C            2.293333567923     0.242558371941     1.396543922599    12.000000000000
         C           -0.528365032077     0.276725171941    -0.210180477401    12.000000000000
         C           -1.972083432077    -1.500667628059     0.713564922599    12.000000000000
         H            1.879152567923     1.272669371941    -0.436879077401     1.007825032230
         H            0.603859567923    -1.370724628059    -0.433257077401     1.007825032230
         H           -1.786558432077    -0.917386628059    -1.358537077401     1.007825032230
         H            3.990783567923    -0.039342628059    -0.784892077401     1.007825032230
         H            3.081598567923    -1.543573628059    -0.608375077401     1.007825032230
         H            2.753243567923    -0.465376628059    -1.982826077401     1.007825032230
         H            1.522845567923     0.787735371941     1.946356922599     1.007825032230
         H            3.257733567923     0.726143371941     1.579529922599     1.007825032230
         H            2.344229567923    -0.781761628059     1.779099922599     1.007825032230
         H           -2.958723432077    -1.955856628059     0.610406922599     1.007825032230
         H           -1.908686432077    -1.031807628059     1.698223922599     1.007825032230
         H           -1.218977432077    -2.292021628059     0.645378922599     1.007825032230
         H           -2.443878432077     1.342699371941    -0.148792077401     1.007825032230

  Basis Set: AUG-CC-PVTZ
    Blend: AUG-CC-PVTZ
  Basis Set: (AUG-CC-PVTZ AUX)
    Blend: AUG-CC-PVTZ-JKFIT
	 Reference Energy          =    -439.1165535020816151 [Eh]
	 Singles Energy            =      -0.0000000000000000 [Eh]
	 Same-Spin Energy          =      -0.4484509582736490 [Eh]
	 Opposite-Spin Energy      =      -1.4679861967751098 [Eh]
	 Correlation Energy        =      -1.9164371550487589 [Eh]
	 Total Energy              =    -441.0329906571303695 [Eh]

	 ================> DF-SCS-MP2 Energies <==================
	-----------------------------------------------------------
	 SCS Same-Spin Scale       =       0.3333333333333333 [-]
	 SCS Opposite-Spin Scale   =       1.2000000000000000 [-]
	 SCS Same-Spin Energy      =      -0.1494836527578830 [Eh]
	 SCS Opposite-Spin Energy  =      -1.7615834361301317 [Eh]
	 SCS Correlation Energy    =      -1.9110670888880148 [Eh]
	 SCS Total Energy          =    -441.0276205909696046 [Eh]
	-----------------------------------------------------------

  Dipole Moment: [D]
     X:     3.4521      Y:    -3.3847      Z:    -0.2193     Total:     4.8395

*** Psi4 exiting successfully. Buy a developer a beer!
