                               Psi4 1.4a3.dev225

  ==> Input File <==

--------------------------------------------------------------------------
#psi4
#
memory 32 gb

molecule  {
0 1
  O        2.9110620    -0.5703060    -0.4523520
  O        0.5539390    -1.5540470     0.1662040
  N       -0.5943370     0.3369340    -0.3930300
  C       -1.9154150    -0.2304160    -0.1256420
  C        1.8655780     0.3788930    -0.3941620
  C       -2.9513150     0.5221750    -0.9483650
  C       -2.2232580    -0.2086170     1.3682650
  C        0.5443190    -0.3662470    -0.1910430
  C        2.1035320     1.3624180     0.7499890
  H       -1.8664900    -1.2716350    -0.4595930
  H       -0.5281980     1.3181660    -0.6377390
  H        1.8332501     0.8956504    -1.3070810
  H       -3.9433690     0.0896600    -0.7945050
  H       -2.9965010     1.5743390    -0.6446630
  H       -2.7149650     0.4749500    -2.0147890
  H       -1.4563020    -0.7629570     1.9136170
  H       -3.1950150    -0.6709470     1.5682930
  H       -2.2473660     0.8219210     1.7368640
  H        3.0888910     1.8183940     0.6312910
  H        2.0827360     0.8223960     1.7004970
  H        1.3487660     2.1553220     0.7756360
  H        2.4958040    -1.4028240    -0.1381920
units angstrom
no_reorient  #important for SAPT in psi4, default
symmetry c1  #important for SAPT in psi4, default
}

set PROPERTIES_ORIGIN ["COM"]
properties('MP2/aug-cc-pvtz', properties = ['dipole'])
--------------------------------------------------------------------------

    Molecular point group: c1
  Charge       = 0
  Multiplicity = 1
  Basis Set: AUG-CC-PVTZ
    Blend: AUG-CC-PVTZ
  Basis Set: (AUG-CC-PVTZ AUX)
    Blend: AUG-CC-PVTZ-JKFIT

    Orbital Energies [Eh]
    ---------------------

    Doubly Occupied:

       1A    -20.547749     2A    -20.531364     3A    -15.596349
       4A    -11.357610     5A    -11.291431     6A    -11.278172
       7A    -11.233569     8A    -11.229384     9A    -11.221095
      10A     -1.395500    11A     -1.345236    12A     -1.246861
      13A     -1.071905    14A     -1.024800    15A     -0.949632
      16A     -0.895160    17A     -0.823398    18A     -0.795891
      19A     -0.738899    20A     -0.678893    21A     -0.645549
      22A     -0.634950    23A     -0.628984    24A     -0.595189
      25A     -0.582042    26A     -0.570941    27A     -0.555184
      28A     -0.548154    29A     -0.537590    30A     -0.529564
      31A     -0.512227    32A     -0.502096    33A     -0.491370
      34A     -0.447815    35A     -0.431399    36A     -0.401589

  @DF-RHF Final Energy:  -439.13709187346632

   => Energetics <=

    Nuclear Repulsion Energy =            485.3457488722148696
    One-Electron Energy =               -1561.2305984090660331
    Two-Electron Energy =                 636.7477576633848457
    Total Energy =                       -439.1370918734662609
  Basis Set: (AUG-CC-PVTZ AUX)
    Blend: AUG-CC-PVTZ-RI
    Molecular point group: c1

    Geometry (in Angstrom), charge = 0, multiplicity = 1:

       Center              X                  Y                   Z               Mass
    ------------   -----------------  -----------------  -----------------  -----------------
         O            2.849892367883    -0.525651600091    -0.435385846997    15.994914619570
         O            0.492769367883    -1.509392600091     0.183170153003    15.994914619570
         N           -0.655506632117     0.381588399909    -0.376063846997    14.003074004430
         C           -1.976584632117    -0.185761600091    -0.108675846997    12.000000000000
         C            1.804408367883     0.423547399909    -0.377195846997    12.000000000000
         C           -3.012484632117     0.566829399909    -0.931398846997    12.000000000000
         C           -2.284427632117    -0.163962600091     1.385231153003    12.000000000000
         C            0.483149367883    -0.321592600091    -0.174076846997    12.000000000000
         C            2.042362367883     1.407072399909     0.766955153003    12.000000000000
         H           -1.927659632117    -1.226980600091    -0.442626846997     1.007825032230
         H           -0.589367632117     1.362820399909    -0.620772846997     1.007825032230
         H            1.772080467883     0.940304799909    -1.290114846997     1.007825032230
         H           -4.004538632117     0.134314399909    -0.777538846997     1.007825032230
         H           -3.057670632117     1.618993399909    -0.627696846997     1.007825032230
         H           -2.776134632117     0.519604399909    -1.997822846997     1.007825032230
         H           -1.517471632117    -0.718302600091     1.930583153003     1.007825032230
         H           -3.256184632117    -0.626292600091     1.585259153003     1.007825032230
         H           -2.308535632117     0.866575399909     1.753830153003     1.007825032230
         H            3.027721367883     1.863048399909     0.648257153003     1.007825032230
         H            2.021566367883     0.867050399909     1.717463153003     1.007825032230
         H            1.287596367883     2.199976399909     0.792602153003     1.007825032230
         H            2.434634367883    -1.358169600091    -0.121225846997     1.007825032230

  Basis Set: AUG-CC-PVTZ
    Blend: AUG-CC-PVTZ
  Basis Set: (AUG-CC-PVTZ AUX)
    Blend: AUG-CC-PVTZ-JKFIT
	 Reference Energy          =    -439.1370918734663178 [Eh]
	 Singles Energy            =      -0.0000000000000000 [Eh]
	 Same-Spin Energy          =      -0.4458763275945273 [Eh]
	 Opposite-Spin Energy      =      -1.4634279636127692 [Eh]
	 Correlation Energy        =      -1.9093042912072966 [Eh]
	 Total Energy              =    -441.0463961646736379 [Eh]

	 ================> DF-SCS-MP2 Energies <==================
	-----------------------------------------------------------
	 SCS Same-Spin Scale       =       0.3333333333333333 [-]
	 SCS Opposite-Spin Scale   =       1.2000000000000000 [-]
	 SCS Same-Spin Energy      =      -0.1486254425315091 [Eh]
	 SCS Opposite-Spin Energy  =      -1.7561135563353230 [Eh]
	 SCS Correlation Energy    =      -1.9047389988668320 [Eh]
	 SCS Total Energy          =    -441.0418308723331506 [Eh]
	-----------------------------------------------------------

  Dipole Moment: [D]
     X:    -3.3987      Y:     3.1456      Z:    -0.2043     Total:     4.6355

*** Psi4 exiting successfully. Buy a developer a beer!
