                               Psi4 1.3.2 release

  ==> Input File <==

--------------------------------------------------------------------------
#psi4
#
memory 32 gb

molecule  {
0 1
  O       -2.8756320     0.4615000    -0.3051040
  O       -0.4787979     1.5376584     0.0550230
  N        0.6804105    -0.3349325    -0.3277999
  C        1.9647450     0.2268840    -0.0956960
  C       -1.8012180    -0.4504720    -0.3698720
  C        3.0067800    -0.5070980    -0.9241520
  C        2.2930000     0.2310680     1.3932270
  C       -0.4931590     0.3235730    -0.1949090
  C       -1.9724170    -1.5121580     0.7102480
  H        1.8788190     1.2611790    -0.4401960
  H        0.6035260    -1.3822150    -0.4365740
  H       -1.7868920    -0.9288770    -1.3618540
  H        3.9904500    -0.0508330    -0.7882090
  H        3.0812650    -1.5550640    -0.6116920
  H        2.7529100    -0.4768670    -1.9861430
  H        1.5225120     0.7762450     1.9430400
  H        3.2574000     0.7146530     1.5762130
  H        2.3438960    -0.7932520     1.7757830
  H       -2.9590570    -1.9673470     0.6070900
  H       -1.9090200    -1.0432980     1.6949070
  H       -1.2193110    -2.3035120     0.6420620
  H       -2.4442120     1.3312090    -0.1521090
units angstrom
no_reorient  #important for SAPT in psi4, default
symmetry c1  #important for SAPT in psi4, default
}

set PROPERTIES_ORIGIN ["COM"]
properties('MP2/aug-cc-pvtz', properties = ['dipole'])
--------------------------------------------------------------------------

    Molecular point group: c1
  Charge       = 0
  Multiplicity = 1
  Basis Set: AUG-CC-PVTZ
    Blend: AUG-CC-PVTZ
  Basis Set: (AUG-CC-PVTZ AUX)
    Blend: AUG-CC-PVTZ-JKFIT

    Orbital Energies [Eh]
    ---------------------

    Doubly Occupied:

       1A    -20.552246     2A    -20.529886     3A    -15.595918
       4A    -11.357986     5A    -11.302346     6A    -11.272225
       7A    -11.233027     8A    -11.230849     9A    -11.219701
      10A     -1.398052    11A     -1.350464    12A     -1.247595
      13A     -1.071326    14A     -1.025153    15A     -0.948324
      16A     -0.898554    17A     -0.826456    18A     -0.784097
      19A     -0.739320    20A     -0.679657    21A     -0.650790
      22A     -0.631064    23A     -0.629638    24A     -0.592612
      25A     -0.583454    26A     -0.569058    27A     -0.553467
      28A     -0.549583    29A     -0.540365    30A     -0.530504
      31A     -0.515312    32A     -0.501776    33A     -0.488448
      34A     -0.447978    35A     -0.435662    36A     -0.395727

  @DF-RHF Final Energy:  -439.13267021070806

   => Energetics <=

    Nuclear Repulsion Energy =            485.8367915939684281
    One-Electron Energy =               -1562.1816878833744795
    Two-Electron Energy =                 637.2122260786979950
    Total Energy =                       -439.1326702107080564
  Basis Set: (AUG-CC-PVTZ AUX)
    Blend: AUG-CC-PVTZ-RI
    Molecular point group: c1

    Geometry (in Angstrom), charge = 0, multiplicity = 1:

       Center              X                  Y                   Z               Mass
    ------------   -----------------  -----------------  -----------------  -----------------
         O           -2.883491823695     0.457230965882    -0.306000354165    15.994914619570
         O           -0.486657723695     1.533389365882     0.054126645835    15.994914619570
         N            0.672550676305    -0.339201534118    -0.328696254165    14.003074004430
         C            1.956885176305     0.222614965882    -0.096592354165    12.000000000000
         C           -1.809077823695    -0.454741034118    -0.370768354165    12.000000000000
         C            2.998920176305    -0.511367034118    -0.925048354165    12.000000000000
         C            2.285140176305     0.226798965882     1.392330645835    12.000000000000
         C           -0.501018823695     0.319303965882    -0.195805354165    12.000000000000
         C           -1.980276823695    -1.516427034118     0.709351645835    12.000000000000
         H            1.870959176305     1.256909965882    -0.441092354165     1.007825032230
         H            0.595666176305    -1.386484034118    -0.437470354165     1.007825032230
         H           -1.794751823695    -0.933146034118    -1.362750354165     1.007825032230
         H            3.982590176305    -0.055102034118    -0.789105354165     1.007825032230
         H            3.073405176305    -1.559333034118    -0.612588354165     1.007825032230
         H            2.745050176305    -0.481136034118    -1.987039354165     1.007825032230
         H            1.514652176305     0.771975965882     1.942143645835     1.007825032230
         H            3.249540176305     0.710383965882     1.575316645835     1.007825032230
         H            2.336036176305    -0.797521034118     1.774886645835     1.007825032230
         H           -2.966916823695    -1.971616034118     0.606193645835     1.007825032230
         H           -1.916879823695    -1.047567034118     1.694010645835     1.007825032230
         H           -1.227170823695    -2.307781034118     0.641165645835     1.007825032230
         H           -2.452071823695     1.326939965882    -0.153005354165     1.007825032230

  Basis Set: AUG-CC-PVTZ
    Blend: AUG-CC-PVTZ
  Basis Set: (AUG-CC-PVTZ AUX)
    Blend: AUG-CC-PVTZ-JKFIT
	 Reference Energy          =    -439.1326702107080564 [Eh]
	 Singles Energy            =      -0.0000000000000000 [Eh]
	 Same-Spin Energy          =      -0.4466297805534256 [Eh]
	 Opposite-Spin Energy      =      -1.4645065865057707 [Eh]
	 Correlation Energy        =      -1.9111363670591963 [Eh]
	 Total Energy              =    -441.0438065777672705 [Eh]

	 ================> DF-SCS-MP2 Energies <==================
	-----------------------------------------------------------
	 SCS Same-Spin Scale       =       0.3333333333333333 [-]
	 SCS Opposite-Spin Scale   =       1.2000000000000000 [-]
	 SCS Same-Spin Energy      =      -0.1488765935178085 [Eh]
	 SCS Opposite-Spin Energy  =      -1.7574079038069248 [Eh]
	 SCS Correlation Energy    =      -1.9062844973247333 [Eh]
	 SCS Total Energy          =    -441.0389547080328043 [Eh]
	-----------------------------------------------------------

  Dipole Moment: [D]
     X:     3.2004      Y:    -3.1215      Z:    -0.1721     Total:     4.4739

*** Psi4 exiting successfully. Buy a developer a beer!
