                               Psi4 1.3.2 release

  ==> Input File <==

--------------------------------------------------------------------------
#psi4
#
memory 32 gb

molecule  {
0 1
  O       -2.8756320     0.4615000    -0.3051040
  O       -0.5220660     1.5374290     0.0548780
  N        0.6562510    -0.3746370    -0.3360270
  C        1.9647450     0.2268840    -0.0956960
  C       -1.8012180    -0.4504720    -0.3698720
  C        3.0067800    -0.5070980    -0.9241520
  C        2.2930000     0.2310680     1.3932270
  C       -0.4931590     0.3235730    -0.1949090
  C       -1.9737175    -1.5493222     0.6722017
  H        1.8788190     1.2611790    -0.4401960
  H        0.6035260    -1.3822150    -0.4365740
  H       -1.7913077    -0.9630047    -1.3447140
  H        3.9904500    -0.0508330    -0.7882090
  H        3.0812650    -1.5550640    -0.6116920
  H        2.7529100    -0.4768670    -1.9861430
  H        1.5225120     0.7762450     1.9430400
  H        3.2574000     0.7146530     1.5762130
  H        2.3438960    -0.7932520     1.7757830
  H       -2.9590570    -1.9673470     0.6070900
  H       -1.9090200    -1.0432980     1.6949070
  H       -1.2193110    -2.3035120     0.6420620
  H       -2.4442120     1.3312090    -0.1521090
units angstrom
no_reorient  #important for SAPT in psi4, default
symmetry c1  #important for SAPT in psi4, default
}

set PROPERTIES_ORIGIN ["COM"]
properties('MP2/aug-cc-pvtz', properties = ['dipole'])
--------------------------------------------------------------------------

    Molecular point group: c1
  Charge       = 0
  Multiplicity = 1
  Basis Set: AUG-CC-PVTZ
    Blend: AUG-CC-PVTZ
  Basis Set: (AUG-CC-PVTZ AUX)
    Blend: AUG-CC-PVTZ-JKFIT

    Orbital Energies [Eh]
    ---------------------

    Doubly Occupied:

       1A    -20.549179     2A    -20.533044     3A    -15.596134
       4A    -11.359351     5A    -11.297736     6A    -11.277420
       7A    -11.232446     8A    -11.230825     9A    -11.222362
      10A     -1.397692    11A     -1.346397    12A     -1.248369
      13A     -1.072571    14A     -1.024856    15A     -0.949970
      16A     -0.894889    17A     -0.822465    18A     -0.795143
      19A     -0.737145    20A     -0.679286    21A     -0.649796
      22A     -0.633394    23A     -0.628770    24A     -0.598123
      25A     -0.582870    26A     -0.573271    27A     -0.555155
      28A     -0.551106    29A     -0.536390    30A     -0.523740
      31A     -0.512345    32A     -0.503008    33A     -0.491900
      34A     -0.442764    35A     -0.435570    36A     -0.401510

  @DF-RHF Final Energy:  -439.13437105404961

   => Energetics <=

    Nuclear Repulsion Energy =            485.1281880513643614
    One-Electron Energy =               -1560.7511346976946243
    Two-Electron Energy =                 636.4885755922807675
    Total Energy =                       -439.1343710540495522
  Basis Set: (AUG-CC-PVTZ AUX)
    Blend: AUG-CC-PVTZ-RI
    Molecular point group: c1

    Geometry (in Angstrom), charge = 0, multiplicity = 1:

       Center              X                  Y                   Z               Mass
    ------------   -----------------  -----------------  -----------------  -----------------
         O           -2.875479038615     0.465164314839    -0.301752999125    15.994914619570
         O           -0.521913038615     1.541093314839     0.058229000875    15.994914619570
         N            0.656403961385    -0.370972685161    -0.332675999125    14.003074004430
         C            1.964897961385     0.230548314839    -0.092344999125    12.000000000000
         C           -1.801065038615    -0.446807685161    -0.366520999125    12.000000000000
         C            3.006932961385    -0.503433685161    -0.920800999125    12.000000000000
         C            2.293152961385     0.234732314839     1.396578000875    12.000000000000
         C           -0.493006038615     0.327237314839    -0.191557999125    12.000000000000
         C           -1.973564538615    -1.545657885161     0.675552700875    12.000000000000
         H            1.878971961385     1.264843314839    -0.436844999125     1.007825032230
         H            0.603678961385    -1.378550685161    -0.433222999125     1.007825032230
         H           -1.791154738615    -0.959340385161    -1.341362999125     1.007825032230
         H            3.990602961385    -0.047168685161    -0.784857999125     1.007825032230
         H            3.081417961385    -1.551399685161    -0.608340999125     1.007825032230
         H            2.753062961385    -0.473202685161    -1.982791999125     1.007825032230
         H            1.522664961385     0.779909314839     1.946391000875     1.007825032230
         H            3.257552961385     0.718317314839     1.579564000875     1.007825032230
         H            2.344048961385    -0.789587685161     1.779134000875     1.007825032230
         H           -2.958904038615    -1.963682685161     0.610441000875     1.007825032230
         H           -1.908867038615    -1.039633685161     1.698258000875     1.007825032230
         H           -1.219158038615    -2.299847685161     0.645413000875     1.007825032230
         H           -2.444059038615     1.334873314839    -0.148757999125     1.007825032230

  Basis Set: AUG-CC-PVTZ
    Blend: AUG-CC-PVTZ
  Basis Set: (AUG-CC-PVTZ AUX)
    Blend: AUG-CC-PVTZ-JKFIT
	 Reference Energy          =    -439.1343710540496090 [Eh]
	 Singles Energy            =      -0.0000000000000000 [Eh]
	 Same-Spin Energy          =      -0.4460961702446494 [Eh]
	 Opposite-Spin Energy      =      -1.4638132128316086 [Eh]
	 Correlation Energy        =      -1.9099093830762581 [Eh]
	 Total Energy              =    -441.0442804371258489 [Eh]

	 ================> DF-SCS-MP2 Energies <==================
	-----------------------------------------------------------
	 SCS Same-Spin Scale       =       0.3333333333333333 [-]
	 SCS Opposite-Spin Scale   =       1.2000000000000000 [-]
	 SCS Same-Spin Energy      =      -0.1486987234148831 [Eh]
	 SCS Opposite-Spin Energy  =      -1.7565758553979303 [Eh]
	 SCS Correlation Energy    =      -1.9052745788128134 [Eh]
	 SCS Total Energy          =    -441.0396456328624026 [Eh]
	-----------------------------------------------------------

  Dipole Moment: [D]
     X:     3.4666      Y:    -3.0687      Z:    -0.1613     Total:     4.6325

*** Psi4 exiting successfully. Buy a developer a beer!
