                               Psi4 1.3.2 release

  ==> Input File <==

--------------------------------------------------------------------------
#psi4
#
memory 32 gb

molecule  {
0 1
  O       -2.8756320     0.4615000    -0.3051040
  O       -0.5220660     1.5374290     0.0548780
  N        0.6562510    -0.3746370    -0.3360270
  C        1.9647450     0.2268840    -0.0956960
  C       -1.8012180    -0.4504720    -0.3698720
  C        3.0067800    -0.5070980    -0.9241520
  C        2.2930000     0.2310680     1.3932270
  C       -0.4931590     0.3235730    -0.1949090
  C       -1.9499527    -1.3728462     0.5685173
  H        1.8788190     1.2611790    -0.4401960
  H        0.6035260    -1.3822150    -0.4365740
  H       -1.7868920    -0.9288770    -1.3618540
  H        3.9904500    -0.0508330    -0.7882090
  H        3.0812650    -1.5550640    -0.6116920
  H        2.7529100    -0.4768670    -1.9861430
  H        1.5225120     0.7762450     1.9430400
  H        3.2574000     0.7146530     1.5762130
  H        2.3438960    -0.7932520     1.7757830
  H       -2.9590570    -1.9673470     0.6070900
  H       -1.9090200    -1.0432980     1.6949070
  H       -1.2193110    -2.3035120     0.6420620
  H       -2.4442120     1.3312090    -0.1521090
units angstrom
no_reorient  #important for SAPT in psi4, default
symmetry c1  #important for SAPT in psi4, default
}

set PROPERTIES_ORIGIN ["COM"]
properties('MP2/aug-cc-pvtz', properties = ['dipole'])
--------------------------------------------------------------------------

    Molecular point group: c1
  Charge       = 0
  Multiplicity = 1
  Basis Set: AUG-CC-PVTZ
    Blend: AUG-CC-PVTZ
  Basis Set: (AUG-CC-PVTZ AUX)
    Blend: AUG-CC-PVTZ-JKFIT

    Orbital Energies [Eh]
    ---------------------

    Doubly Occupied:

       1A    -20.547990     2A    -20.533984     3A    -15.596294
       4A    -11.359992     5A    -11.287250     6A    -11.277534
       7A    -11.242730     8A    -11.232491     9A    -11.222352
      10A     -1.400540    11A     -1.350485    12A     -1.249267
      13A     -1.091121    14A     -1.048258    15A     -0.949978
      16A     -0.884327    17A     -0.820269    18A     -0.794409
      19A     -0.744435    20A     -0.686530    21A     -0.661015
      22A     -0.644680    23A     -0.629462    24A     -0.605419
      25A     -0.596254    26A     -0.564509    27A     -0.555155
      28A     -0.536763    29A     -0.529974    30A     -0.512008
      31A     -0.503054    32A     -0.491966    33A     -0.487366
      34A     -0.459282    35A     -0.425583    36A     -0.402207

  @DF-RHF Final Energy:  -439.08707144037129

   => Energetics <=

    Nuclear Repulsion Energy =            489.0138587944445590
    One-Electron Energy =               -1568.3519886809679065
    Two-Electron Energy =                 640.2510584461520011
    Total Energy =                       -439.0870714403713464
  Basis Set: (AUG-CC-PVTZ AUX)
    Blend: AUG-CC-PVTZ-RI
    Molecular point group: c1

    Geometry (in Angstrom), charge = 0, multiplicity = 1:

       Center              X                  Y                   Z               Mass
    ------------   -----------------  -----------------  -----------------  -----------------
         O           -2.877688342352     0.448747877550    -0.292130279004    15.994914619570
         O           -0.524122342352     1.524676877550     0.067851720996    15.994914619570
         N            0.654194657648    -0.387389122450    -0.323053279004    14.003074004430
         C            1.962688657648     0.214131877550    -0.082722279004    12.000000000000
         C           -1.803274342352    -0.463224122450    -0.356898279004    12.000000000000
         C            3.004723657648    -0.519850122450    -0.911178279004    12.000000000000
         C            2.290943657648     0.218315877550     1.406200720996    12.000000000000
         C           -0.495215342352     0.310820877550    -0.181935279004    12.000000000000
         C           -1.952009042352    -1.385598322450     0.581491020996    12.000000000000
         H            1.876762657648     1.248426877550    -0.427222279004     1.007825032230
         H            0.601469657648    -1.394967122450    -0.423600279004     1.007825032230
         H           -1.788948342352    -0.941629122450    -1.348880279004     1.007825032230
         H            3.988393657648    -0.063585122450    -0.775235279004     1.007825032230
         H            3.079208657648    -1.567816122450    -0.598718279004     1.007825032230
         H            2.750853657648    -0.489619122450    -1.973169279004     1.007825032230
         H            1.520455657648     0.763492877550     1.956013720996     1.007825032230
         H            3.255343657648     0.701900877550     1.589186720996     1.007825032230
         H            2.341839657648    -0.806004122450     1.788756720996     1.007825032230
         H           -2.961113342352    -1.980099122450     0.620063720996     1.007825032230
         H           -1.911076342352    -1.056050122450     1.707880720996     1.007825032230
         H           -1.221367342352    -2.316264122450     0.655035720996     1.007825032230
         H           -2.446268342352     1.318456877550    -0.139135279004     1.007825032230

  Basis Set: AUG-CC-PVTZ
    Blend: AUG-CC-PVTZ
  Basis Set: (AUG-CC-PVTZ AUX)
    Blend: AUG-CC-PVTZ-JKFIT
	 Reference Energy          =    -439.0870714403712896 [Eh]
	 Singles Energy            =      -0.0000000000000000 [Eh]
	 Same-Spin Energy          =      -0.4490933139314168 [Eh]
	 Opposite-Spin Energy      =      -1.4677527850555410 [Eh]
	 Correlation Energy        =      -1.9168460989869578 [Eh]
	 Total Energy              =    -441.0039175393582696 [Eh]

	 ================> DF-SCS-MP2 Energies <==================
	-----------------------------------------------------------
	 SCS Same-Spin Scale       =       0.3333333333333333 [-]
	 SCS Opposite-Spin Scale   =       1.2000000000000000 [-]
	 SCS Same-Spin Energy      =      -0.1496977713104722 [Eh]
	 SCS Opposite-Spin Energy  =      -1.7613033420666491 [Eh]
	 SCS Correlation Energy    =      -1.9110011133771212 [Eh]
	 SCS Total Energy          =    -440.9980725537483863 [Eh]
	-----------------------------------------------------------

  Dipole Moment: [D]
     X:     3.5078      Y:    -3.0849      Z:    -0.1109     Total:     4.6727

*** Psi4 exiting successfully. Buy a developer a beer!
