                               Psi4 1.3.2 release

  ==> Input File <==

--------------------------------------------------------------------------
#psi4
#
memory 32 gb

molecule  {
0 1
  O       -2.8756320     0.4615000    -0.3051040
  O       -0.5220660     1.5374290     0.0548780
  N        0.6832786    -0.4400810    -0.3072251
  C        1.9647450     0.2268840    -0.0956960
  C       -1.8012180    -0.4504720    -0.3698720
  C        3.0067800    -0.5070980    -0.9241520
  C        2.2930000     0.2310680     1.3932270
  C       -0.4931590     0.3235730    -0.1949090
  C       -1.9724170    -1.5121580     0.7102480
  H        1.9334136     1.2692101    -0.4249442
  H        0.6035260    -1.3822150    -0.4365740
  H       -1.7868920    -0.9288770    -1.3618540
  H        3.9904500    -0.0508330    -0.7882090
  H        3.0812650    -1.5550640    -0.6116920
  H        2.7529100    -0.4768670    -1.9861430
  H        1.5225120     0.7762450     1.9430400
  H        3.2574000     0.7146530     1.5762130
  H        2.3438960    -0.7932520     1.7757830
  H       -2.9590570    -1.9673470     0.6070900
  H       -1.9090200    -1.0432980     1.6949070
  H       -1.2193110    -2.3035120     0.6420620
  H       -2.4442120     1.3312090    -0.1521090
units angstrom
no_reorient  #important for SAPT in psi4, default
symmetry c1  #important for SAPT in psi4, default
}

set PROPERTIES_ORIGIN ["COM"]
properties('MP2/aug-cc-pvtz', properties = ['dipole'])
--------------------------------------------------------------------------

    Molecular point group: c1
  Charge       = 0
  Multiplicity = 1
  Basis Set: AUG-CC-PVTZ
    Blend: AUG-CC-PVTZ
  Basis Set: (AUG-CC-PVTZ AUX)
    Blend: AUG-CC-PVTZ-JKFIT

    Orbital Energies [Eh]
    ---------------------

    Doubly Occupied:

       1A    -20.549501     2A    -20.542884     3A    -15.589655
       4A    -11.367083     5A    -11.298746     6A    -11.275782
       7A    -11.231414     8A    -11.229282     9A    -11.219252
      10A     -1.399025    11A     -1.347412    12A     -1.245169
      13A     -1.068600    14A     -1.023980    15A     -0.947714
      16A     -0.894455    17A     -0.823742    18A     -0.794627
      19A     -0.735123    20A     -0.682911    21A     -0.655207
      22A     -0.639433    23A     -0.623676    24A     -0.595565
      25A     -0.582200    26A     -0.567718    27A     -0.553334
      28A     -0.544876    29A     -0.538733    30A     -0.529040
      31A     -0.518025    32A     -0.502352    33A     -0.487524
      34A     -0.446470    35A     -0.436690    36A     -0.400385

  @DF-RHF Final Energy:  -439.12996966572933

   => Energetics <=

    Nuclear Repulsion Energy =            484.4969122805291590
    One-Electron Energy =               -1559.4785911980100082
    Two-Electron Energy =                 635.8517092517515721
    Total Energy =                       -439.1299696657292770
  Basis Set: (AUG-CC-PVTZ AUX)
    Blend: AUG-CC-PVTZ-RI
    Molecular point group: c1

    Geometry (in Angstrom), charge = 0, multiplicity = 1:

       Center              X                  Y                   Z               Mass
    ------------   -----------------  -----------------  -----------------  -----------------
         O           -2.878938734448     0.468428812290    -0.308297643789    15.994914619570
         O           -0.525372734448     1.544357812290     0.051684356211    15.994914619570
         N            0.679971865552    -0.433152187710    -0.310418743789    14.003074004430
         C            1.961438265552     0.233812812290    -0.098889643789    12.000000000000
         C           -1.804524734448    -0.443543187710    -0.373065643789    12.000000000000
         C            3.003473265552    -0.500169187710    -0.927345643789    12.000000000000
         C            2.289693265552     0.237996812290     1.390033356211    12.000000000000
         C           -0.496465734448     0.330501812290    -0.198102643789    12.000000000000
         C           -1.975723734448    -1.505229187710     0.707054356211    12.000000000000
         H            1.930106865552     1.276138912290    -0.428137843789     1.007825032230
         H            0.600219265552    -1.375286187710    -0.439767643789     1.007825032230
         H           -1.790198734448    -0.921948187710    -1.365047643789     1.007825032230
         H            3.987143265552    -0.043904187710    -0.791402643789     1.007825032230
         H            3.077958265552    -1.548135187710    -0.614885643789     1.007825032230
         H            2.749603265552    -0.469938187710    -1.989336643789     1.007825032230
         H            1.519205265552     0.783173812290     1.939846356211     1.007825032230
         H            3.254093265552     0.721581812290     1.573019356211     1.007825032230
         H            2.340589265552    -0.786323187710     1.772589356211     1.007825032230
         H           -2.962363734448    -1.960418187710     0.603896356211     1.007825032230
         H           -1.912326734448    -1.036369187710     1.691713356211     1.007825032230
         H           -1.222617734448    -2.296583187710     0.638868356211     1.007825032230
         H           -2.447518734448     1.338137812290    -0.155302643789     1.007825032230

  Basis Set: AUG-CC-PVTZ
    Blend: AUG-CC-PVTZ
  Basis Set: (AUG-CC-PVTZ AUX)
    Blend: AUG-CC-PVTZ-JKFIT
	 Reference Energy          =    -439.1299696657293339 [Eh]
	 Singles Energy            =      -0.0000000000000000 [Eh]
	 Same-Spin Energy          =      -0.4459276799609087 [Eh]
	 Opposite-Spin Energy      =      -1.4640243891658953 [Eh]
	 Correlation Energy        =      -1.9099520691268039 [Eh]
	 Total Energy              =    -441.0399217348561365 [Eh]

	 ================> DF-SCS-MP2 Energies <==================
	-----------------------------------------------------------
	 SCS Same-Spin Scale       =       0.3333333333333333 [-]
	 SCS Opposite-Spin Scale   =       1.2000000000000000 [-]
	 SCS Same-Spin Energy      =      -0.1486425599869696 [Eh]
	 SCS Opposite-Spin Energy  =      -1.7568292669990744 [Eh]
	 SCS Correlation Energy    =      -1.9054718269860440 [Eh]
	 SCS Total Energy          =    -441.0354414927153925 [Eh]
	-----------------------------------------------------------

  Dipole Moment: [D]
     X:     3.2102      Y:    -2.8628      Z:    -0.1832     Total:     4.3052

*** Psi4 exiting successfully. Buy a developer a beer!
