                               Psi4 1.4a3.dev225

  ==> Input File <==

--------------------------------------------------------------------------
#psi4
#
memory 32 gb

molecule  {
0 1
  O        2.9110620    -0.5703060    -0.4523520
  O        0.5539390    -1.5540470     0.1662040
  N       -0.5943370     0.3369340    -0.3930300
  C       -1.9154150    -0.2304160    -0.1256420
  C        1.8655780     0.3788930    -0.3941620
  C       -2.9513150     0.5221750    -0.9483650
  C       -2.2232580    -0.2086170     1.3682650
  C        0.5443190    -0.3662470    -0.1910430
  C        2.1035320     1.3624180     0.7499890
  H       -1.8664900    -1.2716350    -0.4595930
  H       -0.5249349     1.3665767    -0.6498121
  H        1.8317100     0.9202690    -1.3505730
  H       -3.9433690     0.0896600    -0.7945050
  H       -2.9965010     1.5743390    -0.6446630
  H       -2.7149650     0.4749500    -2.0147890
  H       -1.4563020    -0.7629570     1.9136170
  H       -3.1950150    -0.6709470     1.5682930
  H       -2.2473660     0.8219210     1.7368640
  H        3.0888910     1.8183940     0.6312910
  H        2.0827360     0.8223960     1.7004970
  H        1.3487660     2.1553220     0.7756360
  H        2.4958040    -1.4028240    -0.1381920
units angstrom
no_reorient  #important for SAPT in psi4, default
symmetry c1  #important for SAPT in psi4, default
}

set PROPERTIES_ORIGIN ["COM"]
properties('MP2/aug-cc-pvtz', properties = ['dipole'])
--------------------------------------------------------------------------

    Molecular point group: c1
  Charge       = 0
  Multiplicity = 1
  Basis Set: AUG-CC-PVTZ
    Blend: AUG-CC-PVTZ
  Basis Set: (AUG-CC-PVTZ AUX)
    Blend: AUG-CC-PVTZ-JKFIT

    Orbital Energies [Eh]
    ---------------------

    Doubly Occupied:

       1A    -20.548462     2A    -20.531487     3A    -15.600645
       4A    -11.357903     5A    -11.297409     6A    -11.278203
       7A    -11.233425     8A    -11.229697     9A    -11.220965
      10A     -1.395370    11A     -1.345410    12A     -1.241763
      13A     -1.070611    14A     -1.022692    15A     -0.949358
      16A     -0.893198    17A     -0.820235    18A     -0.785053
      19A     -0.736737    20A     -0.676819    21A     -0.640773
      22A     -0.633667    23A     -0.628533    24A     -0.594017
      25A     -0.582077    26A     -0.570706    27A     -0.555068
      28A     -0.548018    29A     -0.536658    30A     -0.528384
      31A     -0.511255    32A     -0.502003    33A     -0.491162
      34A     -0.446119    35A     -0.431456    36A     -0.400670

  @DF-RHF Final Energy:  -439.13389363327116

   => Energetics <=

    Nuclear Repulsion Energy =            484.7800011417106703
    One-Electron Energy =               -1560.1557703828543708
    Two-Electron Energy =                 636.2418756078724300
    Total Energy =                       -439.1338936332712137
  Basis Set: (AUG-CC-PVTZ AUX)
    Blend: AUG-CC-PVTZ-RI
    Molecular point group: c1

    Geometry (in Angstrom), charge = 0, multiplicity = 1:

       Center              X                  Y                   Z               Mass
    ------------   -----------------  -----------------  -----------------  -----------------
         O            2.849879121860    -0.526213032373    -0.434958675424    15.994914619570
         O            0.492756121860    -1.509954032373     0.183597324576    15.994914619570
         N           -0.655519878140     0.381026967627    -0.375636675424    14.003074004430
         C           -1.976597878140    -0.186323032373    -0.108248675424    12.000000000000
         C            1.804395121860     0.422985967627    -0.376768675424    12.000000000000
         C           -3.012497878140     0.566267967627    -0.930971675424    12.000000000000
         C           -2.284440878140    -0.164524032373     1.385658324576    12.000000000000
         C            0.483136121860    -0.322154032373    -0.173649675424    12.000000000000
         C            2.042349121860     1.406510967627     0.767382324576    12.000000000000
         H           -1.927672878140    -1.227542032373    -0.442199675424     1.007825032230
         H           -0.586117778140     1.410669667627    -0.632418775424     1.007825032230
         H            1.770527121860     0.964361967627    -1.333179675424     1.007825032230
         H           -4.004551878140     0.133752967627    -0.777111675424     1.007825032230
         H           -3.057683878140     1.618431967627    -0.627269675424     1.007825032230
         H           -2.776147878140     0.519042967627    -1.997395675424     1.007825032230
         H           -1.517484878140    -0.718864032373     1.931010324576     1.007825032230
         H           -3.256197878140    -0.626854032373     1.585686324576     1.007825032230
         H           -2.308548878140     0.866013967627     1.754257324576     1.007825032230
         H            3.027708121860     1.862486967627     0.648684324576     1.007825032230
         H            2.021553121860     0.866488967627     1.717890324576     1.007825032230
         H            1.287583121860     2.199414967627     0.793029324576     1.007825032230
         H            2.434621121860    -1.358731032373    -0.120798675424     1.007825032230

  Basis Set: AUG-CC-PVTZ
    Blend: AUG-CC-PVTZ
  Basis Set: (AUG-CC-PVTZ AUX)
    Blend: AUG-CC-PVTZ-JKFIT
	 Reference Energy          =    -439.1338936332711569 [Eh]
	 Singles Energy            =      -0.0000000000000000 [Eh]
	 Same-Spin Energy          =      -0.4463676189587271 [Eh]
	 Opposite-Spin Energy      =      -1.4647826948524916 [Eh]
	 Correlation Energy        =      -1.9111503138112187 [Eh]
	 Total Energy              =    -441.0450439470823767 [Eh]

	 ================> DF-SCS-MP2 Energies <==================
	-----------------------------------------------------------
	 SCS Same-Spin Scale       =       0.3333333333333333 [-]
	 SCS Opposite-Spin Scale   =       1.2000000000000000 [-]
	 SCS Same-Spin Energy      =      -0.1487892063195757 [Eh]
	 SCS Opposite-Spin Energy  =      -1.7577392338229898 [Eh]
	 SCS Correlation Energy    =      -1.9065284401425655 [Eh]
	 SCS Total Energy          =    -441.0404220734137084 [Eh]
	-----------------------------------------------------------

  Dipole Moment: [D]
     X:    -3.3964      Y:     3.1591      Z:    -0.1930     Total:     4.6424

*** Psi4 exiting successfully. Buy a developer a beer!
