                               Psi4 1.3.2 release

  ==> Input File <==

--------------------------------------------------------------------------
#psi4
#
memory 32 gb

molecule  {
0 1
  O       -2.8756320     0.4615000    -0.3051040
  O       -0.5220660     1.5374290     0.0548780
  N        0.6562510    -0.3746370    -0.3360270
  C        1.9307634     0.2953375    -0.0941687
  C       -1.8012180    -0.4504720    -0.3698720
  C        3.0067800    -0.5070980    -0.9241520
  C        2.2930000     0.2310680     1.3932270
  C       -0.4931590     0.3235730    -0.1949090
  C       -1.9724170    -1.5121580     0.7102480
  H        1.8788190     1.2611790    -0.4401960
  H        0.5511213    -1.3773806    -0.4435264
  H       -1.7868920    -0.9288770    -1.3618540
  H        3.9904500    -0.0508330    -0.7882090
  H        3.0812650    -1.5550640    -0.6116920
  H        2.7529100    -0.4768670    -1.9861430
  H        1.5225120     0.7762450     1.9430400
  H        3.2574000     0.7146530     1.5762130
  H        2.3438960    -0.7932520     1.7757830
  H       -2.9590570    -1.9673470     0.6070900
  H       -1.9090200    -1.0432980     1.6949070
  H       -1.2193110    -2.3035120     0.6420620
  H       -2.4442120     1.3312090    -0.1521090
units angstrom
no_reorient  #important for SAPT in psi4, default
symmetry c1  #important for SAPT in psi4, default
}

set PROPERTIES_ORIGIN ["COM"]
properties('MP2/aug-cc-pvtz', properties = ['dipole'])
--------------------------------------------------------------------------

    Molecular point group: c1
  Charge       = 0
  Multiplicity = 1
  Basis Set: AUG-CC-PVTZ
    Blend: AUG-CC-PVTZ
  Basis Set: (AUG-CC-PVTZ AUX)
    Blend: AUG-CC-PVTZ-JKFIT

    Orbital Energies [Eh]
    ---------------------

    Doubly Occupied:

       1A    -20.547833     2A    -20.531937     3A    -15.595922
       4A    -11.356123     5A    -11.297258     6A    -11.277030
       7A    -11.232570     8A    -11.231371     9A    -11.222538
      10A     -1.397523    11A     -1.346084    12A     -1.247702
      13A     -1.068033    14A     -1.022418    15A     -0.943962
      16A     -0.894211    17A     -0.831804    18A     -0.791984
      19A     -0.736328    20A     -0.684594    21A     -0.653431
      22A     -0.633146    23A     -0.621858    24A     -0.596118
      25A     -0.580195    26A     -0.566895    27A     -0.554692
      28A     -0.547531    29A     -0.538663    30A     -0.532316
      31A     -0.516742    32A     -0.505409    33A     -0.486063
      34A     -0.445108    35A     -0.433734    36A     -0.400180

  @DF-RHF Final Energy:  -439.13118023964449

   => Energetics <=

    Nuclear Repulsion Energy =            485.2929830243274978
    One-Electron Energy =               -1561.1097181437185100
    Two-Electron Energy =                 636.6855548797466327
    Total Energy =                       -439.1311802396444364
  Basis Set: (AUG-CC-PVTZ AUX)
    Blend: AUG-CC-PVTZ-RI
    Molecular point group: c1

    Geometry (in Angstrom), charge = 0, multiplicity = 1:

       Center              X                  Y                   Z               Mass
    ------------   -----------------  -----------------  -----------------  -----------------
         O           -2.872118582737     0.455196863136    -0.305190228254    15.994914619570
         O           -0.518552582737     1.531125863136     0.054791771746    15.994914619570
         N            0.659764417263    -0.380940136864    -0.336113228254    14.003074004430
         C            1.934276817263     0.289034363136    -0.094254928254    12.000000000000
         C           -1.797704582737    -0.456775136864    -0.369958228254    12.000000000000
         C            3.010293417263    -0.513401136864    -0.924238228254    12.000000000000
         C            2.296513417263     0.224764863136     1.393140771746    12.000000000000
         C           -0.489645582737     0.317269863136    -0.194995228254    12.000000000000
         C           -1.968903582737    -1.518461136864     0.710161771746    12.000000000000
         H            1.882332417263     1.254875863136    -0.440282228254     1.007825032230
         H            0.554634717263    -1.383683736864    -0.443612628254     1.007825032230
         H           -1.783378582737    -0.935180136864    -1.361940228254     1.007825032230
         H            3.993963417263    -0.057136136864    -0.788295228254     1.007825032230
         H            3.084778417263    -1.561367136864    -0.611778228254     1.007825032230
         H            2.756423417263    -0.483170136864    -1.986229228254     1.007825032230
         H            1.526025417263     0.769941863136     1.942953771746     1.007825032230
         H            3.260913417263     0.708349863136     1.576126771746     1.007825032230
         H            2.347409417263    -0.799555136864     1.775696771746     1.007825032230
         H           -2.955543582737    -1.973650136864     0.607003771746     1.007825032230
         H           -1.905506582737    -1.049601136864     1.694820771746     1.007825032230
         H           -1.215797582737    -2.309815136864     0.641975771746     1.007825032230
         H           -2.440698582737     1.324905863136    -0.152195228254     1.007825032230

  Basis Set: AUG-CC-PVTZ
    Blend: AUG-CC-PVTZ
  Basis Set: (AUG-CC-PVTZ AUX)
    Blend: AUG-CC-PVTZ-JKFIT
	 Reference Energy          =    -439.1311802396444932 [Eh]
	 Singles Energy            =      -0.0000000000000000 [Eh]
	 Same-Spin Energy          =      -0.4457244675532709 [Eh]
	 Opposite-Spin Energy      =      -1.4634973829145963 [Eh]
	 Correlation Energy        =      -1.9092218504678673 [Eh]
	 Total Energy              =    -441.0404020901123658 [Eh]

	 ================> DF-SCS-MP2 Energies <==================
	-----------------------------------------------------------
	 SCS Same-Spin Scale       =       0.3333333333333333 [-]
	 SCS Opposite-Spin Scale   =       1.2000000000000000 [-]
	 SCS Same-Spin Energy      =      -0.1485748225177569 [Eh]
	 SCS Opposite-Spin Energy  =      -1.7561968594975155 [Eh]
	 SCS Correlation Energy    =      -1.9047716820152725 [Eh]
	 SCS Total Energy          =    -441.0359519216597732 [Eh]
	-----------------------------------------------------------

  Dipole Moment: [D]
     X:     3.3856      Y:    -3.0392      Z:    -0.1272     Total:     4.5514

*** Psi4 exiting successfully. Buy a developer a beer!
