                               Psi4 1.3.2 release

  ==> Input File <==

--------------------------------------------------------------------------
#psi4
#
memory 32 gb

molecule  {
0 1
  O       -2.8756320     0.4615000    -0.3051040
  O       -0.5220660     1.5374290     0.0548780
  N        0.6562510    -0.3746370    -0.3360270
  C        1.9647450     0.2268840    -0.0956960
  C       -1.8012180    -0.4504720    -0.3698720
  C        3.0067800    -0.5070980    -0.9241520
  C        2.2930000     0.2310680     1.3932270
  C       -0.4869393     0.3335798    -0.1942535
  C       -1.9724170    -1.5121580     0.7102480
  H        1.8788190     1.2611790    -0.4401960
  H        0.6123485    -1.3825810    -0.4371432
  H       -1.7868920    -0.9288770    -1.3618540
  H        3.9904500    -0.0508330    -0.7882090
  H        3.0812650    -1.5550640    -0.6116920
  H        2.7529100    -0.4768670    -1.9861430
  H        1.5225120     0.7762450     1.9430400
  H        3.2574000     0.7146530     1.5762130
  H        2.3438960    -0.7932520     1.7757830
  H       -2.9590570    -1.9673470     0.6070900
  H       -1.9090200    -1.0432980     1.6949070
  H       -1.2193110    -2.3035120     0.6420620
  H       -2.4442120     1.3312090    -0.1521090
units angstrom
no_reorient  #important for SAPT in psi4, default
symmetry c1  #important for SAPT in psi4, default
}

set PROPERTIES_ORIGIN ["COM"]
properties('MP2/aug-cc-pvtz', properties = ['dipole'])
--------------------------------------------------------------------------

    Molecular point group: c1
  Charge       = 0
  Multiplicity = 1
  Basis Set: AUG-CC-PVTZ
    Blend: AUG-CC-PVTZ
  Basis Set: (AUG-CC-PVTZ AUX)
    Blend: AUG-CC-PVTZ-JKFIT

    Orbital Energies [Eh]
    ---------------------

    Doubly Occupied:

       1A    -20.547368     2A    -20.533980     3A    -15.594943
       4A    -11.357731     5A    -11.296668     6A    -11.276762
       7A    -11.232220     8A    -11.230014     9A    -11.222281
      10A     -1.401607    11A     -1.346893    12A     -1.248840
      13A     -1.071188    14A     -1.022569    15A     -0.949869
      16A     -0.892950    17A     -0.821534    18A     -0.796160
      19A     -0.735714    20A     -0.679086    21A     -0.649399
      22A     -0.633956    23A     -0.628703    24A     -0.598477
      25A     -0.581389    26A     -0.566724    27A     -0.555165
      28A     -0.547826    29A     -0.539764    30A     -0.530830
      31A     -0.513251    32A     -0.503524    33A     -0.491835
      34A     -0.444496    35A     -0.433159    36A     -0.401944

  @DF-RHF Final Energy:  -439.13851628028459

   => Energetics <=

    Nuclear Repulsion Energy =            485.3707246782803395
    One-Electron Energy =               -1561.2608462154310018
    Two-Electron Energy =                 636.7516052568661280
    Total Energy =                       -439.1385162802845343
  Basis Set: (AUG-CC-PVTZ AUX)
    Blend: AUG-CC-PVTZ-RI
    Molecular point group: c1

    Geometry (in Angstrom), charge = 0, multiplicity = 1:

       Center              X                  Y                   Z               Mass
    ------------   -----------------  -----------------  -----------------  -----------------
         O           -2.876269186849     0.460586874157    -0.305159498915    15.994914619570
         O           -0.522703186849     1.536515874157     0.054822501085    15.994914619570
         N            0.655613813151    -0.375550125843    -0.336082498915    14.003074004430
         C            1.964107813151     0.225970874157    -0.095751498915    12.000000000000
         C           -1.801855186849    -0.451385125843    -0.369927498915    12.000000000000
         C            3.006142813151    -0.508011125843    -0.924207498915    12.000000000000
         C            2.292362813151     0.230154874157     1.393171501085    12.000000000000
         C           -0.487576486849     0.332666674157    -0.194308998915    12.000000000000
         C           -1.973054186849    -1.513071125843     0.710192501085    12.000000000000
         H            1.878181813151     1.260265874157    -0.440251498915     1.007825032230
         H            0.611711313151    -1.383494125843    -0.437198698915     1.007825032230
         H           -1.787529186849    -0.929790125843    -1.361909498915     1.007825032230
         H            3.989812813151    -0.051746125843    -0.788264498915     1.007825032230
         H            3.080627813151    -1.555977125843    -0.611747498915     1.007825032230
         H            2.752272813151    -0.477780125843    -1.986198498915     1.007825032230
         H            1.521874813151     0.775331874157     1.942984501085     1.007825032230
         H            3.256762813151     0.713739874157     1.576157501085     1.007825032230
         H            2.343258813151    -0.794165125843     1.775727501085     1.007825032230
         H           -2.959694186849    -1.968260125843     0.607034501085     1.007825032230
         H           -1.909657186849    -1.044211125843     1.694851501085     1.007825032230
         H           -1.219948186849    -2.304425125843     0.642006501085     1.007825032230
         H           -2.444849186849     1.330295874157    -0.152164498915     1.007825032230

  Basis Set: AUG-CC-PVTZ
    Blend: AUG-CC-PVTZ
  Basis Set: (AUG-CC-PVTZ AUX)
    Blend: AUG-CC-PVTZ-JKFIT
	 Reference Energy          =    -439.1385162802845912 [Eh]
	 Singles Energy            =      -0.0000000000000000 [Eh]
	 Same-Spin Energy          =      -0.4457951713696784 [Eh]
	 Opposite-Spin Energy      =      -1.4631851000418961 [Eh]
	 Correlation Energy        =      -1.9089802714115744 [Eh]
	 Total Energy              =    -441.0474965516961561 [Eh]

	 ================> DF-SCS-MP2 Energies <==================
	-----------------------------------------------------------
	 SCS Same-Spin Scale       =       0.3333333333333333 [-]
	 SCS Opposite-Spin Scale   =       1.2000000000000000 [-]
	 SCS Same-Spin Energy      =      -0.1485983904565595 [Eh]
	 SCS Opposite-Spin Energy  =      -1.7558221200502753 [Eh]
	 SCS Correlation Energy    =      -1.9044205105068348 [Eh]
	 SCS Total Energy          =    -441.0429367907914298 [Eh]
	-----------------------------------------------------------

  Dipole Moment: [D]
     X:     3.4757      Y:    -3.0085      Z:    -0.1399     Total:     4.5990

*** Psi4 exiting successfully. Buy a developer a beer!
