                               Psi4 1.3.2 release

  ==> Input File <==

--------------------------------------------------------------------------
#psi4
#
memory 32 gb

molecule  {
0 1
  O       -2.8624572     0.4724127    -0.2589287
  O       -0.5220660     1.5374290     0.0548780
  N        0.6562510    -0.3746370    -0.3360270
  C        1.9647450     0.2268840    -0.0956960
  C       -1.8012180    -0.4504720    -0.3698720
  C        3.0067800    -0.5070980    -0.9241520
  C        2.2930000     0.2310680     1.3932270
  C       -0.4931590     0.3235730    -0.1949090
  C       -1.9724170    -1.5121580     0.7102480
  H        1.8788190     1.2611790    -0.4401960
  H        0.6035260    -1.3822150    -0.4365740
  H       -1.7560417    -0.9490512    -1.3509341
  H        3.9904500    -0.0508330    -0.7882090
  H        3.0812650    -1.5550640    -0.6116920
  H        2.7529100    -0.4768670    -1.9861430
  H        1.5225120     0.7762450     1.9430400
  H        3.2574000     0.7146530     1.5762130
  H        2.3438960    -0.7932520     1.7757830
  H       -2.9590570    -1.9673470     0.6070900
  H       -1.9090200    -1.0432980     1.6949070
  H       -1.2193110    -2.3035120     0.6420620
  H       -2.4442120     1.3312090    -0.1521090
units angstrom
no_reorient  #important for SAPT in psi4, default
symmetry c1  #important for SAPT in psi4, default
}

set PROPERTIES_ORIGIN ["COM"]
properties('MP2/aug-cc-pvtz', properties = ['dipole'])
--------------------------------------------------------------------------

    Molecular point group: c1
  Charge       = 0
  Multiplicity = 1
  Basis Set: AUG-CC-PVTZ
    Blend: AUG-CC-PVTZ
  Basis Set: (AUG-CC-PVTZ AUX)
    Blend: AUG-CC-PVTZ-JKFIT

    Orbital Energies [Eh]
    ---------------------

    Doubly Occupied:

       1A    -20.546987     2A    -20.531364     3A    -15.595122
       4A    -11.357299     5A    -11.298376     6A    -11.276880
       7A    -11.232085     8A    -11.230308     9A    -11.221959
      10A     -1.398197    11A     -1.348793    12A     -1.247489
      13A     -1.072450    14A     -1.024875    15A     -0.949579
      16A     -0.895209    17A     -0.822624    18A     -0.794710
      19A     -0.737302    20A     -0.682152    21A     -0.652611
      22A     -0.632170    23A     -0.628344    24A     -0.596599
      25A     -0.581502    26A     -0.566724    27A     -0.554883
      28A     -0.547882    29A     -0.540084    30A     -0.530011
      31A     -0.512225    32A     -0.502422    33A     -0.491013
      34A     -0.446934    35A     -0.433247    36A     -0.400824

  @DF-RHF Final Energy:  -439.13810456765037

   => Energetics <=

    Nuclear Repulsion Energy =            485.7854525222342090
    One-Electron Energy =               -1562.0846499221133854
    Two-Electron Energy =                 637.1610928322288601
    Total Energy =                       -439.1381045676503163
  Basis Set: (AUG-CC-PVTZ AUX)
    Blend: AUG-CC-PVTZ-RI
    Molecular point group: c1

    Geometry (in Angstrom), charge = 0, multiplicity = 1:

       Center              X                  Y                   Z               Mass
    ------------   -----------------  -----------------  -----------------  -----------------
         O           -2.864301862480     0.471236383321    -0.264646391113    15.994914619570
         O           -0.523910662480     1.536252683321     0.049160308887    15.994914619570
         N            0.654406337520    -0.375813316679    -0.341744691113    14.003074004430
         C            1.962900337520     0.225707683321    -0.101413691113    12.000000000000
         C           -1.803062662480    -0.451648316679    -0.375589691113    12.000000000000
         C            3.004935337520    -0.508274316679    -0.929869691113    12.000000000000
         C            2.291155337520     0.229891683321     1.387509308887    12.000000000000
         C           -0.495003662480     0.322396683321    -0.200626691113    12.000000000000
         C           -1.974261662480    -1.513334316679     0.704530308887    12.000000000000
         H            1.876974337520     1.260002683321    -0.445913691113     1.007825032230
         H            0.601681337520    -1.383391316679    -0.442291691113     1.007825032230
         H           -1.757886362480    -0.950227516679    -1.356651791113     1.007825032230
         H            3.988605337520    -0.052009316679    -0.793926691113     1.007825032230
         H            3.079420337520    -1.556240316679    -0.617409691113     1.007825032230
         H            2.751065337520    -0.478043316679    -1.991860691113     1.007825032230
         H            1.520667337520     0.775068683321     1.937322308887     1.007825032230
         H            3.255555337520     0.713476683321     1.570495308887     1.007825032230
         H            2.342051337520    -0.794428316679     1.770065308887     1.007825032230
         H           -2.960901662480    -1.968523316679     0.601372308887     1.007825032230
         H           -1.910864662480    -1.044474316679     1.689189308887     1.007825032230
         H           -1.221155662480    -2.304688316679     0.636344308887     1.007825032230
         H           -2.446056662480     1.330032683321    -0.157826691113     1.007825032230

  Basis Set: AUG-CC-PVTZ
    Blend: AUG-CC-PVTZ
  Basis Set: (AUG-CC-PVTZ AUX)
    Blend: AUG-CC-PVTZ-JKFIT
	 Reference Energy          =    -439.1381045676503732 [Eh]
	 Singles Energy            =      -0.0000000000000000 [Eh]
	 Same-Spin Energy          =      -0.4457686073186176 [Eh]
	 Opposite-Spin Energy      =      -1.4629623732387049 [Eh]
	 Correlation Energy        =      -1.9087309805573225 [Eh]
	 Total Energy              =    -441.0468355482076959 [Eh]

	 ================> DF-SCS-MP2 Energies <==================
	-----------------------------------------------------------
	 SCS Same-Spin Scale       =       0.3333333333333333 [-]
	 SCS Opposite-Spin Scale   =       1.2000000000000000 [-]
	 SCS Same-Spin Energy      =      -0.1485895357728725 [Eh]
	 SCS Opposite-Spin Energy  =      -1.7555548478864458 [Eh]
	 SCS Correlation Energy    =      -1.9041443836593184 [Eh]
	 SCS Total Energy          =    -441.0422489513097162 [Eh]
	-----------------------------------------------------------

  Dipole Moment: [D]
     X:     3.4079      Y:    -3.0680      Z:    -0.2354     Total:     4.5915

*** Psi4 exiting successfully. Buy a developer a beer!
