                               Psi4 1.4a3.dev225

  ==> Input File <==

--------------------------------------------------------------------------
#psi4
#
memory 32 gb

molecule  {
0 1
  O        2.9110620    -0.5703060    -0.4523520
  O        0.5539390    -1.5540470     0.1662040
  N       -0.5943370     0.3369340    -0.3930300
  C       -1.9154150    -0.2304160    -0.1256420
  C        1.8655780     0.3788930    -0.3941620
  C       -2.9513150     0.5221750    -0.9483650
  C       -2.2232580    -0.2086170     1.3682650
  C        0.5270525    -0.3759847    -0.1883886
  C        2.1035320     1.3624180     0.7499890
  H       -1.8664900    -1.2716350    -0.4595930
  H       -0.5281980     1.3181660    -0.6377390
  H        1.8317100     0.9202690    -1.3505730
  H       -3.9433690     0.0896600    -0.7945050
  H       -2.9965010     1.5743390    -0.6446630
  H       -2.7149650     0.4749500    -2.0147890
  H       -1.4563020    -0.7629570     1.9136170
  H       -3.1950150    -0.6709470     1.5682930
  H       -2.2473660     0.8219210     1.7368640
  H        3.0888910     1.8183940     0.6312910
  H        2.0827360     0.8223960     1.7004970
  H        1.3487660     2.1553220     0.7756360
  H        2.4958040    -1.4028240    -0.1381920
units angstrom
no_reorient  #important for SAPT in psi4, default
symmetry c1  #important for SAPT in psi4, default
}

set PROPERTIES_ORIGIN ["COM"]
properties('MP2/aug-cc-pvtz', properties = ['dipole'])
--------------------------------------------------------------------------

    Molecular point group: c1
  Charge       = 0
  Multiplicity = 1
  Basis Set: AUG-CC-PVTZ
    Blend: AUG-CC-PVTZ
  Basis Set: (AUG-CC-PVTZ AUX)
    Blend: AUG-CC-PVTZ-JKFIT

    Orbital Energies [Eh]
    ---------------------

    Doubly Occupied:

       1A    -20.547674     2A    -20.532094     3A    -15.596586
       4A    -11.356409     5A    -11.296551     6A    -11.278424
       7A    -11.233899     8A    -11.228476     9A    -11.221672
      10A     -1.399469    11A     -1.346106    12A     -1.250598
      13A     -1.070987    14A     -1.021494    15A     -0.950197
      16A     -0.890100    17A     -0.821106    18A     -0.797805
      19A     -0.735320    20A     -0.677999    21A     -0.641704
      22A     -0.636948    23A     -0.629477    24A     -0.597548
      25A     -0.581619    26A     -0.570227    27A     -0.555687
      28A     -0.548365    29A     -0.537208    30A     -0.529353
      31A     -0.512028    32A     -0.503253    33A     -0.492338
      34A     -0.445208    35A     -0.428355    36A     -0.403154

  @DF-RHF Final Energy:  -439.13839648286944

   => Energetics <=

    Nuclear Repulsion Energy =            485.1570625774048153
    One-Electron Energy =               -1560.8600413448032214
    Two-Electron Energy =                 636.5645822845290240
    Total Energy =                       -439.1383964828694388
  Basis Set: (AUG-CC-PVTZ AUX)
    Blend: AUG-CC-PVTZ-RI
    Molecular point group: c1

    Geometry (in Angstrom), charge = 0, multiplicity = 1:

       Center              X                  Y                   Z               Mass
    ------------   -----------------  -----------------  -----------------  -----------------
         O            2.851484730236    -0.524949502990    -0.435294466241    15.994914619570
         O            0.494361730236    -1.508690502990     0.183261533759    15.994914619570
         N           -0.653914269764     0.382290497010    -0.375972466241    14.003074004430
         C           -1.974992269764    -0.185059502990    -0.108584466241    12.000000000000
         C            1.806000730236     0.424249497010    -0.377104466241    12.000000000000
         C           -3.010892269764     0.567531497010    -0.931307466241    12.000000000000
         C           -2.282835269764    -0.163260502990     1.385322533759    12.000000000000
         C            0.467475230236    -0.330628202990    -0.171331066241    12.000000000000
         C            2.043954730236     1.407774497010     0.767046533759    12.000000000000
         H           -1.926067269764    -1.226278502990    -0.442535466241     1.007825032230
         H           -0.587775269764     1.363522497010    -0.620681466241     1.007825032230
         H            1.772132730236     0.965625497010    -1.333515466241     1.007825032230
         H           -4.002946269764     0.135016497010    -0.777447466241     1.007825032230
         H           -3.056078269764     1.619695497010    -0.627605466241     1.007825032230
         H           -2.774542269764     0.520306497010    -1.997731466241     1.007825032230
         H           -1.515879269764    -0.717600502990     1.930674533759     1.007825032230
         H           -3.254592269764    -0.625590502990     1.585350533759     1.007825032230
         H           -2.306943269764     0.867277497010     1.753921533759     1.007825032230
         H            3.029313730236     1.863750497010     0.648348533759     1.007825032230
         H            2.023158730236     0.867752497010     1.717554533759     1.007825032230
         H            1.289188730236     2.200678497010     0.792693533759     1.007825032230
         H            2.436226730236    -1.357467502990    -0.121134466241     1.007825032230

  Basis Set: AUG-CC-PVTZ
    Blend: AUG-CC-PVTZ
  Basis Set: (AUG-CC-PVTZ AUX)
    Blend: AUG-CC-PVTZ-JKFIT
	 Reference Energy          =    -439.1383964828694388 [Eh]
	 Singles Energy            =      -0.0000000000000000 [Eh]
	 Same-Spin Energy          =      -0.4456571326801251 [Eh]
	 Opposite-Spin Energy      =      -1.4632177004854967 [Eh]
	 Correlation Energy        =      -1.9088748331656218 [Eh]
	 Total Energy              =    -441.0472713160350509 [Eh]

	 ================> DF-SCS-MP2 Energies <==================
	-----------------------------------------------------------
	 SCS Same-Spin Scale       =       0.3333333333333333 [-]
	 SCS Opposite-Spin Scale   =       1.2000000000000000 [-]
	 SCS Same-Spin Energy      =      -0.1485523775600417 [Eh]
	 SCS Opposite-Spin Energy  =      -1.7558612405825960 [Eh]
	 SCS Correlation Energy    =      -1.9044136181426377 [Eh]
	 SCS Total Energy          =    -441.0428101010120940 [Eh]
	-----------------------------------------------------------

  Dipole Moment: [D]
     X:    -3.4715      Y:     3.0871      Z:    -0.1806     Total:     4.6491

*** Psi4 exiting successfully. Buy a developer a beer!
