                               Psi4 1.3.2 release

  ==> Input File <==

--------------------------------------------------------------------------
#psi4
#
memory 32 gb

molecule  {
0 1
  O       -2.8756320     0.4615000    -0.3051040
  O       -0.5220660     1.5374290     0.0548780
  N        0.6562510    -0.3746370    -0.3360270
  C        1.9647450     0.2268840    -0.0956960
  C       -1.8012180    -0.4504720    -0.3698720
  C        3.0067800    -0.5070980    -0.9241520
  C        2.2930000     0.2310680     1.3932270
  C       -0.4714040     0.2991955    -0.2680415
  C       -1.9724170    -1.5121580     0.7102480
  H        1.8788190     1.2611790    -0.4401960
  H        0.6035260    -1.3822150    -0.4365740
  H       -1.7348001    -0.9057412    -1.3705835
  H        3.9904500    -0.0508330    -0.7882090
  H        3.0812650    -1.5550640    -0.6116920
  H        2.7529100    -0.4768670    -1.9861430
  H        1.5225120     0.7762450     1.9430400
  H        3.2574000     0.7146530     1.5762130
  H        2.3438960    -0.7932520     1.7757830
  H       -2.9590570    -1.9673470     0.6070900
  H       -1.9090200    -1.0432980     1.6949070
  H       -1.2193110    -2.3035120     0.6420620
  H       -2.4442120     1.3312090    -0.1521090
units angstrom
no_reorient  #important for SAPT in psi4, default
symmetry c1  #important for SAPT in psi4, default
}

set PROPERTIES_ORIGIN ["COM"]
properties('MP2/aug-cc-pvtz', properties = ['dipole'])
--------------------------------------------------------------------------

    Molecular point group: c1
  Charge       = 0
  Multiplicity = 1
  Basis Set: AUG-CC-PVTZ
    Blend: AUG-CC-PVTZ
  Basis Set: (AUG-CC-PVTZ AUX)
    Blend: AUG-CC-PVTZ-JKFIT

    Orbital Energies [Eh]
    ---------------------

    Doubly Occupied:

       1A    -20.547256     2A    -20.521798     3A    -15.603578
       4A    -11.356745     5A    -11.298354     6A    -11.281093
       7A    -11.234945     8A    -11.232004     9A    -11.224248
      10A     -1.381565    11A     -1.338797    12A     -1.253034
      13A     -1.077889    14A     -1.025143    15A     -0.952142
      16A     -0.899370    17A     -0.827179    18A     -0.803485
      19A     -0.731393    20A     -0.677954    21A     -0.652009
      22A     -0.631255    23A     -0.625005    24A     -0.595367
      25A     -0.579514    26A     -0.566456    27A     -0.557468
      28A     -0.550971    29A     -0.540204    30A     -0.528936
      31A     -0.505530    32A     -0.500674    33A     -0.491622
      34A     -0.445322    35A     -0.427212    36A     -0.401722

  @DF-RHF Final Energy:  -439.12921595300674

   => Energetics <=

    Nuclear Repulsion Energy =            485.1511219388526115
    One-Electron Energy =               -1560.8261995369482520
    Two-Electron Energy =                 636.5458616450889622
    Total Energy =                       -439.1292159530066783
  Basis Set: (AUG-CC-PVTZ AUX)
    Blend: AUG-CC-PVTZ-RI
    Molecular point group: c1

    Geometry (in Angstrom), charge = 0, multiplicity = 1:

       Center              X                  Y                   Z               Mass
    ------------   -----------------  -----------------  -----------------  -----------------
         O           -2.878023885625     0.463553631084    -0.298342437348    15.994914619570
         O           -0.524457885625     1.539482631084     0.061639562652    15.994914619570
         N            0.653859114375    -0.372583368916    -0.329265437348    14.003074004430
         C            1.962353114375     0.228937631084    -0.088934437348    12.000000000000
         C           -1.803609885625    -0.448418368916    -0.363110437348    12.000000000000
         C            3.004388114375    -0.505044368916    -0.917390437348    12.000000000000
         C            2.290608114375     0.233121631084     1.399988562652    12.000000000000
         C           -0.473795885625     0.301249131084    -0.261279937348    12.000000000000
         C           -1.974808885625    -1.510104368916     0.717009562652    12.000000000000
         H            1.876427114375     1.263232631084    -0.433434437348     1.007825032230
         H            0.601134114375    -1.380161368916    -0.429812437348     1.007825032230
         H           -1.737191985625    -0.903687568916    -1.363821937348     1.007825032230
         H            3.988058114375    -0.048779368916    -0.781447437348     1.007825032230
         H            3.078873114375    -1.553010368916    -0.604930437348     1.007825032230
         H            2.750518114375    -0.474813368916    -1.979381437348     1.007825032230
         H            1.520120114375     0.778298631084     1.949801562652     1.007825032230
         H            3.255008114375     0.716706631084     1.582974562652     1.007825032230
         H            2.341504114375    -0.791198368916     1.782544562652     1.007825032230
         H           -2.961448885625    -1.965293368916     0.613851562652     1.007825032230
         H           -1.911411885625    -1.041244368916     1.701668562652     1.007825032230
         H           -1.221702885625    -2.301458368916     0.648823562652     1.007825032230
         H           -2.446603885625     1.333262631084    -0.145347437348     1.007825032230

  Basis Set: AUG-CC-PVTZ
    Blend: AUG-CC-PVTZ
  Basis Set: (AUG-CC-PVTZ AUX)
    Blend: AUG-CC-PVTZ-JKFIT
	 Reference Energy          =    -439.1292159530067352 [Eh]
	 Singles Energy            =      -0.0000000000000000 [Eh]
	 Same-Spin Energy          =      -0.4468544466215343 [Eh]
	 Opposite-Spin Energy      =      -1.4651922236065742 [Eh]
	 Correlation Energy        =      -1.9120466702281085 [Eh]
	 Total Energy              =    -441.0412626232348430 [Eh]

	 ================> DF-SCS-MP2 Energies <==================
	-----------------------------------------------------------
	 SCS Same-Spin Scale       =       0.3333333333333333 [-]
	 SCS Opposite-Spin Scale   =       1.2000000000000000 [-]
	 SCS Same-Spin Energy      =      -0.1489514822071781 [Eh]
	 SCS Opposite-Spin Energy  =      -1.7582306683278890 [Eh]
	 SCS Correlation Energy    =      -1.9071821505350670 [Eh]
	 SCS Total Energy          =    -441.0363981035417851 [Eh]
	-----------------------------------------------------------

  Dipole Moment: [D]
     X:     3.7153      Y:    -3.2979      Z:    -0.1924     Total:     4.9715

*** Psi4 exiting successfully. Buy a developer a beer!
