                               Psi4 1.3.2 release

  ==> Input File <==

--------------------------------------------------------------------------
#psi4
#
memory 32 gb

molecule  {
0 1
  O       -2.8756320     0.4615000    -0.3051040
  O       -0.5220660     1.5374290     0.0548780
  N        0.6509969    -0.3662993    -0.3279513
  C        1.9647450     0.2268840    -0.0956960
  C       -1.8012180    -0.4504720    -0.3698720
  C        3.0161823    -0.4990831    -0.9193205
  C        2.2930000     0.2310680     1.3932270
  C       -0.4931590     0.3235730    -0.1949090
  C       -1.9724170    -1.5121580     0.7102480
  H        1.8788190     1.2611790    -0.4401960
  H        0.6035260    -1.3822150    -0.4365740
  H       -1.7868920    -0.9288770    -1.3618540
  H        3.9904500    -0.0508330    -0.7882090
  H        3.0812650    -1.5550640    -0.6116920
  H        2.7529100    -0.4768670    -1.9861430
  H        1.5225120     0.7762450     1.9430400
  H        3.2574000     0.7146530     1.5762130
  H        2.3438960    -0.7932520     1.7757830
  H       -2.9590570    -1.9673470     0.6070900
  H       -1.9090200    -1.0432980     1.6949070
  H       -1.2193110    -2.3035120     0.6420620
  H       -2.4442120     1.3312090    -0.1521090
units angstrom
no_reorient  #important for SAPT in psi4, default
symmetry c1  #important for SAPT in psi4, default
}

set PROPERTIES_ORIGIN ["COM"]
properties('MP2/aug-cc-pvtz', properties = ['dipole'])
--------------------------------------------------------------------------

    Molecular point group: c1
  Charge       = 0
  Multiplicity = 1
  Basis Set: AUG-CC-PVTZ
    Blend: AUG-CC-PVTZ
  Basis Set: (AUG-CC-PVTZ AUX)
    Blend: AUG-CC-PVTZ-JKFIT

    Orbital Energies [Eh]
    ---------------------

    Doubly Occupied:

       1A    -20.547482     2A    -20.530539     3A    -15.597020
       4A    -11.356844     5A    -11.297137     6A    -11.277672
       7A    -11.233153     8A    -11.230601     9A    -11.222280
      10A     -1.397107    11A     -1.345719    12A     -1.248756
      13A     -1.073263    14A     -1.023980    15A     -0.949929
      16A     -0.895281    17A     -0.822888    18A     -0.794915
      19A     -0.736624    20A     -0.678786    21A     -0.649718
      22A     -0.631760    23A     -0.628123    24A     -0.597068
      25A     -0.582211    26A     -0.567742    27A     -0.555674
      28A     -0.549179    29A     -0.540185    30A     -0.530203
      31A     -0.511665    32A     -0.501663    33A     -0.491004
      34A     -0.444694    35A     -0.433854    36A     -0.401468

  @DF-RHF Final Energy:  -439.13753015176633

   => Energetics <=

    Nuclear Repulsion Energy =            485.4681491977224823
    One-Electron Energy =               -1561.4589852426213383
    Two-Electron Energy =                 636.8533058931326423
    Total Energy =                       -439.1375301517663274
  Basis Set: (AUG-CC-PVTZ AUX)
    Blend: AUG-CC-PVTZ-RI
    Molecular point group: c1

    Geometry (in Angstrom), charge = 0, multiplicity = 1:

       Center              X                  Y                   Z               Mass
    ------------   -----------------  -----------------  -----------------  -----------------
         O           -2.875931462200     0.459875788623    -0.306408751309    15.994914619570
         O           -0.522365462200     1.535804788623     0.053573248691    15.994914619570
         N            0.650697437800    -0.367923511377    -0.329256051309    14.003074004430
         C            1.964445537800     0.225259788623    -0.097000751309    12.000000000000
         C           -1.801517462200    -0.452096211377    -0.371176751309    12.000000000000
         C            3.015882837800    -0.500707311377    -0.920625251309    12.000000000000
         C            2.292700537800     0.229443788623     1.391922248691    12.000000000000
         C           -0.493458462200     0.321948788623    -0.196213751309    12.000000000000
         C           -1.972716462200    -1.513782211377     0.708943248691    12.000000000000
         H            1.878519537800     1.259554788623    -0.441500751309     1.007825032230
         H            0.603226537800    -1.383839211377    -0.437878751309     1.007825032230
         H           -1.787191462200    -0.930501211377    -1.363158751309     1.007825032230
         H            3.990150537800    -0.052457211377    -0.789513751309     1.007825032230
         H            3.080965537800    -1.556688211377    -0.612996751309     1.007825032230
         H            2.752610537800    -0.478491211377    -1.987447751309     1.007825032230
         H            1.522212537800     0.774620788623     1.941735248691     1.007825032230
         H            3.257100537800     0.713028788623     1.574908248691     1.007825032230
         H            2.343596537800    -0.794876211377     1.774478248691     1.007825032230
         H           -2.959356462200    -1.968971211377     0.605785248691     1.007825032230
         H           -1.909319462200    -1.044922211377     1.693602248691     1.007825032230
         H           -1.219610462200    -2.305136211377     0.640757248691     1.007825032230
         H           -2.444511462200     1.329584788623    -0.153413751309     1.007825032230

  Basis Set: AUG-CC-PVTZ
    Blend: AUG-CC-PVTZ
  Basis Set: (AUG-CC-PVTZ AUX)
    Blend: AUG-CC-PVTZ-JKFIT
	 Reference Energy          =    -439.1375301517663274 [Eh]
	 Singles Energy            =      -0.0000000000000000 [Eh]
	 Same-Spin Energy          =      -0.4460561129161184 [Eh]
	 Opposite-Spin Energy      =      -1.4636079586706956 [Eh]
	 Correlation Energy        =      -1.9096640715868141 [Eh]
	 Total Energy              =    -441.0471942233531308 [Eh]

	 ================> DF-SCS-MP2 Energies <==================
	-----------------------------------------------------------
	 SCS Same-Spin Scale       =       0.3333333333333333 [-]
	 SCS Opposite-Spin Scale   =       1.2000000000000000 [-]
	 SCS Same-Spin Energy      =      -0.1486853709720394 [Eh]
	 SCS Opposite-Spin Energy  =      -1.7563295504048346 [Eh]
	 SCS Correlation Energy    =      -1.9050149213768741 [Eh]
	 SCS Total Energy          =    -441.0425450731431738 [Eh]
	-----------------------------------------------------------

  Dipole Moment: [D]
     X:     3.5075      Y:    -3.0898      Z:    -0.1643     Total:     4.6772

*** Psi4 exiting successfully. Buy a developer a beer!
