                               Psi4 1.3.2 release

  ==> Input File <==

--------------------------------------------------------------------------
#psi4
#
memory 32 gb

molecule  {
0 1
  O       -2.8756320     0.4615000    -0.3051040
  O       -0.5868815     1.5344351     0.0534949
  N        0.6562510    -0.3746370    -0.3360270
  C        1.9647450     0.2268840    -0.0956960
  C       -1.8409474    -0.3822599    -0.3562858
  C        3.0067800    -0.5070980    -0.9241520
  C        2.2930000     0.2310680     1.3932270
  C       -0.4931590     0.3235730    -0.1949090
  C       -1.9724170    -1.5121580     0.7102480
  H        1.8788190     1.2611790    -0.4401960
  H        0.6035260    -1.3822150    -0.4365740
  H       -1.7868920    -0.9288770    -1.3618540
  H        3.9904500    -0.0508330    -0.7882090
  H        3.0812650    -1.5550640    -0.6116920
  H        2.7529100    -0.4768670    -1.9861430
  H        1.5225120     0.7762450     1.9430400
  H        3.2574000     0.7146530     1.5762130
  H        2.3438960    -0.7932520     1.7757830
  H       -2.9590570    -1.9673470     0.6070900
  H       -1.9090200    -1.0432980     1.6949070
  H       -1.2193110    -2.3035120     0.6420620
  H       -2.4442120     1.3312090    -0.1521090
units angstrom
no_reorient  #important for SAPT in psi4, default
symmetry c1  #important for SAPT in psi4, default
}

set PROPERTIES_ORIGIN ["COM"]
properties('MP2/aug-cc-pvtz', properties = ['dipole'])
--------------------------------------------------------------------------

    Molecular point group: c1
  Charge       = 0
  Multiplicity = 1
  Basis Set: AUG-CC-PVTZ
    Blend: AUG-CC-PVTZ
  Basis Set: (AUG-CC-PVTZ AUX)
    Blend: AUG-CC-PVTZ-JKFIT

    Orbital Energies [Eh]
    ---------------------

    Doubly Occupied:

       1A    -20.552023     2A    -20.532369     3A    -15.598730
       4A    -11.357261     5A    -11.296405     6A    -11.279576
       7A    -11.233574     8A    -11.227094     9A    -11.223601
      10A     -1.411585    11A     -1.364318    12A     -1.251003
      13A     -1.070358    14A     -1.013820    15A     -0.951240
      16A     -0.890583    17A     -0.823629    18A     -0.796057
      19A     -0.749368    20A     -0.679932    21A     -0.650608
      22A     -0.633894    23A     -0.631362    24A     -0.599438
      25A     -0.591734    26A     -0.565600    27A     -0.556509
      28A     -0.546835    29A     -0.543636    30A     -0.531321
      31A     -0.511259    32A     -0.504259    33A     -0.493768
      34A     -0.431321    35A     -0.428882    36A     -0.402329

  @DF-RHF Final Energy:  -439.13074621378678

   => Energetics <=

    Nuclear Repulsion Energy =            485.8200789689302042
    One-Electron Energy =               -1562.0510850652565296
    Two-Electron Energy =                 637.1002598825396035
    Total Energy =                       -439.1307462137867788
  Basis Set: (AUG-CC-PVTZ AUX)
    Blend: AUG-CC-PVTZ-RI
    Molecular point group: c1

    Geometry (in Angstrom), charge = 0, multiplicity = 1:

       Center              X                  Y                   Z               Mass
    ------------   -----------------  -----------------  -----------------  -----------------
         O           -2.864087153602     0.455621412981    -0.306178758735    15.994914619570
         O           -0.575336653602     1.528556512981     0.052420141265    15.994914619570
         N            0.667795846398    -0.380515587019    -0.337101758735    14.003074004430
         C            1.976289846398     0.221005412981    -0.096770758735    12.000000000000
         C           -1.829402553602    -0.388138487019    -0.357360558735    12.000000000000
         C            3.018324846398    -0.512976587019    -0.925226758735    12.000000000000
         C            2.304544846398     0.225189412981     1.392152241265    12.000000000000
         C           -0.481614153602     0.317694412981    -0.195983758735    12.000000000000
         C           -1.960872153602    -1.518036587019     0.709173241265    12.000000000000
         H            1.890363846398     1.255300412981    -0.441270758735     1.007825032230
         H            0.615070846398    -1.388093587019    -0.437648758735     1.007825032230
         H           -1.775347153602    -0.934755587019    -1.362928758735     1.007825032230
         H            4.001994846398    -0.056711587019    -0.789283758735     1.007825032230
         H            3.092809846398    -1.560942587019    -0.612766758735     1.007825032230
         H            2.764454846398    -0.482745587019    -1.987217758735     1.007825032230
         H            1.534056846398     0.770366412981     1.941965241265     1.007825032230
         H            3.268944846398     0.708774412981     1.575138241265     1.007825032230
         H            2.355440846398    -0.799130587019     1.774708241265     1.007825032230
         H           -2.947512153602    -1.973225587019     0.606015241265     1.007825032230
         H           -1.897475153602    -1.049176587019     1.693832241265     1.007825032230
         H           -1.207766153602    -2.309390587019     0.640987241265     1.007825032230
         H           -2.432667153602     1.325330412981    -0.153183758735     1.007825032230

  Basis Set: AUG-CC-PVTZ
    Blend: AUG-CC-PVTZ
  Basis Set: (AUG-CC-PVTZ AUX)
    Blend: AUG-CC-PVTZ-JKFIT
	 Reference Energy          =    -439.1307462137867788 [Eh]
	 Singles Energy            =      -0.0000000000000000 [Eh]
	 Same-Spin Energy          =      -0.4462024084943820 [Eh]
	 Opposite-Spin Energy      =      -1.4627957675303196 [Eh]
	 Correlation Energy        =      -1.9089981760247017 [Eh]
	 Total Energy              =    -441.0397443898114602 [Eh]

	 ================> DF-SCS-MP2 Energies <==================
	-----------------------------------------------------------
	 SCS Same-Spin Scale       =       0.3333333333333333 [-]
	 SCS Opposite-Spin Scale   =       1.2000000000000000 [-]
	 SCS Same-Spin Energy      =      -0.1487341361647940 [Eh]
	 SCS Opposite-Spin Energy  =      -1.7553549210363835 [Eh]
	 SCS Correlation Energy    =      -1.9040890572011775 [Eh]
	 SCS Total Energy          =    -441.0348352709879691 [Eh]
	-----------------------------------------------------------

  Dipole Moment: [D]
     X:     3.5213      Y:    -2.8162      Z:    -0.1310     Total:     4.5108

*** Psi4 exiting successfully. Buy a developer a beer!
