                               Psi4 1.3.2 release

  ==> Input File <==

--------------------------------------------------------------------------
#psi4
#
memory 32 gb

molecule  {
0 1
  O       -2.8756320     0.4615000    -0.3051040
  O       -0.5220660     1.5374290     0.0548780
  N        0.6562510    -0.3746370    -0.3360270
  C        1.9647450     0.2268840    -0.0956960
  C       -1.6489013    -0.5797597    -0.3790540
  C        3.0067800    -0.5070980    -0.9241520
  C        2.2930000     0.2310680     1.3932270
  C       -0.4931590     0.3235730    -0.1949090
  C       -1.9724170    -1.5121580     0.7102480
  H        1.8788190     1.2611790    -0.4401960
  H        0.6035260    -1.3822150    -0.4365740
  H       -1.7868920    -0.9288770    -1.3618540
  H        3.9904500    -0.0508330    -0.7882090
  H        3.0812650    -1.5550640    -0.6116920
  H        2.7529100    -0.4768670    -1.9861430
  H        1.5225120     0.7762450     1.9430400
  H        3.2574000     0.7146530     1.5762130
  H        2.3438960    -0.7932520     1.7757830
  H       -2.9590570    -1.9673470     0.6070900
  H       -1.9090200    -1.0432980     1.6949070
  H       -1.2193110    -2.3035120     0.6420620
  H       -2.4442120     1.3312090    -0.1521090
units angstrom
no_reorient  #important for SAPT in psi4, default
symmetry c1  #important for SAPT in psi4, default
}

set PROPERTIES_ORIGIN ["COM"]
properties('MP2/aug-cc-pvtz', properties = ['dipole'])
--------------------------------------------------------------------------

    Molecular point group: c1
  Charge       = 0
  Multiplicity = 1
  Basis Set: AUG-CC-PVTZ
    Blend: AUG-CC-PVTZ
  Basis Set: (AUG-CC-PVTZ AUX)
    Blend: AUG-CC-PVTZ-JKFIT

    Orbital Energies [Eh]
    ---------------------

    Doubly Occupied:

       1A    -20.537374     2A    -20.527824     3A    -15.597671
       4A    -11.364893     5A    -11.301014     6A    -11.277959
       7A    -11.237647     8A    -11.233574     9A    -11.223852
      10A     -1.394137    11A     -1.286333    12A     -1.254292
      13A     -1.086455    14A     -1.038631    15A     -0.951326
      16A     -0.911959    17A     -0.823014    18A     -0.799517
      19A     -0.727634    20A     -0.676227    21A     -0.646864
      22A     -0.630025    23A     -0.628538    24A     -0.603277
      25A     -0.586034    26A     -0.563222    27A     -0.556116
      28A     -0.552925    29A     -0.533405    30A     -0.526288
      31A     -0.504938    32A     -0.494847    33A     -0.474205
      34A     -0.445109    35A     -0.443945    36A     -0.404000

  @DF-RHF Final Energy:  -439.10075781375213

   => Energetics <=

    Nuclear Repulsion Energy =            485.1149244758439636
    One-Electron Energy =               -1560.7412225438392852
    Two-Electron Energy =                 636.5255402542431966
    Total Energy =                       -439.1007578137521250
  Basis Set: (AUG-CC-PVTZ AUX)
    Blend: AUG-CC-PVTZ-RI
    Molecular point group: c1

    Geometry (in Angstrom), charge = 0, multiplicity = 1:

       Center              X                  Y                   Z               Mass
    ------------   -----------------  -----------------  -----------------  -----------------
         O           -2.889574632552     0.473334651492    -0.304263380232    15.994914619570
         O           -0.536008632552     1.549263651492     0.055718619768    15.994914619570
         N            0.642308367448    -0.362802348508    -0.335186380232    14.003074004430
         C            1.950802367448     0.238718651492    -0.094855380232    12.000000000000
         C           -1.662843932552    -0.567925048508    -0.378213380232    12.000000000000
         C            2.992837367448    -0.495263348508    -0.923311380232    12.000000000000
         C            2.279057367448     0.242902651492     1.394067619768    12.000000000000
         C           -0.507101632552     0.335407651492    -0.194068380232    12.000000000000
         C           -1.986359632552    -1.500323348508     0.711088619768    12.000000000000
         H            1.864876367448     1.273013651492    -0.439355380232     1.007825032230
         H            0.589583367448    -1.370380348508    -0.435733380232     1.007825032230
         H           -1.800834632552    -0.917042348508    -1.361013380232     1.007825032230
         H            3.976507367448    -0.038998348508    -0.787368380232     1.007825032230
         H            3.067322367448    -1.543229348508    -0.610851380232     1.007825032230
         H            2.738967367448    -0.465032348508    -1.985302380232     1.007825032230
         H            1.508569367448     0.788079651492     1.943880619768     1.007825032230
         H            3.243457367448     0.726487651492     1.577053619768     1.007825032230
         H            2.329953367448    -0.781417348508     1.776623619768     1.007825032230
         H           -2.972999632552    -1.955512348508     0.607930619768     1.007825032230
         H           -1.922962632552    -1.031463348508     1.695747619768     1.007825032230
         H           -1.233253632552    -2.291677348508     0.642902619768     1.007825032230
         H           -2.458154632552     1.343043651492    -0.151268380232     1.007825032230

  Basis Set: AUG-CC-PVTZ
    Blend: AUG-CC-PVTZ
  Basis Set: (AUG-CC-PVTZ AUX)
    Blend: AUG-CC-PVTZ-JKFIT
	 Reference Energy          =    -439.1007578137521250 [Eh]
	 Singles Energy            =      -0.0000000000000000 [Eh]
	 Same-Spin Energy          =      -0.4483608170836841 [Eh]
	 Opposite-Spin Energy      =      -1.4705864831327180 [Eh]
	 Correlation Energy        =      -1.9189473002164021 [Eh]
	 Total Energy              =    -441.0197051139685414 [Eh]

	 ================> DF-SCS-MP2 Energies <==================
	-----------------------------------------------------------
	 SCS Same-Spin Scale       =       0.3333333333333333 [-]
	 SCS Opposite-Spin Scale   =       1.2000000000000000 [-]
	 SCS Same-Spin Energy      =      -0.1494536056945613 [Eh]
	 SCS Opposite-Spin Energy  =      -1.7647037797592615 [Eh]
	 SCS Correlation Energy    =      -1.9141573854538230 [Eh]
	 SCS Total Energy          =    -441.0149151992059728 [Eh]
	-----------------------------------------------------------

  Dipole Moment: [D]
     X:     3.8316      Y:    -3.4332      Z:    -0.0895     Total:     5.1455

*** Psi4 exiting successfully. Buy a developer a beer!
