                               Psi4 1.4a3.dev225

  ==> Input File <==

--------------------------------------------------------------------------
#psi4
#
memory 32 gb

molecule  {
0 1
  O        2.9110620    -0.5703060    -0.4523520
  O        0.5539390    -1.5540470     0.1662040
  N       -0.5943370     0.3369340    -0.3930300
  C       -1.9605830    -0.2498138    -0.1164999
  C        1.8655780     0.3788930    -0.3941620
  C       -2.9513150     0.5221750    -0.9483650
  C       -2.2232580    -0.2086170     1.3682650
  C        0.5443190    -0.3662470    -0.1910430
  C        2.1035320     1.3624180     0.7499890
  H       -1.8664900    -1.2716350    -0.4595930
  H       -0.5281980     1.3181660    -0.6377390
  H        1.8317100     0.9202690    -1.3505730
  H       -3.9433690     0.0896600    -0.7945050
  H       -2.9965010     1.5743390    -0.6446630
  H       -2.7149650     0.4749500    -2.0147890
  H       -1.4563020    -0.7629570     1.9136170
  H       -3.1950150    -0.6709470     1.5682930
  H       -2.2473660     0.8219210     1.7368640
  H        3.0888910     1.8183940     0.6312910
  H        2.0827360     0.8223960     1.7004970
  H        1.3487660     2.1553220     0.7756360
  H        2.4958040    -1.4028240    -0.1381920
units angstrom
no_reorient  #important for SAPT in psi4, default
symmetry c1  #important for SAPT in psi4, default
}

set PROPERTIES_ORIGIN ["COM"]
properties('MP2/aug-cc-pvtz', properties = ['dipole'])
--------------------------------------------------------------------------

    Molecular point group: c1
  Charge       = 0
  Multiplicity = 1
  Basis Set: AUG-CC-PVTZ
    Blend: AUG-CC-PVTZ
  Basis Set: (AUG-CC-PVTZ AUX)
    Blend: AUG-CC-PVTZ-JKFIT

    Orbital Energies [Eh]
    ---------------------

    Doubly Occupied:

       1A    -20.547206     2A    -20.529045     3A    -15.592624
       4A    -11.355396     5A    -11.295859     6A    -11.280771
       7A    -11.234480     8A    -11.228553     9A    -11.222650
      10A     -1.392977    11A     -1.343661    12A     -1.236266
      13A     -1.075362    14A     -1.023159    15A     -0.953910
      16A     -0.889719    17A     -0.819281    18A     -0.789999
      19A     -0.735736    20A     -0.674790    21A     -0.640604
      22A     -0.633023    23A     -0.631210    24A     -0.594477
      25A     -0.581925    26A     -0.570588    27A     -0.557533
      28A     -0.544012    29A     -0.536079    30A     -0.526698
      31A     -0.509787    32A     -0.506312    33A     -0.497470
      34A     -0.444833    35A     -0.428650    36A     -0.401568

  @DF-RHF Final Energy:  -439.13553118692823

   => Energetics <=

    Nuclear Repulsion Energy =            484.4823330003040383
    One-Electron Energy =               -1559.5833029545408408
    Two-Electron Energy =                 635.9654387673086831
    Total Energy =                       -439.1355311869282332
  Basis Set: (AUG-CC-PVTZ AUX)
    Blend: AUG-CC-PVTZ-RI
    Molecular point group: c1

    Geometry (in Angstrom), charge = 0, multiplicity = 1:

       Center              X                  Y                   Z               Mass
    ------------   -----------------  -----------------  -----------------  -----------------
         O            2.854038747921    -0.524065247081    -0.435888330389    15.994914619570
         O            0.496915747921    -1.507806247081     0.182667669611    15.994914619570
         N           -0.651360252079     0.383174752919    -0.376566330389    14.003074004430
         C           -2.017606252079    -0.203573047081    -0.100036230389    12.000000000000
         C            1.808554747921     0.425133752919    -0.377698330389    12.000000000000
         C           -3.008338252079     0.568415752919    -0.931901330389    12.000000000000
         C           -2.280281252079    -0.162376247081     1.384728669611    12.000000000000
         C            0.487295747921    -0.320006247081    -0.174579330389    12.000000000000
         C            2.046508747921     1.408658752919     0.766452669611    12.000000000000
         H           -1.923513252079    -1.225394247081    -0.443129330389     1.007825032230
         H           -0.585221252079     1.364406752919    -0.621275330389     1.007825032230
         H            1.774686747921     0.966509752919    -1.334109330389     1.007825032230
         H           -4.000392252079     0.135900752919    -0.778041330389     1.007825032230
         H           -3.053524252079     1.620579752919    -0.628199330389     1.007825032230
         H           -2.771988252079     0.521190752919    -1.998325330389     1.007825032230
         H           -1.513325252079    -0.716716247081     1.930080669611     1.007825032230
         H           -3.252038252079    -0.624706247081     1.584756669611     1.007825032230
         H           -2.304389252079     0.868161752919     1.753327669611     1.007825032230
         H            3.031867747921     1.864634752919     0.647754669611     1.007825032230
         H            2.025712747921     0.868636752919     1.716960669611     1.007825032230
         H            1.291742747921     2.201562752919     0.792099669611     1.007825032230
         H            2.438780747921    -1.356583247081    -0.121728330389     1.007825032230

  Basis Set: AUG-CC-PVTZ
    Blend: AUG-CC-PVTZ
  Basis Set: (AUG-CC-PVTZ AUX)
    Blend: AUG-CC-PVTZ-JKFIT
	 Reference Energy          =    -439.1355311869282332 [Eh]
	 Singles Energy            =      -0.0000000000000000 [Eh]
	 Same-Spin Energy          =      -0.4459324284071063 [Eh]
	 Opposite-Spin Energy      =      -1.4639652133816881 [Eh]
	 Correlation Energy        =      -1.9098976417887945 [Eh]
	 Total Energy              =    -441.0454288287170357 [Eh]

	 ================> DF-SCS-MP2 Energies <==================
	-----------------------------------------------------------
	 SCS Same-Spin Scale       =       0.3333333333333333 [-]
	 SCS Opposite-Spin Scale   =       1.2000000000000000 [-]
	 SCS Same-Spin Energy      =      -0.1486441428023688 [Eh]
	 SCS Opposite-Spin Energy  =      -1.7567582560580257 [Eh]
	 SCS Correlation Energy    =      -1.9054023988603945 [Eh]
	 SCS Total Energy          =    -441.0409335857886504 [Eh]
	-----------------------------------------------------------

  Dipole Moment: [D]
     X:    -3.5681      Y:     3.1161      Z:    -0.1541     Total:     4.7397

*** Psi4 exiting successfully. Buy a developer a beer!
