                               Psi4 1.3.2 release

  ==> Input File <==

--------------------------------------------------------------------------
#psi4
#
memory 32 gb

molecule  {
0 1
  O       -2.8756320     0.4615000    -0.3051040
  O       -0.5112509     1.5376046     0.0550420
  N        0.6562510    -0.3746370    -0.3360270
  C        1.9647450     0.2268840    -0.0956960
  C       -1.7942448    -0.4616394    -0.3720907
  C        3.0067800    -0.5070980    -0.9241520
  C        2.2930000     0.2310680     1.3932270
  C       -0.4931590     0.3235730    -0.1949090
  C       -1.9724170    -1.5121580     0.7102480
  H        1.8788190     1.2611790    -0.4401960
  H        0.6035260    -1.3822150    -0.4365740
  H       -1.7868920    -0.9288770    -1.3618540
  H        3.9904500    -0.0508330    -0.7882090
  H        3.0812650    -1.5550640    -0.6116920
  H        2.7529100    -0.4768670    -1.9861430
  H        1.5225120     0.7762450     1.9430400
  H        3.2574000     0.7146530     1.5762130
  H        2.3438960    -0.7932520     1.7757830
  H       -2.9590570    -1.9673470     0.6070900
  H       -1.9090200    -1.0432980     1.6949070
  H       -1.2193110    -2.3035120     0.6420620
  H       -2.4442120     1.3312090    -0.1521090
units angstrom
no_reorient  #important for SAPT in psi4, default
symmetry c1  #important for SAPT in psi4, default
}

set PROPERTIES_ORIGIN ["COM"]
properties('MP2/aug-cc-pvtz', properties = ['dipole'])
--------------------------------------------------------------------------

    Molecular point group: c1
  Charge       = 0
  Multiplicity = 1
  Basis Set: AUG-CC-PVTZ
    Blend: AUG-CC-PVTZ
  Basis Set: (AUG-CC-PVTZ AUX)
    Blend: AUG-CC-PVTZ-JKFIT

    Orbital Energies [Eh]
    ---------------------

    Doubly Occupied:

       1A    -20.547108     2A    -20.532508     3A    -15.595221
       4A    -11.358544     5A    -11.297719     6A    -11.276847
       7A    -11.232099     8A    -11.231380     9A    -11.222082
      10A     -1.396063    11A     -1.342398    12A     -1.247516
      13A     -1.072711    14A     -1.025358    15A     -0.949639
      16A     -0.895790    17A     -0.822292    18A     -0.794865
      19A     -0.734867    20A     -0.678723    21A     -0.649804
      22A     -0.632138    23A     -0.628399    24A     -0.596895
      25A     -0.580775    26A     -0.567517    27A     -0.554828
      28A     -0.548313    29A     -0.538348    30A     -0.530320
      31A     -0.512223    32A     -0.502580    33A     -0.491141
      34A     -0.446763    35A     -0.434917    36A     -0.401152

  @DF-RHF Final Energy:  -439.13736834734743

   => Energetics <=

    Nuclear Repulsion Energy =            485.2712862526813069
    One-Electron Energy =               -1561.0776243279360642
    Two-Electron Energy =                 636.6689697279072107
    Total Energy =                       -439.1373683473474330
  Basis Set: (AUG-CC-PVTZ AUX)
    Blend: AUG-CC-PVTZ-RI
    Molecular point group: c1

    Geometry (in Angstrom), charge = 0, multiplicity = 1:

       Center              X                  Y                   Z               Mass
    ------------   -----------------  -----------------  -----------------  -----------------
         O           -2.877589889814     0.462500856687    -0.304920789058    15.994914619570
         O           -0.513208789814     1.538605456687     0.055225210942    15.994914619570
         N            0.654293110186    -0.373636143313    -0.335843789058    14.003074004430
         C            1.962787110186     0.227884856687    -0.095512789058    12.000000000000
         C           -1.796202689814    -0.460638543313    -0.371907489058    12.000000000000
         C            3.004822110186    -0.506097143313    -0.923968789058    12.000000000000
         C            2.291042110186     0.232068856687     1.393410210942    12.000000000000
         C           -0.495116889814     0.324573856687    -0.194725789058    12.000000000000
         C           -1.974374889814    -1.511157143313     0.710431210942    12.000000000000
         H            1.876861110186     1.262179856687    -0.440012789058     1.007825032230
         H            0.601568110186    -1.381214143313    -0.436390789058     1.007825032230
         H           -1.788849889814    -0.927876143313    -1.361670789058     1.007825032230
         H            3.988492110186    -0.049832143313    -0.788025789058     1.007825032230
         H            3.079307110186    -1.554063143313    -0.611508789058     1.007825032230
         H            2.750952110186    -0.475866143313    -1.985959789058     1.007825032230
         H            1.520554110186     0.777245856687     1.943223210942     1.007825032230
         H            3.255442110186     0.715653856687     1.576396210942     1.007825032230
         H            2.341938110186    -0.792251143313     1.775966210942     1.007825032230
         H           -2.961014889814    -1.966346143313     0.607273210942     1.007825032230
         H           -1.910977889814    -1.042297143313     1.695090210942     1.007825032230
         H           -1.221268889814    -2.302511143313     0.642245210942     1.007825032230
         H           -2.446169889814     1.332209856687    -0.151925789058     1.007825032230

  Basis Set: AUG-CC-PVTZ
    Blend: AUG-CC-PVTZ
  Basis Set: (AUG-CC-PVTZ AUX)
    Blend: AUG-CC-PVTZ-JKFIT
	 Reference Energy          =    -439.1373683473474330 [Eh]
	 Singles Energy            =      -0.0000000000000000 [Eh]
	 Same-Spin Energy          =      -0.4460652183951315 [Eh]
	 Opposite-Spin Energy      =      -1.4638963635331066 [Eh]
	 Correlation Energy        =      -1.9099615819282381 [Eh]
	 Total Energy              =    -441.0473299292756906 [Eh]

	 ================> DF-SCS-MP2 Energies <==================
	-----------------------------------------------------------
	 SCS Same-Spin Scale       =       0.3333333333333333 [-]
	 SCS Opposite-Spin Scale   =       1.2000000000000000 [-]
	 SCS Same-Spin Energy      =      -0.1486884061317105 [Eh]
	 SCS Opposite-Spin Energy  =      -1.7566756362397278 [Eh]
	 SCS Correlation Energy    =      -1.9053640423714382 [Eh]
	 SCS Total Energy          =    -441.0427323897188785 [Eh]
	-----------------------------------------------------------

  Dipole Moment: [D]
     X:     3.4471      Y:    -3.0957      Z:    -0.1435     Total:     4.6354

*** Psi4 exiting successfully. Buy a developer a beer!
