                               Psi4 1.3.2 release

  ==> Input File <==

--------------------------------------------------------------------------
#psi4
#
memory 32 gb

molecule  {
0 1
  O       -2.8756320     0.4615000    -0.3051040
  O       -0.5220660     1.5374290     0.0548780
  N        0.6562510    -0.3746370    -0.3360270
  C        1.9647450     0.2268840    -0.0956960
  C       -1.8134249    -0.4531935    -0.3744000
  C        3.0067800    -0.5070980    -0.9241520
  C        2.2930000     0.2310680     1.3932270
  C       -0.4931590     0.3235730    -0.1949090
  C       -1.9724170    -1.5121580     0.7102480
  H        1.8788190     1.2611790    -0.4401960
  H        0.6035260    -1.3822150    -0.4365740
  H       -1.7868920    -0.9288770    -1.3618540
  H        3.9904500    -0.0508330    -0.7882090
  H        3.0812650    -1.5550640    -0.6116920
  H        2.7529100    -0.4768670    -1.9861430
  H        1.5225120     0.7762450     1.9430400
  H        3.2574000     0.7146530     1.5762130
  H        2.3438960    -0.7932520     1.7757830
  H       -2.9608476    -1.9616795     0.5996472
  H       -1.9090200    -1.0432980     1.6949070
  H       -1.2193110    -2.3035120     0.6420620
  H       -2.4442120     1.3312090    -0.1521090
units angstrom
no_reorient  #important for SAPT in psi4, default
symmetry c1  #important for SAPT in psi4, default
}

set PROPERTIES_ORIGIN ["COM"]
properties('MP2/aug-cc-pvtz', properties = ['dipole'])
--------------------------------------------------------------------------

    Molecular point group: c1
  Charge       = 0
  Multiplicity = 1
  Basis Set: AUG-CC-PVTZ
    Blend: AUG-CC-PVTZ
  Basis Set: (AUG-CC-PVTZ AUX)
    Blend: AUG-CC-PVTZ-JKFIT

    Orbital Energies [Eh]
    ---------------------

    Doubly Occupied:

       1A    -20.548167     2A    -20.532216     3A    -15.595521
       4A    -11.357946     5A    -11.297323     6A    -11.277083
       7A    -11.232207     8A    -11.230381     9A    -11.222175
      10A     -1.397238    11A     -1.348011    12A     -1.247567
      13A     -1.071441    14A     -1.023518    15A     -0.949748
      16A     -0.892932    17A     -0.822613    18A     -0.794953
      19A     -0.736591    20A     -0.679301    21A     -0.650632
      22A     -0.631946    23A     -0.628727    24A     -0.596963
      25A     -0.582271    26A     -0.568565    27A     -0.555022
      28A     -0.547583    29A     -0.540064    30A     -0.530855
      31A     -0.511450    32A     -0.502702    33A     -0.491266
      34A     -0.445380    35A     -0.432264    36A     -0.401269

  @DF-RHF Final Energy:  -439.13793513379932

   => Energetics <=

    Nuclear Repulsion Energy =            485.2120280654585827
    One-Electron Energy =               -1560.9521423390981454
    Two-Electron Energy =                 636.6021791398403593
    Total Energy =                       -439.1379351337992603
  Basis Set: (AUG-CC-PVTZ AUX)
    Blend: AUG-CC-PVTZ-RI
    Molecular point group: c1

    Geometry (in Angstrom), charge = 0, multiplicity = 1:

       Center              X                  Y                   Z               Mass
    ------------   -----------------  -----------------  -----------------  -----------------
         O           -2.874500881388     0.461705599533    -0.304632174593    15.994914619570
         O           -0.520934881388     1.537634599533     0.055349825407    15.994914619570
         N            0.657382118612    -0.374431400467    -0.335555174593    14.003074004430
         C            1.965876118612     0.227089599533    -0.095224174593    12.000000000000
         C           -1.812293781388    -0.452987900467    -0.373928174593    12.000000000000
         C            3.007911118612    -0.506892400467    -0.923680174593    12.000000000000
         C            2.294131118612     0.231273599533     1.393698825407    12.000000000000
         C           -0.492027881388     0.323778599533    -0.194437174593    12.000000000000
         C           -1.971285881388    -1.511952400467     0.710719825407    12.000000000000
         H            1.879950118612     1.261384599533    -0.439724174593     1.007825032230
         H            0.604657118612    -1.382009400467    -0.436102174593     1.007825032230
         H           -1.785760881388    -0.928671400467    -1.361382174593     1.007825032230
         H            3.991581118612    -0.050627400467    -0.787737174593     1.007825032230
         H            3.082396118612    -1.554858400467    -0.611220174593     1.007825032230
         H            2.754041118612    -0.476661400467    -1.985671174593     1.007825032230
         H            1.523643118612     0.776450599533     1.943511825407     1.007825032230
         H            3.258531118612     0.714858599533     1.576684825407     1.007825032230
         H            2.345027118612    -0.793046400467     1.776254825407     1.007825032230
         H           -2.959716481388    -1.961473900467     0.600119025407     1.007825032230
         H           -1.907888881388    -1.043092400467     1.695378825407     1.007825032230
         H           -1.218179881388    -2.303306400467     0.642533825407     1.007825032230
         H           -2.443080881388     1.331414599533    -0.151637174593     1.007825032230

  Basis Set: AUG-CC-PVTZ
    Blend: AUG-CC-PVTZ
  Basis Set: (AUG-CC-PVTZ AUX)
    Blend: AUG-CC-PVTZ-JKFIT
	 Reference Energy          =    -439.1379351337993171 [Eh]
	 Singles Energy            =      -0.0000000000000000 [Eh]
	 Same-Spin Energy          =      -0.4459767331803103 [Eh]
	 Opposite-Spin Energy      =      -1.4634497103043898 [Eh]
	 Correlation Energy        =      -1.9094264434846999 [Eh]
	 Total Energy              =    -441.0473615772839935 [Eh]

	 ================> DF-SCS-MP2 Energies <==================
	-----------------------------------------------------------
	 SCS Same-Spin Scale       =       0.3333333333333333 [-]
	 SCS Opposite-Spin Scale   =       1.2000000000000000 [-]
	 SCS Same-Spin Energy      =      -0.1486589110601034 [Eh]
	 SCS Opposite-Spin Energy  =      -1.7561396523652677 [Eh]
	 SCS Correlation Energy    =      -1.9047985634253712 [Eh]
	 SCS Total Energy          =    -441.0427336972246621 [Eh]
	-----------------------------------------------------------

  Dipole Moment: [D]
     X:     3.4454      Y:    -3.0463      Z:    -0.1516     Total:     4.6015

*** Psi4 exiting successfully. Buy a developer a beer!
