                               Psi4 1.3.2 release

  ==> Input File <==

--------------------------------------------------------------------------
#psi4
#
memory 32 gb

molecule  {
0 1
  O       -2.8756320     0.4615000    -0.3051040
  O       -0.5220660     1.5374290     0.0548780
  N        0.6685067    -0.3549323    -0.3317239
  C        1.9647450     0.2268840    -0.0956960
  C       -1.8148673    -0.4280095    -0.3651647
  C        3.0067800    -0.5070980    -0.9241520
  C        2.2930000     0.2310680     1.3932270
  C       -0.4931590     0.3235730    -0.1949090
  C       -1.9724170    -1.5121580     0.7102480
  H        1.8788190     1.2611790    -0.4401960
  H        0.6035260    -1.3822150    -0.4365740
  H       -1.7868920    -0.9288770    -1.3618540
  H        3.9904500    -0.0508330    -0.7882090
  H        3.0812650    -1.5550640    -0.6116920
  H        2.7529100    -0.4768670    -1.9861430
  H        1.5225120     0.7762450     1.9430400
  H        3.2574000     0.7146530     1.5762130
  H        2.3438960    -0.7932520     1.7757830
  H       -2.9590570    -1.9673470     0.6070900
  H       -1.9090200    -1.0432980     1.6949070
  H       -1.2193110    -2.3035120     0.6420620
  H       -2.4442120     1.3312090    -0.1521090
units angstrom
no_reorient  #important for SAPT in psi4, default
symmetry c1  #important for SAPT in psi4, default
}

set PROPERTIES_ORIGIN ["COM"]
properties('MP2/aug-cc-pvtz', properties = ['dipole'])
--------------------------------------------------------------------------

    Molecular point group: c1
  Charge       = 0
  Multiplicity = 1
  Basis Set: AUG-CC-PVTZ
    Blend: AUG-CC-PVTZ
  Basis Set: (AUG-CC-PVTZ AUX)
    Blend: AUG-CC-PVTZ-JKFIT

    Orbital Energies [Eh]
    ---------------------

    Doubly Occupied:

       1A    -20.551391     2A    -20.531113     3A    -15.596819
       4A    -11.357585     5A    -11.299281     6A    -11.275486
       7A    -11.231994     8A    -11.230719     9A    -11.221403
      10A     -1.400827    11A     -1.354884    12A     -1.248733
      13A     -1.070840    14A     -1.021533    15A     -0.949530
      16A     -0.895200    17A     -0.824401    18A     -0.789975
      19A     -0.741551    20A     -0.679694    21A     -0.650505
      22A     -0.631918    23A     -0.629895    24A     -0.595544
      25A     -0.585111    26A     -0.567623    27A     -0.554847
      28A     -0.548443    29A     -0.541871    30A     -0.530523
      31A     -0.513779    32A     -0.502730    33A     -0.490842
      34A     -0.442176    35A     -0.433993    36A     -0.399188

  @DF-RHF Final Energy:  -439.13616139697172

   => Energetics <=

    Nuclear Repulsion Energy =            485.7070848946850674
    One-Electron Energy =               -1561.9025980723749853
    Two-Electron Energy =                 637.0593517807182025
    Total Energy =                       -439.1361613969717155
  Basis Set: (AUG-CC-PVTZ AUX)
    Blend: AUG-CC-PVTZ-RI
    Molecular point group: c1

    Geometry (in Angstrom), charge = 0, multiplicity = 1:

       Center              X                  Y                   Z               Mass
    ------------   -----------------  -----------------  -----------------  -----------------
         O           -2.875691725644     0.457339116101    -0.305994406362    15.994914619570
         O           -0.522125725644     1.533268116101     0.053987593638    15.994914619570
         N            0.668446974356    -0.359093183899    -0.332614306362    14.003074004430
         C            1.964685274356     0.222723116101    -0.096586406362    12.000000000000
         C           -1.814927025644    -0.432170383899    -0.366055106362    12.000000000000
         C            3.006720274356    -0.511258883899    -0.925042406362    12.000000000000
         C            2.292940274356     0.226907116101     1.392336593638    12.000000000000
         C           -0.493218725644     0.319412116101    -0.195799406362    12.000000000000
         C           -1.972476725644    -1.516318883899     0.709357593638    12.000000000000
         H            1.878759274356     1.257018116101    -0.441086406362     1.007825032230
         H            0.603466274356    -1.386375883899    -0.437464406362     1.007825032230
         H           -1.786951725644    -0.933037883899    -1.362744406362     1.007825032230
         H            3.990390274356    -0.054993883899    -0.789099406362     1.007825032230
         H            3.081205274356    -1.559224883899    -0.612582406362     1.007825032230
         H            2.752850274356    -0.481027883899    -1.987033406362     1.007825032230
         H            1.522452274356     0.772084116101     1.942149593638     1.007825032230
         H            3.257340274356     0.710492116101     1.575322593638     1.007825032230
         H            2.343836274356    -0.797412883899     1.774892593638     1.007825032230
         H           -2.959116725644    -1.971507883899     0.606199593638     1.007825032230
         H           -1.909079725644    -1.047458883899     1.694016593638     1.007825032230
         H           -1.219370725644    -2.307672883899     0.641171593638     1.007825032230
         H           -2.444271725644     1.327048116101    -0.152999406362     1.007825032230

  Basis Set: AUG-CC-PVTZ
    Blend: AUG-CC-PVTZ
  Basis Set: (AUG-CC-PVTZ AUX)
    Blend: AUG-CC-PVTZ-JKFIT
	 Reference Energy          =    -439.1361613969717155 [Eh]
	 Singles Energy            =      -0.0000000000000000 [Eh]
	 Same-Spin Energy          =      -0.4462678916304055 [Eh]
	 Opposite-Spin Energy      =      -1.4635549246505537 [Eh]
	 Correlation Energy        =      -1.9098228162809592 [Eh]
	 Total Energy              =    -441.0459842132526660 [Eh]

	 ================> DF-SCS-MP2 Energies <==================
	-----------------------------------------------------------
	 SCS Same-Spin Scale       =       0.3333333333333333 [-]
	 SCS Opposite-Spin Scale   =       1.2000000000000000 [-]
	 SCS Same-Spin Energy      =      -0.1487559638768018 [Eh]
	 SCS Opposite-Spin Energy  =      -1.7562659095806643 [Eh]
	 SCS Correlation Energy    =      -1.9050218734574662 [Eh]
	 SCS Total Energy          =    -441.0411832704292010 [Eh]
	-----------------------------------------------------------

  Dipole Moment: [D]
     X:     3.3515      Y:    -3.0191      Z:    -0.1566     Total:     4.5136

*** Psi4 exiting successfully. Buy a developer a beer!
