                               Psi4 1.3.2 release

  ==> Input File <==

--------------------------------------------------------------------------
#psi4
#
memory 32 gb

molecule  {
0 1
  O       -2.8756320     0.4615000    -0.3051040
  O       -0.5220660     1.5374290     0.0548780
  N        0.6562510    -0.3746370    -0.3360270
  C        1.9647450     0.2268840    -0.0956960
  C       -1.8012180    -0.4504720    -0.3698720
  C        3.0067800    -0.5070980    -0.9241520
  C        2.2930000     0.2310680     1.3932270
  C       -0.4931590     0.3235730    -0.1949090
  C       -1.9724170    -1.5121580     0.7102480
  H        1.8788190     1.2611790    -0.4401960
  H        0.6139259    -1.1834727    -0.4167413
  H       -1.7868920    -0.9288770    -1.3618540
  H        3.9904500    -0.0508330    -0.7882090
  H        3.0812650    -1.5550640    -0.6116920
  H        2.7529100    -0.4768670    -1.9861430
  H        1.5225120     0.7762450     1.9430400
  H        3.2574000     0.7146530     1.5762130
  H        2.3438960    -0.7932520     1.7757830
  H       -2.9590570    -1.9673470     0.6070900
  H       -1.9090200    -1.0432980     1.6949070
  H       -1.2193110    -2.3035120     0.6420620
  H       -2.4442120     1.3312090    -0.1521090
units angstrom
no_reorient  #important for SAPT in psi4, default
symmetry c1  #important for SAPT in psi4, default
}

set PROPERTIES_ORIGIN ["COM"]
properties('MP2/aug-cc-pvtz', properties = ['dipole'])
--------------------------------------------------------------------------

    Molecular point group: c1
  Charge       = 0
  Multiplicity = 1
  Basis Set: AUG-CC-PVTZ
    Blend: AUG-CC-PVTZ
  Basis Set: (AUG-CC-PVTZ AUX)
    Blend: AUG-CC-PVTZ-JKFIT

    Orbital Energies [Eh]
    ---------------------

    Doubly Occupied:

       1A    -20.548525     2A    -20.533668     3A    -15.574438
       4A    -11.359282     5A    -11.298238     6A    -11.277193
       7A    -11.232611     8A    -11.231071     9A    -11.222795
      10A     -1.400090    11A     -1.347706    12A     -1.278248
      13A     -1.075944    14A     -1.028119    15A     -0.950875
      16A     -0.899501    17A     -0.850394    18A     -0.816183
      19A     -0.737806    20A     -0.681337    21A     -0.656841
      22A     -0.638157    23A     -0.629458    24A     -0.600562
      25A     -0.582315    26A     -0.567804    27A     -0.555440
      28A     -0.548924    29A     -0.540404    30A     -0.530817
      31A     -0.515031    32A     -0.503364    33A     -0.492193
      34A     -0.445643    35A     -0.435832    36A     -0.405244

  @DF-RHF Final Energy:  -439.09418286743301

   => Energetics <=

    Nuclear Repulsion Energy =            486.7093013805656483
    One-Electron Energy =               -1563.6228587057055393
    Two-Electron Energy =                 637.8193744577068856
    Total Energy =                       -439.0941828674330054
  Basis Set: (AUG-CC-PVTZ AUX)
    Blend: AUG-CC-PVTZ-RI
    Molecular point group: c1

    Geometry (in Angstrom), charge = 0, multiplicity = 1:

       Center              X                  Y                   Z               Mass
    ------------   -----------------  -----------------  -----------------  -----------------
         O           -2.875711981283     0.459972167592    -0.305256341521    15.994914619570
         O           -0.522145981283     1.535901167592     0.054725658479    15.994914619570
         N            0.656171018717    -0.376164832408    -0.336179341521    14.003074004430
         C            1.964665018717     0.225356167592    -0.095848341521    12.000000000000
         C           -1.801297981283    -0.451999832408    -0.370024341521    12.000000000000
         C            3.006700018717    -0.508625832408    -0.924304341521    12.000000000000
         C            2.292920018717     0.229540167592     1.393074658479    12.000000000000
         C           -0.493238981283     0.322045167592    -0.195061341521    12.000000000000
         C           -1.972496981283    -1.513685832408     0.710095658479    12.000000000000
         H            1.878739018717     1.259651167592    -0.440348341521     1.007825032230
         H            0.613845918717    -1.185000532408    -0.416893641521     1.007825032230
         H           -1.786971981283    -0.930404832408    -1.362006341521     1.007825032230
         H            3.990370018717    -0.052360832408    -0.788361341521     1.007825032230
         H            3.081185018717    -1.556591832408    -0.611844341521     1.007825032230
         H            2.752830018717    -0.478394832408    -1.986295341521     1.007825032230
         H            1.522432018717     0.774717167592     1.942887658479     1.007825032230
         H            3.257320018717     0.713125167592     1.576060658479     1.007825032230
         H            2.343816018717    -0.794779832408     1.775630658479     1.007825032230
         H           -2.959136981283    -1.968874832408     0.606937658479     1.007825032230
         H           -1.909099981283    -1.044825832408     1.694754658479     1.007825032230
         H           -1.219390981283    -2.305039832408     0.641909658479     1.007825032230
         H           -2.444291981283     1.329681167592    -0.152261341521     1.007825032230

  Basis Set: AUG-CC-PVTZ
    Blend: AUG-CC-PVTZ
  Basis Set: (AUG-CC-PVTZ AUX)
    Blend: AUG-CC-PVTZ-JKFIT
	 Reference Energy          =    -439.0941828674330054 [Eh]
	 Singles Energy            =      -0.0000000000000000 [Eh]
	 Same-Spin Energy          =      -0.4445439695089332 [Eh]
	 Opposite-Spin Energy      =      -1.4607322112177301 [Eh]
	 Correlation Energy        =      -1.9052761807266632 [Eh]
	 Total Energy              =    -440.9994590481596788 [Eh]

	 ================> DF-SCS-MP2 Energies <==================
	-----------------------------------------------------------
	 SCS Same-Spin Scale       =       0.3333333333333333 [-]
	 SCS Opposite-Spin Scale   =       1.2000000000000000 [-]
	 SCS Same-Spin Energy      =      -0.1481813231696444 [Eh]
	 SCS Opposite-Spin Energy  =      -1.7528786534612761 [Eh]
	 SCS Correlation Energy    =      -1.9010599766309206 [Eh]
	 SCS Total Energy          =    -440.9952428440639096 [Eh]
	-----------------------------------------------------------

  Dipole Moment: [D]
     X:     3.4220      Y:    -2.9246      Z:    -0.1259     Total:     4.5032

*** Psi4 exiting successfully. Buy a developer a beer!
