                               Psi4 1.3.2 release

  ==> Input File <==

--------------------------------------------------------------------------
#psi4
#
memory 32 gb

molecule  {
0 1
  O       -2.8756320     0.4615000    -0.3051040
  O       -0.5220660     1.5374290     0.0548780
  N        0.6648652    -0.3966438    -0.3264957
  C        1.9647450     0.2268840    -0.0956960
  C       -1.8012180    -0.4504720    -0.3698720
  C        3.0067800    -0.5070980    -0.9241520
  C        2.2930000     0.2310680     1.3932270
  C       -0.4931590     0.3235730    -0.1949090
  C       -1.9724170    -1.5121580     0.7102480
  H        1.8969984     1.2641723    -0.4352150
  H        0.6035260    -1.3822150    -0.4365740
  H       -1.7868920    -0.9288770    -1.3618540
  H        3.9904500    -0.0508330    -0.7882090
  H        3.0812650    -1.5550640    -0.6116920
  H        2.7529100    -0.4768670    -1.9861430
  H        1.5225120     0.7762450     1.9430400
  H        3.2574000     0.7146530     1.5762130
  H        2.3438960    -0.7932520     1.7757830
  H       -2.9590570    -1.9673470     0.6070900
  H       -1.9090200    -1.0432980     1.6949070
  H       -1.2193110    -2.3035120     0.6420620
  H       -2.4442120     1.3312090    -0.1521090
units angstrom
no_reorient  #important for SAPT in psi4, default
symmetry c1  #important for SAPT in psi4, default
}

set PROPERTIES_ORIGIN ["COM"]
properties('MP2/aug-cc-pvtz', properties = ['dipole'])
--------------------------------------------------------------------------

    Molecular point group: c1
  Charge       = 0
  Multiplicity = 1
  Basis Set: AUG-CC-PVTZ
    Blend: AUG-CC-PVTZ
  Basis Set: (AUG-CC-PVTZ AUX)
    Blend: AUG-CC-PVTZ-JKFIT

    Orbital Energies [Eh]
    ---------------------

    Doubly Occupied:

       1A    -20.548326     2A    -20.535914     3A    -15.593721
       4A    -11.361237     5A    -11.297754     6A    -11.276666
       7A    -11.231289     8A    -11.230988     9A    -11.221264
      10A     -1.397681    11A     -1.346312    12A     -1.247007
      13A     -1.070929    14A     -1.023807    15A     -0.949132
      16A     -0.894698    17A     -0.822019    18A     -0.795877
      19A     -0.736107    20A     -0.680183    21A     -0.651414
      22A     -0.634632    23A     -0.627065    24A     -0.596825
      25A     -0.581799    26A     -0.567413    27A     -0.554506
      28A     -0.546939    29A     -0.539244    30A     -0.529798
      31A     -0.514461    32A     -0.502626    33A     -0.490337
      34A     -0.445436    35A     -0.435292    36A     -0.401118

  @DF-RHF Final Energy:  -439.13707065624942

   => Energetics <=

    Nuclear Repulsion Energy =            485.0531741825289487
    One-Electron Energy =               -1560.6208631764943675
    Two-Electron Energy =                 636.4306183377160551
    Total Energy =                       -439.1370706562494206
  Basis Set: (AUG-CC-PVTZ AUX)
    Blend: AUG-CC-PVTZ-RI
    Molecular point group: c1

    Geometry (in Angstrom), charge = 0, multiplicity = 1:

       Center              X                  Y                   Z               Mass
    ------------   -----------------  -----------------  -----------------  -----------------
         O           -2.876691927267     0.463827730527    -0.306160265545    15.994914619570
         O           -0.523125927267     1.539756730527     0.053821734455    15.994914619570
         N            0.663805272733    -0.394316069473    -0.327551965545    14.003074004430
         C            1.963685072733     0.229211730527    -0.096752265545    12.000000000000
         C           -1.802277927267    -0.448144269473    -0.370928265545    12.000000000000
         C            3.005720072733    -0.504770269473    -0.925208265545    12.000000000000
         C            2.291940072733     0.233395730527     1.392170734455    12.000000000000
         C           -0.494218927267     0.325900730527    -0.195965265545    12.000000000000
         C           -1.973476927267    -1.509830269473     0.709191734455    12.000000000000
         H            1.895938472733     1.266500030527    -0.436271265545     1.007825032230
         H            0.602466072733    -1.379887269473    -0.437630265545     1.007825032230
         H           -1.787951927267    -0.926549269473    -1.362910265545     1.007825032230
         H            3.989390072733    -0.048505269473    -0.789265265545     1.007825032230
         H            3.080205072733    -1.552736269473    -0.612748265545     1.007825032230
         H            2.751850072733    -0.474539269473    -1.987199265545     1.007825032230
         H            1.521452072733     0.778572730527     1.941983734455     1.007825032230
         H            3.256340072733     0.716980730527     1.575156734455     1.007825032230
         H            2.342836072733    -0.790924269473     1.774726734455     1.007825032230
         H           -2.960116927267    -1.965019269473     0.606033734455     1.007825032230
         H           -1.910079927267    -1.040970269473     1.693850734455     1.007825032230
         H           -1.220370927267    -2.301184269473     0.641005734455     1.007825032230
         H           -2.445271927267     1.333536730527    -0.153165265545     1.007825032230

  Basis Set: AUG-CC-PVTZ
    Blend: AUG-CC-PVTZ
  Basis Set: (AUG-CC-PVTZ AUX)
    Blend: AUG-CC-PVTZ-JKFIT
	 Reference Energy          =    -439.1370706562494206 [Eh]
	 Singles Energy            =      -0.0000000000000000 [Eh]
	 Same-Spin Energy          =      -0.4459559164812348 [Eh]
	 Opposite-Spin Energy      =      -1.4636588785660982 [Eh]
	 Correlation Energy        =      -1.9096147950473330 [Eh]
	 Total Energy              =    -441.0466854512967529 [Eh]

	 ================> DF-SCS-MP2 Energies <==================
	-----------------------------------------------------------
	 SCS Same-Spin Scale       =       0.3333333333333333 [-]
	 SCS Opposite-Spin Scale   =       1.2000000000000000 [-]
	 SCS Same-Spin Energy      =      -0.1486519721604116 [Eh]
	 SCS Opposite-Spin Energy  =      -1.7563906542793177 [Eh]
	 SCS Correlation Energy    =      -1.9050426264397293 [Eh]
	 SCS Total Energy          =    -441.0421132826891721 [Eh]
	-----------------------------------------------------------

  Dipole Moment: [D]
     X:     3.3790      Y:    -2.9970      Z:    -0.1560     Total:     4.5193

*** Psi4 exiting successfully. Buy a developer a beer!
