                               Psi4 1.3.2 release

  ==> Input File <==

--------------------------------------------------------------------------
#psi4
#
memory 32 gb

molecule  {
0 1
  O       -2.8756320     0.4615000    -0.3051040
  O       -0.5220660     1.5374290     0.0548780
  N        0.6562510    -0.3746370    -0.3360270
  C        1.9647450     0.2268840    -0.0956960
  C       -1.8012180    -0.4504720    -0.3698720
  C        3.0067800    -0.5070980    -0.9241520
  C        2.2930000     0.2310680     1.3932270
  C       -0.4081586     0.2719394    -0.2053449
  C       -1.9724170    -1.5121580     0.7102480
  H        1.8788190     1.2611790    -0.4401960
  H        0.6035260    -1.3822150    -0.4365740
  H       -1.7868920    -0.9288770    -1.3618540
  H        3.9904500    -0.0508330    -0.7882090
  H        3.0812650    -1.5550640    -0.6116920
  H        2.7529100    -0.4768670    -1.9861430
  H        1.5225120     0.7762450     1.9430400
  H        3.2574000     0.7146530     1.5762130
  H        2.3438960    -0.7932520     1.7757830
  H       -2.9590570    -1.9673470     0.6070900
  H       -1.9090200    -1.0432980     1.6949070
  H       -1.2193110    -2.3035120     0.6420620
  H       -2.4442120     1.3312090    -0.1521090
units angstrom
no_reorient  #important for SAPT in psi4, default
symmetry c1  #important for SAPT in psi4, default
}

set PROPERTIES_ORIGIN ["COM"]
properties('MP2/aug-cc-pvtz', properties = ['dipole'])
--------------------------------------------------------------------------

    Molecular point group: c1
  Charge       = 0
  Multiplicity = 1
  Basis Set: AUG-CC-PVTZ
    Blend: AUG-CC-PVTZ
  Basis Set: (AUG-CC-PVTZ AUX)
    Blend: AUG-CC-PVTZ-JKFIT

    Orbital Energies [Eh]
    ---------------------

    Doubly Occupied:

       1A    -20.543350     2A    -20.512369     3A    -15.612410
       4A    -11.350633     5A    -11.296106     6A    -11.285951
       7A    -11.239164     8A    -11.228618     9A    -11.227357
      10A     -1.377576    11A     -1.339760    12A     -1.263583
      13A     -1.085075    14A     -1.022158    15A     -0.956840
      16A     -0.891478    17A     -0.830035    18A     -0.820764
      19A     -0.727238    20A     -0.679521    21A     -0.651797
      22A     -0.637277    23A     -0.622739    24A     -0.597534
      25A     -0.576862    26A     -0.564118    27A     -0.561780
      28A     -0.553887    29A     -0.541351    30A     -0.530816
      31A     -0.505771    32A     -0.498591    33A     -0.490342
      34A     -0.438969    35A     -0.415990    36A     -0.405941

  @DF-RHF Final Energy:  -439.12015590710553

   => Energetics <=

    Nuclear Repulsion Energy =            485.5952908155803698
    One-Electron Energy =               -1561.6633868666312992
    Two-Electron Energy =                 636.9479401439452886
    Total Energy =                       -439.1201559071055271
  Basis Set: (AUG-CC-PVTZ AUX)
    Blend: AUG-CC-PVTZ-RI
    Molecular point group: c1

    Geometry (in Angstrom), charge = 0, multiplicity = 1:

       Center              X                  Y                   Z               Mass
    ------------   -----------------  -----------------  -----------------  -----------------
         O           -2.883412705033     0.466226433486    -0.304148602074    15.994914619570
         O           -0.529846705033     1.542155433486     0.055833397926    15.994914619570
         N            0.648470294967    -0.369910566514    -0.335071602074    14.003074004430
         C            1.956964294967     0.231610433486    -0.094740602074    12.000000000000
         C           -1.808998705033    -0.445745566514    -0.368916602074    12.000000000000
         C            2.998999294967    -0.502371566514    -0.923196602074    12.000000000000
         C            2.285219294967     0.235794433486     1.394182397926    12.000000000000
         C           -0.415939305033     0.276665833486    -0.204389502074    12.000000000000
         C           -1.980197705033    -1.507431566514     0.711203397926    12.000000000000
         H            1.871038294967     1.265905433486    -0.439240602074     1.007825032230
         H            0.595745294967    -1.377488566514    -0.435618602074     1.007825032230
         H           -1.794672705033    -0.924150566514    -1.360898602074     1.007825032230
         H            3.982669294967    -0.046106566514    -0.787253602074     1.007825032230
         H            3.073484294967    -1.550337566514    -0.610736602074     1.007825032230
         H            2.745129294967    -0.472140566514    -1.985187602074     1.007825032230
         H            1.514731294967     0.780971433486     1.943995397926     1.007825032230
         H            3.249619294967     0.719379433486     1.577168397926     1.007825032230
         H            2.336115294967    -0.788525566514     1.776738397926     1.007825032230
         H           -2.966837705033    -1.962620566514     0.608045397926     1.007825032230
         H           -1.916800705033    -1.038571566514     1.695862397926     1.007825032230
         H           -1.227091705033    -2.298785566514     0.643017397926     1.007825032230
         H           -2.451992705033     1.335935433486    -0.151153602074     1.007825032230

  Basis Set: AUG-CC-PVTZ
    Blend: AUG-CC-PVTZ
  Basis Set: (AUG-CC-PVTZ AUX)
    Blend: AUG-CC-PVTZ-JKFIT
	 Reference Energy          =    -439.1201559071055271 [Eh]
	 Singles Energy            =      -0.0000000000000000 [Eh]
	 Same-Spin Energy          =      -0.4468225242237299 [Eh]
	 Opposite-Spin Energy      =      -1.4649476376401673 [Eh]
	 Correlation Energy        =      -1.9117701618638971 [Eh]
	 Total Energy              =    -441.0319260689694261 [Eh]

	 ================> DF-SCS-MP2 Energies <==================
	-----------------------------------------------------------
	 SCS Same-Spin Scale       =       0.3333333333333333 [-]
	 SCS Opposite-Spin Scale   =       1.2000000000000000 [-]
	 SCS Same-Spin Energy      =      -0.1489408414079099 [Eh]
	 SCS Opposite-Spin Energy  =      -1.7579371651682008 [Eh]
	 SCS Correlation Energy    =      -1.9068780065761106 [Eh]
	 SCS Total Energy          =    -441.0270339136816347 [Eh]
	-----------------------------------------------------------

  Dipole Moment: [D]
     X:     4.1769      Y:    -3.4729      Z:    -0.2102     Total:     5.4362

*** Psi4 exiting successfully. Buy a developer a beer!
