                               Psi4 1.3.2 release

  ==> Input File <==

--------------------------------------------------------------------------
#psi4
#
memory 32 gb

molecule  {
0 1
  O       -2.8756320     0.4615000    -0.3051040
  O       -0.5220660     1.5374290     0.0548780
  N        0.6562510    -0.3746370    -0.3360270
  C        1.9292634     0.2924236    -0.0787087
  C       -1.8012180    -0.4504720    -0.3698720
  C        3.0067800    -0.5070980    -0.9241520
  C        2.2930000     0.2310680     1.3932270
  C       -0.4544690     0.3799975    -0.1767074
  C       -1.9724170    -1.5121580     0.7102480
  H        1.8788190     1.2611790    -0.4401960
  H        0.6035260    -1.3822150    -0.4365740
  H       -1.7868920    -0.9288770    -1.3618540
  H        3.9904500    -0.0508330    -0.7882090
  H        3.0812650    -1.5550640    -0.6116920
  H        2.7529100    -0.4768670    -1.9861430
  H        1.5225120     0.7762450     1.9430400
  H        3.2574000     0.7146530     1.5762130
  H        2.3438960    -0.7932520     1.7757830
  H       -2.9590570    -1.9673470     0.6070900
  H       -1.9090200    -1.0432980     1.6949070
  H       -1.2193110    -2.3035120     0.6420620
  H       -2.4442120     1.3312090    -0.1521090
units angstrom
no_reorient  #important for SAPT in psi4, default
symmetry c1  #important for SAPT in psi4, default
}

set PROPERTIES_ORIGIN ["COM"]
properties('MP2/aug-cc-pvtz', properties = ['dipole'])
--------------------------------------------------------------------------

    Molecular point group: c1
  Charge       = 0
  Multiplicity = 1
  Basis Set: AUG-CC-PVTZ
    Blend: AUG-CC-PVTZ
  Basis Set: (AUG-CC-PVTZ AUX)
    Blend: AUG-CC-PVTZ-JKFIT

    Orbital Energies [Eh]
    ---------------------

    Doubly Occupied:

       1A    -20.545271     2A    -20.541275     3A    -15.591866
       4A    -11.353233     5A    -11.292217     6A    -11.274545
       7A    -11.232011     8A    -11.226548     9A    -11.222621
      10A     -1.428782    11A     -1.348660    12A     -1.252323
      13A     -1.062314    14A     -1.015663    15A     -0.944910
      16A     -0.881596    17A     -0.827312    18A     -0.797675
      19A     -0.732764    20A     -0.686274    21A     -0.649930
      22A     -0.644667    23A     -0.623584    24A     -0.603979
      25A     -0.578675    26A     -0.563337    27A     -0.555890
      28A     -0.545902    29A     -0.543626    30A     -0.532026
      31A     -0.522143    32A     -0.512444    33A     -0.485852
      34A     -0.441964    35A     -0.422011    36A     -0.403829

  @DF-RHF Final Energy:  -439.12905579849917

   => Energetics <=

    Nuclear Repulsion Energy =            485.6587788022651466
    One-Electron Energy =               -1561.8002283010630435
    Two-Electron Energy =                 637.0123937002988441
    Total Energy =                       -439.1290557984991665
  Basis Set: (AUG-CC-PVTZ AUX)
    Blend: AUG-CC-PVTZ-RI
    Molecular point group: c1

    Geometry (in Angstrom), charge = 0, multiplicity = 1:

       Center              X                  Y                   Z               Mass
    ------------   -----------------  -----------------  -----------------  -----------------
         O           -2.875925716359     0.450335832771    -0.308324956251    15.994914619570
         O           -0.522359716359     1.526264832771     0.051657043749    15.994914619570
         N            0.655957283641    -0.385801167229    -0.339247956251    14.003074004430
         C            1.928969683641     0.281259432771    -0.081929656251    12.000000000000
         C           -1.801511716359    -0.461636167229    -0.373092956251    12.000000000000
         C            3.006486283641    -0.518262167229    -0.927372956251    12.000000000000
         C            2.292706283641     0.219903832771     1.390006043749    12.000000000000
         C           -0.454762716359     0.368833332771    -0.179928356251    12.000000000000
         C           -1.972710716359    -1.523322167229     0.707027043749    12.000000000000
         H            1.878525283641     1.250014832771    -0.443416956251     1.007825032230
         H            0.603232283641    -1.393379167229    -0.439794956251     1.007825032230
         H           -1.787185716359    -0.940041167229    -1.365074956251     1.007825032230
         H            3.990156283641    -0.061997167229    -0.791429956251     1.007825032230
         H            3.080971283641    -1.566228167229    -0.614912956251     1.007825032230
         H            2.752616283641    -0.488031167229    -1.989363956251     1.007825032230
         H            1.522218283641     0.765080832771     1.939819043749     1.007825032230
         H            3.257106283641     0.703488832771     1.572992043749     1.007825032230
         H            2.343602283641    -0.804416167229     1.772562043749     1.007825032230
         H           -2.959350716359    -1.978511167229     0.603869043749     1.007825032230
         H           -1.909313716359    -1.054462167229     1.691686043749     1.007825032230
         H           -1.219604716359    -2.314676167229     0.638841043749     1.007825032230
         H           -2.444505716359     1.320044832771    -0.155329956251     1.007825032230

  Basis Set: AUG-CC-PVTZ
    Blend: AUG-CC-PVTZ
  Basis Set: (AUG-CC-PVTZ AUX)
    Blend: AUG-CC-PVTZ-JKFIT
	 Reference Energy          =    -439.1290557984991665 [Eh]
	 Singles Energy            =      -0.0000000000000000 [Eh]
	 Same-Spin Energy          =      -0.4446055616693301 [Eh]
	 Opposite-Spin Energy      =      -1.4612922070013479 [Eh]
	 Correlation Energy        =      -1.9058977686706779 [Eh]
	 Total Energy              =    -441.0349535671698504 [Eh]

	 ================> DF-SCS-MP2 Energies <==================
	-----------------------------------------------------------
	 SCS Same-Spin Scale       =       0.3333333333333333 [-]
	 SCS Opposite-Spin Scale   =       1.2000000000000000 [-]
	 SCS Same-Spin Energy      =      -0.1482018538897767 [Eh]
	 SCS Opposite-Spin Energy  =      -1.7535506484016175 [Eh]
	 SCS Correlation Energy    =      -1.9017525022913941 [Eh]
	 SCS Total Energy          =    -441.0308083007905680 [Eh]
	-----------------------------------------------------------

  Dipole Moment: [D]
     X:     3.5052      Y:    -2.7124      Z:    -0.0599     Total:     4.4326

*** Psi4 exiting successfully. Buy a developer a beer!
