                               Psi4 1.3.2 release

  ==> Input File <==

--------------------------------------------------------------------------
#psi4
#
memory 32 gb

molecule  {
0 1
  O       -2.8874978     0.4494762    -0.3513582
  O       -0.5220660     1.5374290     0.0548780
  N        0.6562510    -0.3746370    -0.3360270
  C        1.9647450     0.2268840    -0.0956960
  C       -1.8012180    -0.4504720    -0.3698720
  C        3.0067800    -0.5070980    -0.9241520
  C        2.2930000     0.2310680     1.3932270
  C       -0.4931590     0.3235730    -0.1949090
  C       -1.9724170    -1.5121580     0.7102480
  H        1.8788190     1.2611790    -0.4401960
  H        0.6035260    -1.3822150    -0.4365740
  H       -1.8177597    -0.9081200    -1.3715653
  H        3.9904500    -0.0508330    -0.7882090
  H        3.0812650    -1.5550640    -0.6116920
  H        2.7529100    -0.4768670    -1.9861430
  H        1.5225120     0.7762450     1.9430400
  H        3.2574000     0.7146530     1.5762130
  H        2.3438960    -0.7932520     1.7757830
  H       -2.9590570    -1.9673470     0.6070900
  H       -1.9090200    -1.0432980     1.6949070
  H       -1.2193110    -2.3035120     0.6420620
  H       -2.4442120     1.3312090    -0.1521090
units angstrom
no_reorient  #important for SAPT in psi4, default
symmetry c1  #important for SAPT in psi4, default
}

set PROPERTIES_ORIGIN ["COM"]
properties('MP2/aug-cc-pvtz', properties = ['dipole'])
--------------------------------------------------------------------------

    Molecular point group: c1
  Charge       = 0
  Multiplicity = 1
  Basis Set: AUG-CC-PVTZ
    Blend: AUG-CC-PVTZ
  Basis Set: (AUG-CC-PVTZ AUX)
    Blend: AUG-CC-PVTZ-JKFIT

    Orbital Energies [Eh]
    ---------------------

    Doubly Occupied:

       1A    -20.548789     2A    -20.533559     3A    -15.596258
       4A    -11.359203     5A    -11.296256     6A    -11.277564
       7A    -11.232511     8A    -11.231228     9A    -11.222605
      10A     -1.396637    11A     -1.342851    12A     -1.248467
      13A     -1.072064    14A     -1.022807    15A     -0.950126
      16A     -0.894780    17A     -0.822139    18A     -0.795164
      19A     -0.735806    20A     -0.676601    21A     -0.646798
      22A     -0.632045    23A     -0.629038    24A     -0.597537
      25A     -0.581725    26A     -0.567574    27A     -0.555328
      28A     -0.548325    29A     -0.538779    30A     -0.530111
      31A     -0.512285    32A     -0.503159    33A     -0.491985
      34A     -0.442887    35A     -0.435323    36A     -0.401959

  @DF-RHF Final Energy:  -439.13520763101718

   => Energetics <=

    Nuclear Repulsion Energy =            484.8969664226551686
    One-Electron Energy =               -1560.3238045468069686
    Two-Electron Energy =                 636.2916304931346758
    Total Energy =                       -439.1352076310171242
  Basis Set: (AUG-CC-PVTZ AUX)
    Blend: AUG-CC-PVTZ-RI
    Molecular point group: c1

    Geometry (in Angstrom), charge = 0, multiplicity = 1:

       Center              X                  Y                   Z               Mass
    ------------   -----------------  -----------------  -----------------  -----------------
         O           -2.885812773971     0.450783706453    -0.345639918366    15.994914619570
         O           -0.520380973971     1.538736506453     0.060596281634    15.994914619570
         N            0.657936026029    -0.373329493547    -0.330308718366    14.003074004430
         C            1.966430026029     0.228191506453    -0.089977718366    12.000000000000
         C           -1.799532973971    -0.449164493547    -0.364153718366    12.000000000000
         C            3.008465026029    -0.505790493547    -0.918433718366    12.000000000000
         C            2.294685026029     0.232375506453     1.398945281634    12.000000000000
         C           -0.491473973971     0.324880506453    -0.189190718366    12.000000000000
         C           -1.970731973971    -1.510850493547     0.715966281634    12.000000000000
         H            1.880504026029     1.262486506453    -0.434477718366     1.007825032230
         H            0.605211026029    -1.380907493547    -0.430855718366     1.007825032230
         H           -1.816074673971    -0.906812493547    -1.365847018366     1.007825032230
         H            3.992135026029    -0.049525493547    -0.782490718366     1.007825032230
         H            3.082950026029    -1.553756493547    -0.605973718366     1.007825032230
         H            2.754595026029    -0.475559493547    -1.980424718366     1.007825032230
         H            1.524197026029     0.777552506453     1.948758281634     1.007825032230
         H            3.259085026029     0.715960506453     1.581931281634     1.007825032230
         H            2.345581026029    -0.791944493547     1.781501281634     1.007825032230
         H           -2.957371973971    -1.966039493547     0.612808281634     1.007825032230
         H           -1.907334973971    -1.041990493547     1.700625281634     1.007825032230
         H           -1.217625973971    -2.302204493547     0.647780281634     1.007825032230
         H           -2.442526973971     1.332516506453    -0.146390718366     1.007825032230

  Basis Set: AUG-CC-PVTZ
    Blend: AUG-CC-PVTZ
  Basis Set: (AUG-CC-PVTZ AUX)
    Blend: AUG-CC-PVTZ-JKFIT
	 Reference Energy          =    -439.1352076310171810 [Eh]
	 Singles Energy            =      -0.0000000000000000 [Eh]
	 Same-Spin Energy          =      -0.4463970781560159 [Eh]
	 Opposite-Spin Energy      =      -1.4645122612587822 [Eh]
	 Correlation Energy        =      -1.9109093394147982 [Eh]
	 Total Energy              =    -441.0461169704319673 [Eh]

	 ================> DF-SCS-MP2 Energies <==================
	-----------------------------------------------------------
	 SCS Same-Spin Scale       =       0.3333333333333333 [-]
	 SCS Opposite-Spin Scale   =       1.2000000000000000 [-]
	 SCS Same-Spin Energy      =      -0.1487990260520053 [Eh]
	 SCS Opposite-Spin Energy  =      -1.7574147135105387 [Eh]
	 SCS Correlation Energy    =      -1.9062137395625440 [Eh]
	 SCS Total Energy          =    -441.0414213705797124 [Eh]
	-----------------------------------------------------------

  Dipole Moment: [D]
     X:     3.5043      Y:    -3.0485      Z:    -0.0517     Total:     4.6450

*** Psi4 exiting successfully. Buy a developer a beer!
