                               Psi4 1.3.2 release

  ==> Input File <==

--------------------------------------------------------------------------
#psi4
#
memory 32 gb

molecule  {
0 1
  O       -2.8756320     0.4615000    -0.3051040
  O       -0.5220660     1.5374290     0.0548780
  N        0.6562510    -0.3746370    -0.3360270
  C        1.9647450     0.2268840    -0.0956960
  C       -1.8012180    -0.4504720    -0.3698720
  C        3.0067800    -0.5070980    -0.9241520
  C        2.2930000     0.2310680     1.3932270
  C       -0.4931590     0.3235730    -0.1949090
  C       -1.9709079    -1.4737003     0.7469784
  H        1.8788190     1.2611790    -0.4401960
  H        0.6035260    -1.3822150    -0.4365740
  H       -1.7824938    -0.8941664    -1.3777855
  H        3.9904500    -0.0508330    -0.7882090
  H        3.0812650    -1.5550640    -0.6116920
  H        2.7529100    -0.4768670    -1.9861430
  H        1.5225120     0.7762450     1.9430400
  H        3.2574000     0.7146530     1.5762130
  H        2.3438960    -0.7932520     1.7757830
  H       -2.9590570    -1.9673470     0.6070900
  H       -1.9090200    -1.0432980     1.6949070
  H       -1.2193110    -2.3035120     0.6420620
  H       -2.4442120     1.3312090    -0.1521090
units angstrom
no_reorient  #important for SAPT in psi4, default
symmetry c1  #important for SAPT in psi4, default
}

set PROPERTIES_ORIGIN ["COM"]
properties('MP2/aug-cc-pvtz', properties = ['dipole'])
--------------------------------------------------------------------------

    Molecular point group: c1
  Charge       = 0
  Multiplicity = 1
  Basis Set: AUG-CC-PVTZ
    Blend: AUG-CC-PVTZ
  Basis Set: (AUG-CC-PVTZ AUX)
    Blend: AUG-CC-PVTZ-JKFIT

    Orbital Energies [Eh]
    ---------------------

    Doubly Occupied:

       1A    -20.546521     2A    -20.531958     3A    -15.595320
       4A    -11.357321     5A    -11.297395     6A    -11.277066
       7A    -11.232182     8A    -11.231830     9A    -11.222215
      10A     -1.396987    11A     -1.345609    12A     -1.247662
      13A     -1.072064    14A     -1.023404    15A     -0.949758
      16A     -0.895845    17A     -0.822643    18A     -0.794999
      19A     -0.736233    20A     -0.678680    21A     -0.649694
      22A     -0.631596    23A     -0.628825    24A     -0.597939
      25A     -0.584684    26A     -0.567109    27A     -0.554930
      28A     -0.544605    29A     -0.539249    30A     -0.529997
      31A     -0.511727    32A     -0.502593    33A     -0.491068
      34A     -0.446294    35A     -0.432690    36A     -0.401306

  @DF-RHF Final Energy:  -439.13424158968786

   => Energetics <=

    Nuclear Repulsion Energy =            485.5545569889007993
    One-Electron Energy =               -1561.6376057948036760
    Two-Electron Energy =                 636.9488072162149592
    Total Energy =                       -439.1342415896878038
  Basis Set: (AUG-CC-PVTZ AUX)
    Blend: AUG-CC-PVTZ-RI
    Molecular point group: c1

    Geometry (in Angstrom), charge = 0, multiplicity = 1:

       Center              X                  Y                   Z               Mass
    ------------   -----------------  -----------------  -----------------  -----------------
         O           -2.875803979991     0.457712905335    -0.308343582761    15.994914619570
         O           -0.522237979991     1.533641905335     0.051638417239    15.994914619570
         N            0.656079020009    -0.378424094665    -0.339266582761    14.003074004430
         C            1.964573020009     0.223096905335    -0.098935582761    12.000000000000
         C           -1.801389979991    -0.454259094665    -0.373111582761    12.000000000000
         C            3.006608020009    -0.510885094665    -0.927391582761    12.000000000000
         C            2.292828020009     0.227280905335     1.389987417239    12.000000000000
         C           -0.493330979991     0.319785905335    -0.198148582761    12.000000000000
         C           -1.971079879991    -1.477487394665     0.743738817239    12.000000000000
         H            1.878647020009     1.257391905335    -0.443435582761     1.007825032230
         H            0.603354020009    -1.386002094665    -0.439813582761     1.007825032230
         H           -1.782665779991    -0.897953494665    -1.381025082761     1.007825032230
         H            3.990278020009    -0.054620094665    -0.791448582761     1.007825032230
         H            3.081093020009    -1.558851094665    -0.614931582761     1.007825032230
         H            2.752738020009    -0.480654094665    -1.989382582761     1.007825032230
         H            1.522340020009     0.772457905335     1.939800417239     1.007825032230
         H            3.257228020009     0.710865905335     1.572973417239     1.007825032230
         H            2.343724020009    -0.797039094665     1.772543417239     1.007825032230
         H           -2.959228979991    -1.971134094665     0.603850417239     1.007825032230
         H           -1.909191979991    -1.047085094665     1.691667417239     1.007825032230
         H           -1.219482979991    -2.307299094665     0.638822417239     1.007825032230
         H           -2.444383979991     1.327421905335    -0.155348582761     1.007825032230

  Basis Set: AUG-CC-PVTZ
    Blend: AUG-CC-PVTZ
  Basis Set: (AUG-CC-PVTZ AUX)
    Blend: AUG-CC-PVTZ-JKFIT
	 Reference Energy          =    -439.1342415896878606 [Eh]
	 Singles Energy            =      -0.0000000000000000 [Eh]
	 Same-Spin Energy          =      -0.4461012837688373 [Eh]
	 Opposite-Spin Energy      =      -1.4638058890773333 [Eh]
	 Correlation Energy        =      -1.9099071728461707 [Eh]
	 Total Energy              =    -441.0441487625340073 [Eh]

	 ================> DF-SCS-MP2 Energies <==================
	-----------------------------------------------------------
	 SCS Same-Spin Scale       =       0.3333333333333333 [-]
	 SCS Opposite-Spin Scale   =       1.2000000000000000 [-]
	 SCS Same-Spin Energy      =      -0.1487004279229457 [Eh]
	 SCS Opposite-Spin Energy  =      -1.7565670668928000 [Eh]
	 SCS Correlation Energy    =      -1.9052674948157458 [Eh]
	 SCS Total Energy          =    -441.0395090845036066 [Eh]
	-----------------------------------------------------------

  Dipole Moment: [D]
     X:     3.4500      Y:    -3.0470      Z:    -0.1349     Total:     4.6048

*** Psi4 exiting successfully. Buy a developer a beer!
