                               Psi4 1.3.2 release

  ==> Input File <==

--------------------------------------------------------------------------
#psi4
#
memory 32 gb

molecule  {
0 1
  O       -2.8756320     0.4615000    -0.3051040
  O       -0.5220660     1.5374290     0.0548780
  N        0.6562510    -0.3746370    -0.3360270
  C        1.9647450     0.2268840    -0.0956960
  C       -1.8012180    -0.4504720    -0.3698720
  C        3.0067800    -0.5070980    -0.9241520
  C        2.2930000     0.2310680     1.3932270
  C       -0.4931590     0.3235730    -0.1949090
  C       -1.9724170    -1.5121580     0.7102480
  H        1.8788190     1.2611790    -0.4401960
  H        0.6035260    -1.3822150    -0.4365740
  H       -1.7881927    -0.8854413    -1.2717893
  H        3.9904500    -0.0508330    -0.7882090
  H        3.0812650    -1.5550640    -0.6116920
  H        2.7529100    -0.4768670    -1.9861430
  H        1.5225120     0.7762450     1.9430400
  H        3.2574000     0.7146530     1.5762130
  H        2.3438960    -0.7932520     1.7757830
  H       -2.9590570    -1.9673470     0.6070900
  H       -1.9090200    -1.0432980     1.6949070
  H       -1.2193110    -2.3035120     0.6420620
  H       -2.4442120     1.3312090    -0.1521090
units angstrom
no_reorient  #important for SAPT in psi4, default
symmetry c1  #important for SAPT in psi4, default
}

set PROPERTIES_ORIGIN ["COM"]
properties('MP2/aug-cc-pvtz', properties = ['dipole'])
--------------------------------------------------------------------------

    Molecular point group: c1
  Charge       = 0
  Multiplicity = 1
  Basis Set: AUG-CC-PVTZ
    Blend: AUG-CC-PVTZ
  Basis Set: (AUG-CC-PVTZ AUX)
    Blend: AUG-CC-PVTZ-JKFIT

    Orbital Energies [Eh]
    ---------------------

    Doubly Occupied:

       1A    -20.545914     2A    -20.531955     3A    -15.596012
       4A    -11.357462     5A    -11.284783     6A    -11.277326
       7A    -11.232424     8A    -11.229893     9A    -11.222335
      10A     -1.396811    11A     -1.345019    12A     -1.248168
      13A     -1.073565    14A     -1.026790    15A     -0.949941
      16A     -0.898220    17A     -0.826765    18A     -0.797415
      19A     -0.739246    20A     -0.683130    21A     -0.654534
      22A     -0.632156    23A     -0.628958    24A     -0.597224
      25A     -0.580989    26A     -0.566906    27A     -0.555161
      28A     -0.547976    29A     -0.540606    30A     -0.532322
      31A     -0.512309    32A     -0.502791    33A     -0.491471
      34A     -0.447655    35A     -0.434296    36A     -0.401801

  @DF-RHF Final Energy:  -439.13270773628835

   => Energetics <=

    Nuclear Repulsion Energy =            485.8981847665475584
    One-Electron Energy =               -1562.2811279810025553
    Two-Electron Energy =                 637.2502354781667009
    Total Energy =                       -439.1327077362883529
  Basis Set: (AUG-CC-PVTZ AUX)
    Blend: AUG-CC-PVTZ-RI
    Molecular point group: c1

    Geometry (in Angstrom), charge = 0, multiplicity = 1:

       Center              X                  Y                   Z               Mass
    ------------   -----------------  -----------------  -----------------  -----------------
         O           -2.875622029790     0.461166128632    -0.305796268812    15.994914619570
         O           -0.522056029790     1.537095128632     0.054185731188    15.994914619570
         N            0.656260970210    -0.374970871368    -0.336719268812    14.003074004430
         C            1.964754970210     0.226550128632    -0.096388268812    12.000000000000
         C           -1.801208029790    -0.450805871368    -0.370564268812    12.000000000000
         C            3.006789970210    -0.507431871368    -0.924844268812    12.000000000000
         C            2.293009970210     0.230734128632     1.392534731188    12.000000000000
         C           -0.493149029790     0.323239128632    -0.195601268812    12.000000000000
         C           -1.972407029790    -1.512491871368     0.709555731188    12.000000000000
         H            1.878828970210     1.260845128632    -0.440888268812     1.007825032230
         H            0.603535970210    -1.382548871368    -0.437266268812     1.007825032230
         H           -1.788182729790    -0.885775171368    -1.272481568812     1.007825032230
         H            3.990459970210    -0.051166871368    -0.788901268812     1.007825032230
         H            3.081274970210    -1.555397871368    -0.612384268812     1.007825032230
         H            2.752919970210    -0.477200871368    -1.986835268812     1.007825032230
         H            1.522521970210     0.775911128632     1.942347731188     1.007825032230
         H            3.257409970210     0.714319128632     1.575520731188     1.007825032230
         H            2.343905970210    -0.793585871368     1.775090731188     1.007825032230
         H           -2.959047029790    -1.967680871368     0.606397731188     1.007825032230
         H           -1.909010029790    -1.043631871368     1.694214731188     1.007825032230
         H           -1.219301029790    -2.303845871368     0.641369731188     1.007825032230
         H           -2.444202029790     1.330875128632    -0.152801268812     1.007825032230

  Basis Set: AUG-CC-PVTZ
    Blend: AUG-CC-PVTZ
  Basis Set: (AUG-CC-PVTZ AUX)
    Blend: AUG-CC-PVTZ-JKFIT
	 Reference Energy          =    -439.1327077362883529 [Eh]
	 Singles Energy            =      -0.0000000000000000 [Eh]
	 Same-Spin Energy          =      -0.4459169432771662 [Eh]
	 Opposite-Spin Energy      =      -1.4630047557744543 [Eh]
	 Correlation Energy        =      -1.9089216990516205 [Eh]
	 Total Energy              =    -441.0416294353399849 [Eh]

	 ================> DF-SCS-MP2 Energies <==================
	-----------------------------------------------------------
	 SCS Same-Spin Scale       =       0.3333333333333333 [-]
	 SCS Opposite-Spin Scale   =       1.2000000000000000 [-]
	 SCS Same-Spin Energy      =      -0.1486389810923887 [Eh]
	 SCS Opposite-Spin Energy  =      -1.7556057069293451 [Eh]
	 SCS Correlation Energy    =      -1.9042446880217339 [Eh]
	 SCS Total Energy          =    -441.0369524243100727 [Eh]
	-----------------------------------------------------------

  Dipole Moment: [D]
     X:     3.4876      Y:    -3.0938      Z:    -0.1838     Total:     4.6657

*** Psi4 exiting successfully. Buy a developer a beer!
