                               Psi4 1.3.2 release

  ==> Input File <==

--------------------------------------------------------------------------
#psi4
#
memory 32 gb

molecule  {
0 1
  O       -2.8803594     0.4551765    -0.2956578
  O       -0.5220660     1.5374290     0.0548780
  N        0.6562510    -0.3746370    -0.3360270
  C        1.9647450     0.2268840    -0.0956960
  C       -1.8012180    -0.4504720    -0.3698720
  C        3.0067800    -0.5070980    -0.9241520
  C        2.2930000     0.2310680     1.3932270
  C       -0.4931590     0.3235730    -0.1949090
  C       -1.9836763    -1.5062648     0.7141741
  H        1.8788190     1.2611790    -0.4401960
  H        0.6035260    -1.3822150    -0.4365740
  H       -1.7868920    -0.9288770    -1.3618540
  H        3.9904500    -0.0508330    -0.7882090
  H        3.0812650    -1.5550640    -0.6116920
  H        2.7529100    -0.4768670    -1.9861430
  H        1.5225120     0.7762450     1.9430400
  H        3.2574000     0.7146530     1.5762130
  H        2.3438960    -0.7932520     1.7757830
  H       -2.9590570    -1.9673470     0.6070900
  H       -1.9090200    -1.0432980     1.6949070
  H       -1.2193110    -2.3035120     0.6420620
  H       -2.4442120     1.3312090    -0.1521090
units angstrom
no_reorient  #important for SAPT in psi4, default
symmetry c1  #important for SAPT in psi4, default
}

set PROPERTIES_ORIGIN ["COM"]
properties('MP2/aug-cc-pvtz', properties = ['dipole'])
--------------------------------------------------------------------------

    Molecular point group: c1
  Charge       = 0
  Multiplicity = 1
  Basis Set: AUG-CC-PVTZ
    Blend: AUG-CC-PVTZ
  Basis Set: (AUG-CC-PVTZ AUX)
    Blend: AUG-CC-PVTZ-JKFIT

    Orbital Energies [Eh]
    ---------------------

    Doubly Occupied:

       1A    -20.548022     2A    -20.532840     3A    -15.595883
       4A    -11.358648     5A    -11.297099     6A    -11.277339
       7A    -11.232369     8A    -11.230436     9A    -11.222359
      10A     -1.397178    11A     -1.345250    12A     -1.248143
      13A     -1.072106    14A     -1.023252    15A     -0.949929
      16A     -0.895203    17A     -0.822170    18A     -0.795029
      19A     -0.735843    20A     -0.678801    21A     -0.649822
      22A     -0.632323    23A     -0.628777    24A     -0.596932
      25A     -0.581345    26A     -0.566939    27A     -0.555139
      28A     -0.548667    29A     -0.538794    30A     -0.529584
      31A     -0.512625    32A     -0.502953    33A     -0.491656
      34A     -0.444515    35A     -0.434925    36A     -0.401575

  @DF-RHF Final Energy:  -439.13713255953689

   => Energetics <=

    Nuclear Repulsion Energy =            485.2529820820099076
    One-Electron Energy =               -1561.0312856699831627
    Two-Electron Energy =                 636.6411710284364744
    Total Energy =                       -439.1371325595368944
  Basis Set: (AUG-CC-PVTZ AUX)
    Blend: AUG-CC-PVTZ-RI
    Molecular point group: c1

    Geometry (in Angstrom), charge = 0, multiplicity = 1:

       Center              X                  Y                   Z               Mass
    ------------   -----------------  -----------------  -----------------  -----------------
         O           -2.878751995299     0.455408639834    -0.297169590591    15.994914619570
         O           -0.520458595299     1.537661139834     0.053366209409    15.994914619570
         N            0.657858404701    -0.374404860166    -0.337538790591    14.003074004430
         C            1.966352404701     0.227116139834    -0.097207790591    12.000000000000
         C           -1.799610595299    -0.450239860166    -0.371383790591    12.000000000000
         C            3.008387404701    -0.506865860166    -0.925663790591    12.000000000000
         C            2.294607404701     0.231300139834     1.391715209409    12.000000000000
         C           -0.491551595299     0.323805139834    -0.196420790591    12.000000000000
         C           -1.982068895299    -1.506032660166     0.712662309409    12.000000000000
         H            1.880426404701     1.261411139834    -0.441707790591     1.007825032230
         H            0.605133404701    -1.381982860166    -0.438085790591     1.007825032230
         H           -1.785284595299    -0.928644860166    -1.363365790591     1.007825032230
         H            3.992057404701    -0.050600860166    -0.789720790591     1.007825032230
         H            3.082872404701    -1.554831860166    -0.613203790591     1.007825032230
         H            2.754517404701    -0.476634860166    -1.987654790591     1.007825032230
         H            1.524119404701     0.776477139834     1.941528209409     1.007825032230
         H            3.259007404701     0.714885139834     1.574701209409     1.007825032230
         H            2.345503404701    -0.793019860166     1.774271209409     1.007825032230
         H           -2.957449595299    -1.967114860166     0.605578209409     1.007825032230
         H           -1.907412595299    -1.043065860166     1.693395209409     1.007825032230
         H           -1.217703595299    -2.303279860166     0.640550209409     1.007825032230
         H           -2.442604595299     1.331441139834    -0.153620790591     1.007825032230

  Basis Set: AUG-CC-PVTZ
    Blend: AUG-CC-PVTZ
  Basis Set: (AUG-CC-PVTZ AUX)
    Blend: AUG-CC-PVTZ-JKFIT
	 Reference Energy          =    -439.1371325595368944 [Eh]
	 Singles Energy            =      -0.0000000000000000 [Eh]
	 Same-Spin Energy          =      -0.4461293317001574 [Eh]
	 Opposite-Spin Energy      =      -1.4638688057614355 [Eh]
	 Correlation Energy        =      -1.9099981374615931 [Eh]
	 Total Energy              =    -441.0471306969984653 [Eh]

	 ================> DF-SCS-MP2 Energies <==================
	-----------------------------------------------------------
	 SCS Same-Spin Scale       =       0.3333333333333333 [-]
	 SCS Opposite-Spin Scale   =       1.2000000000000000 [-]
	 SCS Same-Spin Energy      =      -0.1487097772333858 [Eh]
	 SCS Opposite-Spin Energy  =      -1.7566425669137227 [Eh]
	 SCS Correlation Energy    =      -1.9053523441471085 [Eh]
	 SCS Total Energy          =    -441.0424849036839987 [Eh]
	-----------------------------------------------------------

  Dipole Moment: [D]
     X:     3.4695      Y:    -3.0385      Z:    -0.1624     Total:     4.6148

*** Psi4 exiting successfully. Buy a developer a beer!
