                               Psi4 1.3.2 release

  ==> Input File <==

--------------------------------------------------------------------------
#psi4
#
memory 32 gb

molecule  {
0 1
  O       -2.8676399     0.4707137    -0.3034310
  O       -0.5220660     1.5374290     0.0548780
  N        0.6562510    -0.3746370    -0.3360270
  C        1.9647450     0.2268840    -0.0956960
  C       -1.8012180    -0.4504720    -0.3698720
  C        3.0067800    -0.5070980    -0.9241520
  C        2.2930000     0.2310680     1.3932270
  C       -0.5000970     0.3349217    -0.1937554
  C       -1.9724170    -1.5121580     0.7102480
  H        1.8788190     1.2611790    -0.4401960
  H        0.6035260    -1.3822150    -0.4365740
  H       -1.7868920    -0.9288770    -1.3618540
  H        3.9904500    -0.0508330    -0.7882090
  H        3.0812650    -1.5550640    -0.6116920
  H        2.7529100    -0.4768670    -1.9861430
  H        1.5225120     0.7762450     1.9430400
  H        3.2574000     0.7146530     1.5762130
  H        2.3438960    -0.7932520     1.7757830
  H       -2.9590570    -1.9673470     0.6070900
  H       -1.9090200    -1.0432980     1.6949070
  H       -1.2193110    -2.3035120     0.6420620
  H       -2.4442120     1.3312090    -0.1521090
units angstrom
no_reorient  #important for SAPT in psi4, default
symmetry c1  #important for SAPT in psi4, default
}

set PROPERTIES_ORIGIN ["COM"]
properties('MP2/aug-cc-pvtz', properties = ['dipole'])
--------------------------------------------------------------------------

    Molecular point group: c1
  Charge       = 0
  Multiplicity = 1
  Basis Set: AUG-CC-PVTZ
    Blend: AUG-CC-PVTZ
  Basis Set: (AUG-CC-PVTZ AUX)
    Blend: AUG-CC-PVTZ-JKFIT

    Orbital Energies [Eh]
    ---------------------

    Doubly Occupied:

       1A    -20.547002     2A    -20.535010     3A    -15.592912
       4A    -11.358222     5A    -11.297589     6A    -11.275859
       7A    -11.231301     8A    -11.231149     9A    -11.221424
      10A     -1.403503    11A     -1.349330    12A     -1.244825
      13A     -1.070558    14A     -1.023752    15A     -0.948898
      16A     -0.894834    17A     -0.821278    18A     -0.792492
      19A     -0.738142    20A     -0.680094    21A     -0.650247
      22A     -0.634201    23A     -0.627874    24A     -0.597417
      25A     -0.582316    26A     -0.568180    27A     -0.554233
      28A     -0.547252    29A     -0.539901    30A     -0.530930
      31A     -0.514088    32A     -0.502969    33A     -0.491036
      34A     -0.445959    35A     -0.435070    36A     -0.400236

  @DF-RHF Final Energy:  -439.13902593284246

   => Energetics <=

    Nuclear Repulsion Energy =            485.4921427417167479
    One-Electron Energy =               -1561.5021752027862476
    Two-Electron Energy =                 636.8710065282269852
    Total Energy =                       -439.1390259328424008
  Basis Set: (AUG-CC-PVTZ AUX)
    Blend: AUG-CC-PVTZ-RI
    Molecular point group: c1

    Geometry (in Angstrom), charge = 0, multiplicity = 1:

       Center              X                  Y                   Z               Mass
    ------------   -----------------  -----------------  -----------------  -----------------
         O           -2.867979965757     0.468550759344    -0.303740592820    15.994914619570
         O           -0.522406065757     1.535266059344     0.054568407180    15.994914619570
         N            0.655910934243    -0.376799940656    -0.336336592820    14.003074004430
         C            1.964404934243     0.224721059344    -0.096005592820    12.000000000000
         C           -1.801558065757    -0.452634940656    -0.370181592820    12.000000000000
         C            3.006439934243    -0.509260940656    -0.924461592820    12.000000000000
         C            2.292659934243     0.228905059344     1.392917407180    12.000000000000
         C           -0.500437065757     0.332758759344    -0.194064992820    12.000000000000
         C           -1.972757065757    -1.514320940656     0.709938407180    12.000000000000
         H            1.878478934243     1.259016059344    -0.440505592820     1.007825032230
         H            0.603185934243    -1.384377940656    -0.436883592820     1.007825032230
         H           -1.787232065757    -0.931039940656    -1.362163592820     1.007825032230
         H            3.990109934243    -0.052995940656    -0.788518592820     1.007825032230
         H            3.080924934243    -1.557226940656    -0.612001592820     1.007825032230
         H            2.752569934243    -0.479029940656    -1.986452592820     1.007825032230
         H            1.522171934243     0.774082059344     1.942730407180     1.007825032230
         H            3.257059934243     0.712490059344     1.575903407180     1.007825032230
         H            2.343555934243    -0.795414940656     1.775473407180     1.007825032230
         H           -2.959397065757    -1.969509940656     0.606780407180     1.007825032230
         H           -1.909360065757    -1.045460940656     1.694597407180     1.007825032230
         H           -1.219651065757    -2.305674940656     0.641752407180     1.007825032230
         H           -2.444552065757     1.329046059344    -0.152418592820     1.007825032230

  Basis Set: AUG-CC-PVTZ
    Blend: AUG-CC-PVTZ
  Basis Set: (AUG-CC-PVTZ AUX)
    Blend: AUG-CC-PVTZ-JKFIT
	 Reference Energy          =    -439.1390259328424577 [Eh]
	 Singles Energy            =      -0.0000000000000000 [Eh]
	 Same-Spin Energy          =      -0.4456296589090232 [Eh]
	 Opposite-Spin Energy      =      -1.4628459393917805 [Eh]
	 Correlation Energy        =      -1.9084755983008037 [Eh]
	 Total Energy              =    -441.0475015311432685 [Eh]

	 ================> DF-SCS-MP2 Energies <==================
	-----------------------------------------------------------
	 SCS Same-Spin Scale       =       0.3333333333333333 [-]
	 SCS Opposite-Spin Scale   =       1.2000000000000000 [-]
	 SCS Same-Spin Energy      =      -0.1485432196363410 [Eh]
	 SCS Opposite-Spin Energy  =      -1.7554151272701366 [Eh]
	 SCS Correlation Energy    =      -1.9039583469064776 [Eh]
	 SCS Total Energy          =    -441.0429842797489073 [Eh]
	-----------------------------------------------------------

  Dipole Moment: [D]
     X:     3.3503      Y:    -3.0050      Z:    -0.1343     Total:     4.5025

*** Psi4 exiting successfully. Buy a developer a beer!
