                               Psi4 1.3.2 release

  ==> Input File <==

--------------------------------------------------------------------------
#psi4
#
memory 32 gb

molecule  {
0 1
  O       -2.8756320     0.4615000    -0.3051040
  O       -0.5220660     1.5374290     0.0548780
  N        0.6562510    -0.3746370    -0.3360270
  C        1.9647450     0.2268840    -0.0956960
  C       -1.8336342    -0.4868147    -0.3771667
  C        3.0067800    -0.5070980    -0.9241520
  C        2.2930000     0.2310680     1.3932270
  C       -0.4931590     0.3235730    -0.1949090
  C       -1.9724170    -1.5121580     0.7102480
  H        1.8788190     1.2611790    -0.4401960
  H        0.6035260    -1.3822150    -0.4365740
  H       -1.7868920    -0.9288770    -1.3618540
  H        3.9904500    -0.0508330    -0.7882090
  H        3.0812650    -1.5550640    -0.6116920
  H        2.7529100    -0.4768670    -1.9861430
  H        1.5225120     0.7762450     1.9430400
  H        3.2574000     0.7146530     1.5762130
  H        2.3438960    -0.7932520     1.7757830
  H       -2.9590570    -1.9673470     0.6070900
  H       -1.9090200    -1.0432980     1.6949070
  H       -1.2193110    -2.3035120     0.6420620
  H       -2.4752201     1.3458819    -0.1519267
units angstrom
no_reorient  #important for SAPT in psi4, default
symmetry c1  #important for SAPT in psi4, default
}

set PROPERTIES_ORIGIN ["COM"]
properties('MP2/aug-cc-pvtz', properties = ['dipole'])
--------------------------------------------------------------------------

    Molecular point group: c1
  Charge       = 0
  Multiplicity = 1
  Basis Set: AUG-CC-PVTZ
    Blend: AUG-CC-PVTZ
  Basis Set: (AUG-CC-PVTZ AUX)
    Blend: AUG-CC-PVTZ-JKFIT

    Orbital Energies [Eh]
    ---------------------

    Doubly Occupied:

       1A    -20.546170     2A    -20.530972     3A    -15.594553
       4A    -11.357090     5A    -11.298131     6A    -11.276275
       7A    -11.231723     8A    -11.229786     9A    -11.221703
      10A     -1.393049    11A     -1.343980    12A     -1.246219
      13A     -1.070645    14A     -1.027555    15A     -0.949247
      16A     -0.888643    17A     -0.823097    18A     -0.794781
      19A     -0.731246    20A     -0.679909    21A     -0.652239
      22A     -0.631399    23A     -0.627783    24A     -0.596249
      25A     -0.584579    26A     -0.569424    27A     -0.554416
      28A     -0.546744    29A     -0.539123    30A     -0.531462
      31A     -0.506405    32A     -0.502009    33A     -0.490116
      34A     -0.449779    35A     -0.425757    36A     -0.400397

  @DF-RHF Final Energy:  -439.13566931761181

   => Energetics <=

    Nuclear Repulsion Energy =            484.6363009423735662
    One-Electron Energy =               -1559.8586271312765348
    Two-Electron Energy =                 636.0866568712912112
    Total Energy =                       -439.1356693176118142
  Basis Set: (AUG-CC-PVTZ AUX)
    Blend: AUG-CC-PVTZ-RI
    Molecular point group: c1

    Geometry (in Angstrom), charge = 0, multiplicity = 1:

       Center              X                  Y                   Z               Mass
    ------------   -----------------  -----------------  -----------------  -----------------
         O           -2.872426366736     0.464713949581    -0.304437539362    15.994914619570
         O           -0.518860366736     1.540642949581     0.055544460638    15.994914619570
         N            0.659456633264    -0.371423050419    -0.335360539362    14.003074004430
         C            1.967950633264     0.230097949581    -0.095029539362    12.000000000000
         C           -1.830428566736    -0.483600750419    -0.376500239362    12.000000000000
         C            3.009985633264    -0.503884050419    -0.923485539362    12.000000000000
         C            2.296205633264     0.234281949581     1.393893460638    12.000000000000
         C           -0.489953366736     0.326786949581    -0.194242539362    12.000000000000
         C           -1.969211366736    -1.508944050419     0.710914460638    12.000000000000
         H            1.882024633264     1.264392949581    -0.439529539362     1.007825032230
         H            0.606731633264    -1.379001050419    -0.435907539362     1.007825032230
         H           -1.783686366736    -0.925663050419    -1.361187539362     1.007825032230
         H            3.993655633264    -0.047619050419    -0.787542539362     1.007825032230
         H            3.084470633264    -1.551850050419    -0.611025539362     1.007825032230
         H            2.756115633264    -0.473653050419    -1.985476539362     1.007825032230
         H            1.525717633264     0.779458949581     1.943706460638     1.007825032230
         H            3.260605633264     0.717866949581     1.576879460638     1.007825032230
         H            2.347101633264    -0.790038050419     1.776449460638     1.007825032230
         H           -2.955851366736    -1.964133050419     0.607756460638     1.007825032230
         H           -1.905814366736    -1.040084050419     1.695573460638     1.007825032230
         H           -1.216105366736    -2.300298050419     0.642728460638     1.007825032230
         H           -2.472014466736     1.349095849581    -0.151260239362     1.007825032230

  Basis Set: AUG-CC-PVTZ
    Blend: AUG-CC-PVTZ
  Basis Set: (AUG-CC-PVTZ AUX)
    Blend: AUG-CC-PVTZ-JKFIT
	 Reference Energy          =    -439.1356693176118142 [Eh]
	 Singles Energy            =      -0.0000000000000000 [Eh]
	 Same-Spin Energy          =      -0.4459066495259483 [Eh]
	 Opposite-Spin Energy      =      -1.4634468993953842 [Eh]
	 Correlation Energy        =      -1.9093535489213325 [Eh]
	 Total Energy              =    -441.0450228665331451 [Eh]

	 ================> DF-SCS-MP2 Energies <==================
	-----------------------------------------------------------
	 SCS Same-Spin Scale       =       0.3333333333333333 [-]
	 SCS Opposite-Spin Scale   =       1.2000000000000000 [-]
	 SCS Same-Spin Energy      =      -0.1486355498419827 [Eh]
	 SCS Opposite-Spin Energy  =      -1.7561362792744610 [Eh]
	 SCS Correlation Energy    =      -1.9047718291164437 [Eh]
	 SCS Total Energy          =    -441.0404411467282557 [Eh]
	-----------------------------------------------------------

  Dipole Moment: [D]
     X:     3.4046      Y:    -3.0631      Z:    -0.1410     Total:     4.5819

*** Psi4 exiting successfully. Buy a developer a beer!
