                               Psi4 1.3.2 release

  ==> Input File <==

--------------------------------------------------------------------------
#psi4
#
memory 32 gb

molecule  {
0 1
  O       -2.8756320     0.4615000    -0.3051040
  O       -0.5220660     1.5374290     0.0548780
  N        0.6562510    -0.3746370    -0.3360270
  C        1.9647450     0.2268840    -0.0956960
  C       -1.7768443    -0.4452717    -0.3605697
  C        3.0067800    -0.5070980    -0.9241520
  C        2.2930000     0.2310680     1.3932270
  C       -0.4931590     0.3235730    -0.1949090
  C       -1.9724170    -1.5121580     0.7102480
  H        1.8788190     1.2611790    -0.4401960
  H        0.6035260    -1.3822150    -0.4365740
  H       -1.7868920    -0.9288770    -1.3618540
  H        3.9904500    -0.0508330    -0.7882090
  H        3.0812650    -1.5550640    -0.6116920
  H        2.7529100    -0.4768670    -1.9861430
  H        1.5225120     0.7762450     1.9430400
  H        3.2574000     0.7146530     1.5762130
  H        2.3438960    -0.7932520     1.7757830
  H       -2.9552506    -1.9785776     0.6219986
  H       -1.9090200    -1.0432980     1.6949070
  H       -1.2193110    -2.3035120     0.6420620
  H       -2.4442120     1.3312090    -0.1521090
units angstrom
no_reorient  #important for SAPT in psi4, default
symmetry c1  #important for SAPT in psi4, default
}

set PROPERTIES_ORIGIN ["COM"]
properties('MP2/aug-cc-pvtz', properties = ['dipole'])
--------------------------------------------------------------------------

    Molecular point group: c1
  Charge       = 0
  Multiplicity = 1
  Basis Set: AUG-CC-PVTZ
    Blend: AUG-CC-PVTZ
  Basis Set: (AUG-CC-PVTZ AUX)
    Blend: AUG-CC-PVTZ-JKFIT

    Orbital Energies [Eh]
    ---------------------

    Doubly Occupied:

       1A    -20.547024     2A    -20.532949     3A    -15.596028
       4A    -11.358791     5A    -11.297486     6A    -11.277500
       7A    -11.232488     8A    -11.231671     9A    -11.222505
      10A     -1.397543    11A     -1.341570    12A     -1.248821
      13A     -1.073973    14A     -1.024592    15A     -0.950069
      16A     -0.899367    17A     -0.822077    18A     -0.794967
      19A     -0.736146    20A     -0.678483    21A     -0.648479
      22A     -0.632961    23A     -0.628766    24A     -0.597252
      25A     -0.581001    26A     -0.564338    27A     -0.555225
      28A     -0.549156    29A     -0.538243    30A     -0.528648
      31A     -0.514464    32A     -0.502967    33A     -0.491970
      34A     -0.444182    35A     -0.438010    36A     -0.401671

  @DF-RHF Final Energy:  -439.13650414276424

   => Energetics <=

    Nuclear Repulsion Energy =            485.5788203615990710
    One-Electron Energy =               -1561.6678814350825633
    Two-Electron Energy =                 636.9525569307191972
    Total Energy =                       -439.1365041427642382
  Basis Set: (AUG-CC-PVTZ AUX)
    Blend: AUG-CC-PVTZ-RI
    Molecular point group: c1

    Geometry (in Angstrom), charge = 0, multiplicity = 1:

       Center              X                  Y                   Z               Mass
    ------------   -----------------  -----------------  -----------------  -----------------
         O           -2.877892385687     0.461110370936    -0.306069990180    15.994914619570
         O           -0.524326385687     1.537039370936     0.053912009820    15.994914619570
         N            0.653990614313    -0.375026629064    -0.336992990180    14.003074004430
         C            1.962484614313     0.226494370936    -0.096661990180    12.000000000000
         C           -1.779104685687    -0.445661329064    -0.361535690180    12.000000000000
         C            3.004519614313    -0.507487629064    -0.925117990180    12.000000000000
         C            2.290739614313     0.230678370936     1.392261009820    12.000000000000
         C           -0.495419385687     0.323183370936    -0.195874990180    12.000000000000
         C           -1.974677385687    -1.512547629064     0.709282009820    12.000000000000
         H            1.876558614313     1.260789370936    -0.441161990180     1.007825032230
         H            0.601265614313    -1.382604629064    -0.437539990180     1.007825032230
         H           -1.789152385687    -0.929266629064    -1.362819990180     1.007825032230
         H            3.988189614313    -0.051222629064    -0.789174990180     1.007825032230
         H            3.079004614313    -1.555453629064    -0.612657990180     1.007825032230
         H            2.750649614313    -0.477256629064    -1.987108990180     1.007825032230
         H            1.520251614313     0.775855370936     1.942074009820     1.007825032230
         H            3.255139614313     0.714263370936     1.575247009820     1.007825032230
         H            2.341635614313    -0.793641629064     1.774817009820     1.007825032230
         H           -2.957510985687    -1.978967229064     0.621032609820     1.007825032230
         H           -1.911280385687    -1.043687629064     1.693941009820     1.007825032230
         H           -1.221571385687    -2.303901629064     0.641096009820     1.007825032230
         H           -2.446472385687     1.330819370936    -0.153074990180     1.007825032230

  Basis Set: AUG-CC-PVTZ
    Blend: AUG-CC-PVTZ
  Basis Set: (AUG-CC-PVTZ AUX)
    Blend: AUG-CC-PVTZ-JKFIT
	 Reference Energy          =    -439.1365041427642382 [Eh]
	 Singles Energy            =      -0.0000000000000000 [Eh]
	 Same-Spin Energy          =      -0.4461957071509434 [Eh]
	 Opposite-Spin Energy      =      -1.4641083906832537 [Eh]
	 Correlation Energy        =      -1.9103040978341972 [Eh]
	 Total Energy              =    -441.0468082405984092 [Eh]

	 ================> DF-SCS-MP2 Energies <==================
	-----------------------------------------------------------
	 SCS Same-Spin Scale       =       0.3333333333333333 [-]
	 SCS Opposite-Spin Scale   =       1.2000000000000000 [-]
	 SCS Same-Spin Energy      =      -0.1487319023836478 [Eh]
	 SCS Opposite-Spin Energy  =      -1.7569300688199043 [Eh]
	 SCS Correlation Energy    =      -1.9056619712035521 [Eh]
	 SCS Total Energy          =    -441.0421661139677667 [Eh]
	-----------------------------------------------------------

  Dipole Moment: [D]
     X:     3.4839      Y:    -3.0875      Z:    -0.1263     Total:     4.6568

*** Psi4 exiting successfully. Buy a developer a beer!
