                               Psi4 1.3.2 release

  ==> Input File <==

--------------------------------------------------------------------------
#psi4
#
memory 32 gb

molecule  {
0 1
  O       -2.8756320     0.4615000    -0.3051040
  O       -0.5220660     1.5374290     0.0548780
  N        0.6562510    -0.3746370    -0.3360270
  C        1.9647450     0.2268840    -0.0956960
  C       -1.7550600    -0.3938888    -0.3587847
  C        3.0067800    -0.5070980    -0.9241520
  C        2.2930000     0.2310680     1.3932270
  C       -0.4931590     0.3235730    -0.1949090
  C       -1.9724170    -1.5121580     0.7102480
  H        1.8788190     1.2611790    -0.4401960
  H        0.6035260    -1.3822150    -0.4365740
  H       -1.7868920    -0.9288770    -1.3618540
  H        3.9904500    -0.0508330    -0.7882090
  H        3.0812650    -1.5550640    -0.6116920
  H        2.7529100    -0.4768670    -1.9861430
  H        1.5225120     0.7762450     1.9430400
  H        3.2574000     0.7146530     1.5762130
  H        2.3438960    -0.7932520     1.7757830
  H       -2.9590570    -1.9673470     0.6070900
  H       -1.9090200    -1.0432980     1.6949070
  H       -1.2193110    -2.3035120     0.6420620
  H       -2.3986970     1.3072188    -0.1527319
units angstrom
no_reorient  #important for SAPT in psi4, default
symmetry c1  #important for SAPT in psi4, default
}

set PROPERTIES_ORIGIN ["COM"]
properties('MP2/aug-cc-pvtz', properties = ['dipole'])
--------------------------------------------------------------------------

    Molecular point group: c1
  Charge       = 0
  Multiplicity = 1
  Basis Set: AUG-CC-PVTZ
    Blend: AUG-CC-PVTZ
  Basis Set: (AUG-CC-PVTZ AUX)
    Blend: AUG-CC-PVTZ-JKFIT

    Orbital Energies [Eh]
    ---------------------

    Doubly Occupied:

       1A    -20.550370     2A    -20.534321     3A    -15.596991
       4A    -11.358768     5A    -11.297493     6A    -11.278407
       7A    -11.233270     8A    -11.232999     9A    -11.222976
      10A     -1.404061    11A     -1.349088    12A     -1.250270
      13A     -1.075186    14A     -1.019445    15A     -0.950588
      16A     -0.906087    17A     -0.822033    18A     -0.794995
      19A     -0.742564    20A     -0.678676    21A     -0.647320
      22A     -0.633052    23A     -0.629575    24A     -0.597602
      25A     -0.581924    26A     -0.560792    27A     -0.556115
      28A     -0.551049    29A     -0.540253    30A     -0.527990
      31A     -0.520571    32A     -0.503735    33A     -0.493020
      34A     -0.444470    35A     -0.436213    36A     -0.402285

  @DF-RHF Final Energy:  -439.12995047464500

   => Energetics <=

    Nuclear Repulsion Energy =            486.4013848340293862
    One-Electron Energy =               -1563.2135607984323542
    Two-Electron Energy =                 637.6822254897579114
    Total Energy =                       -439.1299504746450566
  Basis Set: (AUG-CC-PVTZ AUX)
    Blend: AUG-CC-PVTZ-RI
    Molecular point group: c1

    Geometry (in Angstrom), charge = 0, multiplicity = 1:

       Center              X                  Y                   Z               Mass
    ------------   -----------------  -----------------  -----------------  -----------------
         O           -2.880207099678     0.456505030795    -0.306113981040    15.994914619570
         O           -0.526641099678     1.532434030795     0.053868018960    15.994914619570
         N            0.651675900322    -0.379631969205    -0.337036981040    14.003074004430
         C            1.960169900322     0.221889030795    -0.096705981040    12.000000000000
         C           -1.759635099678    -0.398883769205    -0.359794681040    12.000000000000
         C            3.002204900322    -0.512092969205    -0.925161981040    12.000000000000
         C            2.288424900322     0.226073030795     1.392217018960    12.000000000000
         C           -0.497734099678     0.318578030795    -0.195918981040    12.000000000000
         C           -1.976992099678    -1.517152969205     0.709238018960    12.000000000000
         H            1.874243900322     1.256184030795    -0.441205981040     1.007825032230
         H            0.598950900322    -1.387209969205    -0.437583981040     1.007825032230
         H           -1.791467099678    -0.933871969205    -1.362863981040     1.007825032230
         H            3.985874900322    -0.055827969205    -0.789218981040     1.007825032230
         H            3.076689900322    -1.560058969205    -0.612701981040     1.007825032230
         H            2.748334900322    -0.481861969205    -1.987152981040     1.007825032230
         H            1.517936900322     0.771250030795     1.942030018960     1.007825032230
         H            3.252824900322     0.709658030795     1.575203018960     1.007825032230
         H            2.339320900322    -0.798246969205     1.774773018960     1.007825032230
         H           -2.963632099678    -1.972341969205     0.606080018960     1.007825032230
         H           -1.913595099678    -1.048292969205     1.693897018960     1.007825032230
         H           -1.223886099678    -2.308506969205     0.641052018960     1.007825032230
         H           -2.403272099678     1.302223830795    -0.153741881040     1.007825032230

  Basis Set: AUG-CC-PVTZ
    Blend: AUG-CC-PVTZ
  Basis Set: (AUG-CC-PVTZ AUX)
    Blend: AUG-CC-PVTZ-JKFIT
	 Reference Energy          =    -439.1299504746449998 [Eh]
	 Singles Energy            =      -0.0000000000000000 [Eh]
	 Same-Spin Energy          =      -0.4467439319403420 [Eh]
	 Opposite-Spin Energy      =      -1.4648052375146285 [Eh]
	 Correlation Energy        =      -1.9115491694549704 [Eh]
	 Total Energy              =    -441.0414996440999857 [Eh]

	 ================> DF-SCS-MP2 Energies <==================
	-----------------------------------------------------------
	 SCS Same-Spin Scale       =       0.3333333333333333 [-]
	 SCS Opposite-Spin Scale   =       1.2000000000000000 [-]
	 SCS Same-Spin Energy      =      -0.1489146439801140 [Eh]
	 SCS Opposite-Spin Energy  =      -1.7577662850175542 [Eh]
	 SCS Correlation Energy    =      -1.9066809289976683 [Eh]
	 SCS Total Energy          =    -441.0366314036426729 [Eh]
	-----------------------------------------------------------

  Dipole Moment: [D]
     X:     3.5139      Y:    -3.0628      Z:    -0.1422     Total:     4.6635

*** Psi4 exiting successfully. Buy a developer a beer!
