                               Psi4 1.4a3.dev225

  ==> Input File <==

--------------------------------------------------------------------------
#psi4
#
memory 32 gb

molecule  {
0 1
  O        2.9110620    -0.5703060    -0.4523520
  O        0.5539390    -1.5540470     0.1662040
  N       -0.5943370     0.3369340    -0.3930300
  C       -1.8973478    -0.2226569    -0.1292988
  C        1.8655780     0.3788930    -0.3941620
  C       -2.9513150     0.5221750    -0.9483650
  C       -2.2232580    -0.2086170     1.3682650
  C        0.5443190    -0.3662470    -0.1910430
  C        2.1035320     1.3624180     0.7499890
  H       -1.8664900    -1.2716350    -0.4595930
  H       -0.5281980     1.3181660    -0.6377390
  H        1.8317100     0.9202690    -1.3505730
  H       -3.9433690     0.0896600    -0.7945050
  H       -2.9965010     1.5743390    -0.6446630
  H       -2.7149650     0.4749500    -2.0147890
  H       -1.4563020    -0.7629570     1.9136170
  H       -3.1950150    -0.6709470     1.5682930
  H       -2.2473660     0.8219210     1.7368640
  H        3.0888910     1.8183940     0.6312910
  H        2.0827360     0.8223960     1.7004970
  H        1.3487660     2.1553220     0.7756360
  H        2.4958040    -1.4028240    -0.1381920
units angstrom
no_reorient  #important for SAPT in psi4, default
symmetry c1  #important for SAPT in psi4, default
}

set PROPERTIES_ORIGIN ["COM"]
properties('MP2/aug-cc-pvtz', properties = ['dipole'])
--------------------------------------------------------------------------

    Molecular point group: c1
  Charge       = 0
  Multiplicity = 1
  Basis Set: AUG-CC-PVTZ
    Blend: AUG-CC-PVTZ
  Basis Set: (AUG-CC-PVTZ AUX)
    Blend: AUG-CC-PVTZ-JKFIT

    Orbital Energies [Eh]
    ---------------------

    Doubly Occupied:

       1A    -20.549232     2A    -20.532736     3A    -15.597435
       4A    -11.359081     5A    -11.298349     6A    -11.277285
       7A    -11.233223     8A    -11.230367     9A    -11.220498
      10A     -1.396955    11A     -1.346538    12A     -1.251289
      13A     -1.069905    14A     -1.023427    15A     -0.947933
      16A     -0.895514    17A     -0.822443    18A     -0.796635
      19A     -0.737985    20A     -0.678782    21A     -0.643333
      22A     -0.636362    23A     -0.628177    24A     -0.595341
      25A     -0.582568    26A     -0.571273    27A     -0.554355
      28A     -0.549809    29A     -0.537297    30A     -0.529375
      31A     -0.513440    32A     -0.499560    33A     -0.488695
      34A     -0.446966    35A     -0.432898    36A     -0.400907

  @DF-RHF Final Energy:  -439.13738189445831

   => Energetics <=

    Nuclear Repulsion Energy =            485.3127335212312801
    One-Electron Energy =               -1561.1482931393961735
    Two-Electron Energy =                 636.6981777237066353
    Total Energy =                       -439.1373818944583718
  Basis Set: (AUG-CC-PVTZ AUX)
    Blend: AUG-CC-PVTZ-RI
    Molecular point group: c1

    Geometry (in Angstrom), charge = 0, multiplicity = 1:

       Center              X                  Y                   Z               Mass
    ------------   -----------------  -----------------  -----------------  -----------------
         O            2.848250391772    -0.526551106367    -0.434716758361    15.994914619570
         O            0.491127391772    -1.510292106367     0.183839241639    15.994914619570
         N           -0.657148608228     0.380688893633    -0.375394758361    14.003074004430
         C           -1.960159408228    -0.178902006367    -0.111663558361    12.000000000000
         C            1.802766391772     0.422647893633    -0.376526758361    12.000000000000
         C           -3.014126608228     0.565929893633    -0.930729758361    12.000000000000
         C           -2.286069608228    -0.164862106367     1.385900241639    12.000000000000
         C            0.481507391772    -0.322492106367    -0.173407758361    12.000000000000
         C            2.040720391772     1.406172893633     0.767624241639    12.000000000000
         H           -1.929301608228    -1.227880106367    -0.441957758361     1.007825032230
         H           -0.591009608228     1.361920893633    -0.620103758361     1.007825032230
         H            1.768898391772     0.964023893633    -1.332937758361     1.007825032230
         H           -4.006180608228     0.133414893633    -0.776869758361     1.007825032230
         H           -3.059312608228     1.618093893633    -0.627027758361     1.007825032230
         H           -2.777776608228     0.518704893633    -1.997153758361     1.007825032230
         H           -1.519113608228    -0.719202106367     1.931252241639     1.007825032230
         H           -3.257826608228    -0.627192106367     1.585928241639     1.007825032230
         H           -2.310177608228     0.865675893633     1.754499241639     1.007825032230
         H            3.026079391772     1.862148893633     0.648926241639     1.007825032230
         H            2.019924391772     0.866150893633     1.718132241639     1.007825032230
         H            1.285954391772     2.199076893633     0.793271241639     1.007825032230
         H            2.432992391772    -1.359069106367    -0.120556758361     1.007825032230

  Basis Set: AUG-CC-PVTZ
    Blend: AUG-CC-PVTZ
  Basis Set: (AUG-CC-PVTZ AUX)
    Blend: AUG-CC-PVTZ-JKFIT
	 Reference Energy          =    -439.1373818944583149 [Eh]
	 Singles Energy            =      -0.0000000000000000 [Eh]
	 Same-Spin Energy          =      -0.4460019596932520 [Eh]
	 Opposite-Spin Energy      =      -1.4637995456586230 [Eh]
	 Correlation Energy        =      -1.9098015053518749 [Eh]
	 Total Energy              =    -441.0471833998101943 [Eh]

	 ================> DF-SCS-MP2 Energies <==================
	-----------------------------------------------------------
	 SCS Same-Spin Scale       =       0.3333333333333333 [-]
	 SCS Opposite-Spin Scale   =       1.2000000000000000 [-]
	 SCS Same-Spin Energy      =      -0.1486673198977506 [Eh]
	 SCS Opposite-Spin Energy  =      -1.7565594547903476 [Eh]
	 SCS Correlation Energy    =      -1.9052267746880982 [Eh]
	 SCS Total Energy          =    -441.0426086691464320 [Eh]
	-----------------------------------------------------------

  Dipole Moment: [D]
     X:    -3.3145      Y:     3.1301      Z:    -0.1954     Total:     4.5631

*** Psi4 exiting successfully. Buy a developer a beer!
