                               Psi4 1.3.2 release

  ==> Input File <==

--------------------------------------------------------------------------
#psi4
#
memory 32 gb

molecule  {
0 1
  O       -2.8756320     0.4615000    -0.3051040
  O       -0.5220660     1.5374290     0.0548780
  N        0.6480354    -0.3524469    -0.3454851
  C        1.9647450     0.2268840    -0.0956960
  C       -1.8012180    -0.4504720    -0.3698720
  C        3.0067800    -0.5070980    -0.9241520
  C        2.2930000     0.2310680     1.3932270
  C       -0.4931590     0.3235730    -0.1949090
  C       -1.9724170    -1.5121580     0.7102480
  H        1.8606658     1.2578707    -0.4450721
  H        0.6035260    -1.3822150    -0.4365740
  H       -1.7868920    -0.9288770    -1.3618540
  H        3.9904500    -0.0508330    -0.7882090
  H        3.0812650    -1.5550640    -0.6116920
  H        2.7529100    -0.4768670    -1.9861430
  H        1.5225120     0.7762450     1.9430400
  H        3.2574000     0.7146530     1.5762130
  H        2.3438960    -0.7932520     1.7757830
  H       -2.9590570    -1.9673470     0.6070900
  H       -1.9090200    -1.0432980     1.6949070
  H       -1.2193110    -2.3035120     0.6420620
  H       -2.4442120     1.3312090    -0.1521090
units angstrom
no_reorient  #important for SAPT in psi4, default
symmetry c1  #important for SAPT in psi4, default
}

set PROPERTIES_ORIGIN ["COM"]
properties('MP2/aug-cc-pvtz', properties = ['dipole'])
--------------------------------------------------------------------------

    Molecular point group: c1
  Charge       = 0
  Multiplicity = 1
  Basis Set: AUG-CC-PVTZ
    Blend: AUG-CC-PVTZ
  Basis Set: (AUG-CC-PVTZ AUX)
    Blend: AUG-CC-PVTZ-JKFIT

    Orbital Energies [Eh]
    ---------------------

    Doubly Occupied:

       1A    -20.547253     2A    -20.529070     3A    -15.597656
       4A    -11.355344     5A    -11.296942     6A    -11.277880
       7A    -11.233330     8A    -11.230575     9A    -11.223328
      10A     -1.397095    11A     -1.345626    12A     -1.248983
      13A     -1.073660    14A     -1.023959    15A     -0.950602
      16A     -0.895469    17A     -0.823638    18A     -0.793035
      19A     -0.736758    20A     -0.677861    21A     -0.648492
      22A     -0.630947    23A     -0.629781    24A     -0.596973
      25A     -0.581442    26A     -0.567155    27A     -0.555716
      28A     -0.549357    29A     -0.539683    30A     -0.530688
      31A     -0.510355    32A     -0.503027    33A     -0.492443
      34A     -0.444456    35A     -0.433366    36A     -0.401666

  @DF-RHF Final Energy:  -439.13682289051462

   => Energetics <=

    Nuclear Repulsion Energy =            485.6141853758243201
    One-Electron Energy =               -1561.7547918720963480
    Two-Electron Energy =                 637.0037836057574623
    Total Energy =                       -439.1368228905146225
  Basis Set: (AUG-CC-PVTZ AUX)
    Blend: AUG-CC-PVTZ-RI
    Molecular point group: c1

    Geometry (in Angstrom), charge = 0, multiplicity = 1:

       Center              X                  Y                   Z               Mass
    ------------   -----------------  -----------------  -----------------  -----------------
         O           -2.874614909762     0.459155216043    -0.304056104540    15.994914619570
         O           -0.521048909762     1.535084216043     0.055925895460    15.994914619570
         N            0.649052490238    -0.354791683957    -0.344437204540    14.003074004430
         C            1.965762090238     0.224539216043    -0.094648104540    12.000000000000
         C           -1.800200909762    -0.452816783957    -0.368824104540    12.000000000000
         C            3.007797090238    -0.509442783957    -0.923104104540    12.000000000000
         C            2.294017090238     0.228723216043     1.394274895460    12.000000000000
         C           -0.492141909762     0.321228216043    -0.193861104540    12.000000000000
         C           -1.971399909762    -1.514502783957     0.711295895460    12.000000000000
         H            1.861682890238     1.255525916043    -0.444024204540     1.007825032230
         H            0.604543090238    -1.384559783957    -0.435526104540     1.007825032230
         H           -1.785874909762    -0.931221783957    -1.360806104540     1.007825032230
         H            3.991467090238    -0.053177783957    -0.787161104540     1.007825032230
         H            3.082282090238    -1.557408783957    -0.610644104540     1.007825032230
         H            2.753927090238    -0.479211783957    -1.985095104540     1.007825032230
         H            1.523529090238     0.773900216043     1.944087895460     1.007825032230
         H            3.258417090238     0.712308216043     1.577260895460     1.007825032230
         H            2.344913090238    -0.795596783957     1.776830895460     1.007825032230
         H           -2.958039909762    -1.969691783957     0.608137895460     1.007825032230
         H           -1.908002909762    -1.045642783957     1.695954895460     1.007825032230
         H           -1.218293909762    -2.305856783957     0.643109895460     1.007825032230
         H           -2.443194909762     1.328864216043    -0.151061104540     1.007825032230

  Basis Set: AUG-CC-PVTZ
    Blend: AUG-CC-PVTZ
  Basis Set: (AUG-CC-PVTZ AUX)
    Blend: AUG-CC-PVTZ-JKFIT
	 Reference Energy          =    -439.1368228905146225 [Eh]
	 Singles Energy            =      -0.0000000000000000 [Eh]
	 Same-Spin Energy          =      -0.4461442210638576 [Eh]
	 Opposite-Spin Energy      =      -1.4637159954634174 [Eh]
	 Correlation Energy        =      -1.9098602165272749 [Eh]
	 Total Energy              =    -441.0466831070418721 [Eh]

	 ================> DF-SCS-MP2 Energies <==================
	-----------------------------------------------------------
	 SCS Same-Spin Scale       =       0.3333333333333333 [-]
	 SCS Opposite-Spin Scale   =       1.2000000000000000 [-]
	 SCS Same-Spin Energy      =      -0.1487147403546192 [Eh]
	 SCS Opposite-Spin Energy  =      -1.7564591945561008 [Eh]
	 SCS Correlation Energy    =      -1.9051739349107200 [Eh]
	 SCS Total Energy          =    -441.0419968254253149 [Eh]
	-----------------------------------------------------------

  Dipole Moment: [D]
     X:     3.5358      Y:    -3.1195      Z:    -0.1308     Total:     4.7170

*** Psi4 exiting successfully. Buy a developer a beer!
