                               Psi4 1.3.2 release

  ==> Input File <==

--------------------------------------------------------------------------
#psi4
#
memory 32 gb

molecule  {
0 1
  O       -2.8756320     0.4615000    -0.3051040
  O       -0.5220660     1.5374290     0.0548780
  N        0.6562510    -0.3746370    -0.3360270
  C        1.9647450     0.2268840    -0.0956960
  C       -1.8012180    -0.4504720    -0.3698720
  C        3.0067800    -0.5070980    -0.9241520
  C        2.2930000     0.2310680     1.3932270
  C       -0.4931590     0.3235730    -0.1949090
  C       -1.9948813    -1.6514698     0.8519787
  H        1.8788190     1.2611790    -0.4401960
  H        0.6035260    -1.3822150    -0.4365740
  H       -1.7868920    -0.9288770    -1.3618540
  H        3.9904500    -0.0508330    -0.7882090
  H        3.0812650    -1.5550640    -0.6116920
  H        2.7529100    -0.4768670    -1.9861430
  H        1.5225120     0.7762450     1.9430400
  H        3.2574000     0.7146530     1.5762130
  H        2.3438960    -0.7932520     1.7757830
  H       -2.9590570    -1.9673470     0.6070900
  H       -1.9090200    -1.0432980     1.6949070
  H       -1.2193110    -2.3035120     0.6420620
  H       -2.4442120     1.3312090    -0.1521090
units angstrom
no_reorient  #important for SAPT in psi4, default
symmetry c1  #important for SAPT in psi4, default
}

set PROPERTIES_ORIGIN ["COM"]
properties('MP2/aug-cc-pvtz', properties = ['dipole'])
--------------------------------------------------------------------------

    Molecular point group: c1
  Charge       = 0
  Multiplicity = 1
  Basis Set: AUG-CC-PVTZ
    Blend: AUG-CC-PVTZ
  Basis Set: (AUG-CC-PVTZ AUX)
    Blend: AUG-CC-PVTZ-JKFIT

    Orbital Energies [Eh]
    ---------------------

    Doubly Occupied:

       1A    -20.549183     2A    -20.531294     3A    -15.595071
       4A    -11.357610     5A    -11.303326     6A    -11.276946
       7A    -11.232110     8A    -11.230168     9A    -11.222160
      10A     -1.395682    11A     -1.344191    12A     -1.247066
      13A     -1.068075    14A     -1.005278    15A     -0.949700
      16A     -0.904620    17A     -0.822499    18A     -0.794657
      19A     -0.732152    20A     -0.676346    21A     -0.646547
      22A     -0.629059    23A     -0.627639    24A     -0.603635
      25A     -0.589974    26A     -0.569982    27A     -0.564999
      28A     -0.554222    29A     -0.541632    30A     -0.529698
      31A     -0.510807    32A     -0.502133    33A     -0.491214
      34A     -0.437290    35A     -0.415482    36A     -0.397667

  @DF-RHF Final Energy:  -439.11138898328807

   => Energetics <=

    Nuclear Repulsion Energy =            482.0639294351536819
    One-Electron Energy =               -1554.6504026325774248
    Two-Electron Energy =                 633.4750842141357907
    Total Energy =                       -439.1113889832880659
  Basis Set: (AUG-CC-PVTZ AUX)
    Blend: AUG-CC-PVTZ-RI
    Molecular point group: c1

    Geometry (in Angstrom), charge = 0, multiplicity = 1:

       Center              X                  Y                   Z               Mass
    ------------   -----------------  -----------------  -----------------  -----------------
         O           -2.873575716186     0.474252226844    -0.318077465664    15.994914619570
         O           -0.520009716186     1.550181226844     0.041904534336    15.994914619570
         N            0.658307283814    -0.361884773156    -0.349000465664    14.003074004430
         C            1.966801283814     0.239636226844    -0.108669465664    12.000000000000
         C           -1.799161716186    -0.437719773156    -0.382845465664    12.000000000000
         C            3.008836283814    -0.494345773156    -0.937125465664    12.000000000000
         C            2.295056283814     0.243820226844     1.380253534336    12.000000000000
         C           -0.491102716186     0.336325226844    -0.207882465664    12.000000000000
         C           -1.992825016186    -1.638717573156     0.839005234336    12.000000000000
         H            1.880875283814     1.273931226844    -0.453169465664     1.007825032230
         H            0.605582283814    -1.369462773156    -0.449547465664     1.007825032230
         H           -1.784835716186    -0.916124773156    -1.374827465664     1.007825032230
         H            3.992506283814    -0.038080773156    -0.801182465664     1.007825032230
         H            3.083321283814    -1.542311773156    -0.624665465664     1.007825032230
         H            2.754966283814    -0.464114773156    -1.999116465664     1.007825032230
         H            1.524568283814     0.788997226844     1.930066534336     1.007825032230
         H            3.259456283814     0.727405226844     1.563239534336     1.007825032230
         H            2.345952283814    -0.780499773156     1.762809534336     1.007825032230
         H           -2.957000716186    -1.954594773156     0.594116534336     1.007825032230
         H           -1.906963716186    -1.030545773156     1.681933534336     1.007825032230
         H           -1.217254716186    -2.290759773156     0.629088534336     1.007825032230
         H           -2.442155716186     1.343961226844    -0.165082465664     1.007825032230

  Basis Set: AUG-CC-PVTZ
    Blend: AUG-CC-PVTZ
  Basis Set: (AUG-CC-PVTZ AUX)
    Blend: AUG-CC-PVTZ-JKFIT
	 Reference Energy          =    -439.1113889832880659 [Eh]
	 Singles Energy            =      -0.0000000000000000 [Eh]
	 Same-Spin Energy          =      -0.4461437491671618 [Eh]
	 Opposite-Spin Energy      =      -1.4650643206389296 [Eh]
	 Correlation Energy        =      -1.9112080698060914 [Eh]
	 Total Energy              =    -441.0225970530941595 [Eh]

	 ================> DF-SCS-MP2 Energies <==================
	-----------------------------------------------------------
	 SCS Same-Spin Scale       =       0.3333333333333333 [-]
	 SCS Opposite-Spin Scale   =       1.2000000000000000 [-]
	 SCS Same-Spin Energy      =      -0.1487145830557206 [Eh]
	 SCS Opposite-Spin Energy  =      -1.7580771847667154 [Eh]
	 SCS Correlation Energy    =      -1.9067917678224360 [Eh]
	 SCS Total Energy          =    -441.0181807511104921 [Eh]
	-----------------------------------------------------------

  Dipole Moment: [D]
     X:     3.4226      Y:    -2.9618      Z:    -0.2372     Total:     4.5324

*** Psi4 exiting successfully. Buy a developer a beer!
