                               Psi4 1.3.2 release

  ==> Input File <==

--------------------------------------------------------------------------
#psi4
#
memory 32 gb

molecule  {
0 1
  O       -2.8756320     0.4615000    -0.3051040
  O       -0.5220660     1.5374290     0.0548780
  N        0.6804085    -0.3350208    -0.3273791
  C        1.9647450     0.2268840    -0.0956960
  C       -1.8281139    -0.4053181    -0.3604056
  C        3.0067800    -0.5070980    -0.9241520
  C        2.2930000     0.2310680     1.3932270
  C       -0.4931590     0.3235730    -0.1949090
  C       -1.9724170    -1.5121580     0.7102480
  H        1.8788190     1.2611790    -0.4401960
  H        0.6035260    -1.3822150    -0.4365740
  H       -1.7868920    -0.9288770    -1.3618540
  H        3.9904500    -0.0508330    -0.7882090
  H        3.0812650    -1.5550640    -0.6116920
  H        2.7529100    -0.4768670    -1.9861430
  H        1.5225120     0.7762450     1.9430400
  H        3.2574000     0.7146530     1.5762130
  H        2.3438960    -0.7932520     1.7757830
  H       -2.9590570    -1.9673470     0.6070900
  H       -1.9090200    -1.0432980     1.6949070
  H       -1.2193110    -2.3035120     0.6420620
  H       -2.4442120     1.3312090    -0.1521090
units angstrom
no_reorient  #important for SAPT in psi4, default
symmetry c1  #important for SAPT in psi4, default
}

set PROPERTIES_ORIGIN ["COM"]
properties('MP2/aug-cc-pvtz', properties = ['dipole'])
--------------------------------------------------------------------------

    Molecular point group: c1
  Charge       = 0
  Multiplicity = 1
  Basis Set: AUG-CC-PVTZ
    Blend: AUG-CC-PVTZ
  Basis Set: (AUG-CC-PVTZ AUX)
    Blend: AUG-CC-PVTZ-JKFIT

    Orbital Energies [Eh]
    ---------------------

    Doubly Occupied:

       1A    -20.555076     2A    -20.529820     3A    -15.597920
       4A    -11.357088     5A    -11.301519     6A    -11.273789
       7A    -11.231706     8A    -11.230660     9A    -11.220528
      10A     -1.406057    11A     -1.363024    12A     -1.249880
      13A     -1.069391    14A     -1.019214    15A     -0.949227
      16A     -0.895632    17A     -0.826858    18A     -0.785058
      19A     -0.747428    20A     -0.680306    21A     -0.651128
      22A     -0.631824    23A     -0.631053    24A     -0.594134
      25A     -0.589796    26A     -0.567722    27A     -0.554538
      28A     -0.548586    29A     -0.544217    30A     -0.530922
      31A     -0.514252    32A     -0.502670    33A     -0.489945
      34A     -0.438713    35A     -0.433283    36A     -0.396902

  @DF-RHF Final Energy:  -439.13113619222207

   => Energetics <=

    Nuclear Repulsion Energy =            486.0986422420943995
    One-Electron Energy =               -1562.6398239627667408
    Two-Electron Energy =                 637.4100455284501550
    Total Energy =                       -439.1311361922221295
  Basis Set: (AUG-CC-PVTZ AUX)
    Blend: AUG-CC-PVTZ-RI
    Molecular point group: c1

    Geometry (in Angstrom), charge = 0, multiplicity = 1:

       Center              X                  Y                   Z               Mass
    ------------   -----------------  -----------------  -----------------  -----------------
         O           -2.875750481569     0.453135137543    -0.306894136253    15.994914619570
         O           -0.522184481569     1.529064137543     0.053087863747    15.994914619570
         N            0.680290018431    -0.343385662457    -0.329169236253    14.003074004430
         C            1.964626518431     0.218519137543    -0.097486136253    12.000000000000
         C           -1.828232381569    -0.413682962457    -0.362195736253    12.000000000000
         C            3.006661518431    -0.515462862457    -0.925942136253    12.000000000000
         C            2.292881518431     0.222703137543     1.391436863747    12.000000000000
         C           -0.493277481569     0.315208137543    -0.196699136253    12.000000000000
         C           -1.972535481569    -1.520522862457     0.708457863747    12.000000000000
         H            1.878700518431     1.252814137543    -0.441986136253     1.007825032230
         H            0.603407518431    -1.390579862457    -0.438364136253     1.007825032230
         H           -1.787010481569    -0.937241862457    -1.363644136253     1.007825032230
         H            3.990331518431    -0.059197862457    -0.789999136253     1.007825032230
         H            3.081146518431    -1.563428862457    -0.613482136253     1.007825032230
         H            2.752791518431    -0.485231862457    -1.987933136253     1.007825032230
         H            1.522393518431     0.767880137543     1.941249863747     1.007825032230
         H            3.257281518431     0.706288137543     1.574422863747     1.007825032230
         H            2.343777518431    -0.801616862457     1.773992863747     1.007825032230
         H           -2.959175481569    -1.975711862457     0.605299863747     1.007825032230
         H           -1.909138481569    -1.051662862457     1.693116863747     1.007825032230
         H           -1.219429481569    -2.311876862457     0.640271863747     1.007825032230
         H           -2.444330481569     1.322844137543    -0.153899136253     1.007825032230

  Basis Set: AUG-CC-PVTZ
    Blend: AUG-CC-PVTZ
  Basis Set: (AUG-CC-PVTZ AUX)
    Blend: AUG-CC-PVTZ-JKFIT
	 Reference Energy          =    -439.1311361922220726 [Eh]
	 Singles Energy            =      -0.0000000000000000 [Eh]
	 Same-Spin Energy          =      -0.4466138961169913 [Eh]
	 Opposite-Spin Energy      =      -1.4637094716090786 [Eh]
	 Correlation Energy        =      -1.9103233677260700 [Eh]
	 Total Energy              =    -441.0414595599481231 [Eh]

	 ================> DF-SCS-MP2 Energies <==================
	-----------------------------------------------------------
	 SCS Same-Spin Scale       =       0.3333333333333333 [-]
	 SCS Opposite-Spin Scale   =       1.2000000000000000 [-]
	 SCS Same-Spin Energy      =      -0.1488712987056638 [Eh]
	 SCS Opposite-Spin Energy  =      -1.7564513659308942 [Eh]
	 SCS Correlation Energy    =      -1.9053226646365580 [Eh]
	 SCS Total Energy          =    -441.0364588568586441 [Eh]
	-----------------------------------------------------------

  Dipole Moment: [D]
     X:     3.2422      Y:    -2.9722      Z:    -0.1682     Total:     4.4016

*** Psi4 exiting successfully. Buy a developer a beer!
