                               Psi4 1.3.2 release

  ==> Input File <==

--------------------------------------------------------------------------
#psi4
#
memory 32 gb

molecule  {
0 1
  O       -2.8756320     0.4615000    -0.3051040
  O       -0.5220660     1.5374290     0.0548780
  N        0.6562510    -0.3746370    -0.3360270
  C        1.9647450     0.2268840    -0.0956960
  C       -1.8012180    -0.4504720    -0.3698720
  C        3.0067800    -0.5070980    -0.9241520
  C        2.2930000     0.2310680     1.3932270
  C       -0.4931590     0.3235730    -0.1949090
  C       -1.9611848    -1.4425021     0.6393827
  H        1.8788190     1.2611790    -0.4401960
  H        0.6035260    -1.3822150    -0.4365740
  H       -1.7868920    -0.9288770    -1.3618540
  H        3.9904500    -0.0508330    -0.7882090
  H        3.0812650    -1.5550640    -0.6116920
  H        2.7529100    -0.4768670    -1.9861430
  H        1.5225120     0.7762450     1.9430400
  H        3.2574000     0.7146530     1.5762130
  H        2.3438960    -0.7932520     1.7757830
  H       -2.9590570    -1.9673470     0.6070900
  H       -1.9090200    -1.0432980     1.6949070
  H       -1.2193110    -2.3035120     0.6420620
  H       -2.4442120     1.3312090    -0.1521090
units angstrom
no_reorient  #important for SAPT in psi4, default
symmetry c1  #important for SAPT in psi4, default
}

set PROPERTIES_ORIGIN ["COM"]
properties('MP2/aug-cc-pvtz', properties = ['dipole'])
--------------------------------------------------------------------------

    Molecular point group: c1
  Charge       = 0
  Multiplicity = 1
  Basis Set: AUG-CC-PVTZ
    Blend: AUG-CC-PVTZ
  Basis Set: (AUG-CC-PVTZ AUX)
    Blend: AUG-CC-PVTZ-JKFIT

    Orbital Energies [Eh]
    ---------------------

    Doubly Occupied:

       1A    -20.547651     2A    -20.533146     3A    -15.595985
       4A    -11.358935     5A    -11.292859     6A    -11.277367
       7A    -11.235642     8A    -11.232391     9A    -11.222322
      10A     -1.398601    11A     -1.347750    12A     -1.248547
      13A     -1.077952    14A     -1.036675    15A     -0.949916
      16A     -0.889490    17A     -0.821800    18A     -0.794904
      19A     -0.739913    20A     -0.681698    21A     -0.653999
      22A     -0.637562    23A     -0.629054    24A     -0.597089
      25A     -0.593591    26A     -0.564069    27A     -0.555083
      28A     -0.540145    29A     -0.535367    30A     -0.517651
      31A     -0.508466    32A     -0.502997    33A     -0.491306
      34A     -0.453589    35A     -0.431688    36A     -0.401888

  @DF-RHF Final Energy:  -439.12599391698848

   => Energetics <=

    Nuclear Repulsion Energy =            487.1022845584737979
    One-Electron Energy =               -1564.6623753375265551
    Two-Electron Energy =                 638.4340968620641661
    Total Energy =                       -439.1259939169884774
  Basis Set: (AUG-CC-PVTZ AUX)
    Blend: AUG-CC-PVTZ-RI
    Molecular point group: c1

    Geometry (in Angstrom), charge = 0, multiplicity = 1:

       Center              X                  Y                   Z               Mass
    ------------   -----------------  -----------------  -----------------  -----------------
         O           -2.876660190387     0.455123964873    -0.298617080246    15.994914619570
         O           -0.523094190387     1.531052964873     0.061364919754    15.994914619570
         N            0.655222809613    -0.381013035127    -0.329540080246    14.003074004430
         C            1.963716809613     0.220507964873    -0.089209080246    12.000000000000
         C           -1.802246190387    -0.456848035127    -0.363385080246    12.000000000000
         C            3.005751809613    -0.513474035127    -0.917665080246    12.000000000000
         C            2.291971809613     0.224691964873     1.399713919754    12.000000000000
         C           -0.494187190387     0.317196964873    -0.188422080246    12.000000000000
         C           -1.962212990387    -1.448878135127     0.645869619754    12.000000000000
         H            1.877790809613     1.254802964873    -0.433709080246     1.007825032230
         H            0.602497809613    -1.388591035127    -0.430087080246     1.007825032230
         H           -1.787920190387    -0.935253035127    -1.355367080246     1.007825032230
         H            3.989421809613    -0.057209035127    -0.781722080246     1.007825032230
         H            3.080236809613    -1.561440035127    -0.605205080246     1.007825032230
         H            2.751881809613    -0.483243035127    -1.979656080246     1.007825032230
         H            1.521483809613     0.769868964873     1.949526919754     1.007825032230
         H            3.256371809613     0.708276964873     1.582699919754     1.007825032230
         H            2.342867809613    -0.799628035127     1.782269919754     1.007825032230
         H           -2.960085190387    -1.973723035127     0.613576919754     1.007825032230
         H           -1.910048190387    -1.049674035127     1.701393919754     1.007825032230
         H           -1.220339190387    -2.309888035127     0.648548919754     1.007825032230
         H           -2.445240190387     1.324832964873    -0.145622080246     1.007825032230

  Basis Set: AUG-CC-PVTZ
    Blend: AUG-CC-PVTZ
  Basis Set: (AUG-CC-PVTZ AUX)
    Blend: AUG-CC-PVTZ-JKFIT
	 Reference Energy          =    -439.1259939169884774 [Eh]
	 Singles Energy            =      -0.0000000000000000 [Eh]
	 Same-Spin Energy          =      -0.4470864706186758 [Eh]
	 Opposite-Spin Energy      =      -1.4648805128880615 [Eh]
	 Correlation Energy        =      -1.9119669835067374 [Eh]
	 Total Energy              =    -441.0379609004951931 [Eh]

	 ================> DF-SCS-MP2 Energies <==================
	-----------------------------------------------------------
	 SCS Same-Spin Scale       =       0.3333333333333333 [-]
	 SCS Opposite-Spin Scale   =       1.2000000000000000 [-]
	 SCS Same-Spin Energy      =      -0.1490288235395586 [Eh]
	 SCS Opposite-Spin Energy  =      -1.7578566154656738 [Eh]
	 SCS Correlation Energy    =      -1.9068854390052326 [Eh]
	 SCS Total Energy          =    -441.0328793559937139 [Eh]
	-----------------------------------------------------------

  Dipole Moment: [D]
     X:     3.4802      Y:    -3.0805      Z:    -0.1195     Total:     4.6492

*** Psi4 exiting successfully. Buy a developer a beer!
