                               Psi4 1.3.2 release

  ==> Input File <==

--------------------------------------------------------------------------
#psi4
#
memory 32 gb

molecule  {
0 1
  O       -2.8756320     0.4615000    -0.3051040
  O       -0.5220660     1.5374290     0.0548780
  N        0.6562510    -0.3746370    -0.3360270
  C        1.9864125     0.1822637    -0.1073898
  C       -1.8012180    -0.4504720    -0.3698720
  C        3.0067800    -0.5070980    -0.9241520
  C        2.2930000     0.2310680     1.3932270
  C       -0.5172083     0.2848837    -0.2072614
  C       -1.9724170    -1.5121580     0.7102480
  H        1.8788190     1.2611790    -0.4401960
  H        0.6035260    -1.3822150    -0.4365740
  H       -1.7868920    -0.9288770    -1.3618540
  H        3.9904500    -0.0508330    -0.7882090
  H        3.0812650    -1.5550640    -0.6116920
  H        2.7529100    -0.4768670    -1.9861430
  H        1.5225120     0.7762450     1.9430400
  H        3.2574000     0.7146530     1.5762130
  H        2.3438960    -0.7932520     1.7757830
  H       -2.9590570    -1.9673470     0.6070900
  H       -1.9090200    -1.0432980     1.6949070
  H       -1.2193110    -2.3035120     0.6420620
  H       -2.4442120     1.3312090    -0.1521090
units angstrom
no_reorient  #important for SAPT in psi4, default
symmetry c1  #important for SAPT in psi4, default
}

set PROPERTIES_ORIGIN ["COM"]
properties('MP2/aug-cc-pvtz', properties = ['dipole'])
--------------------------------------------------------------------------

    Molecular point group: c1
  Charge       = 0
  Multiplicity = 1
  Basis Set: AUG-CC-PVTZ
    Blend: AUG-CC-PVTZ
  Basis Set: (AUG-CC-PVTZ AUX)
    Blend: AUG-CC-PVTZ-JKFIT

    Orbital Energies [Eh]
    ---------------------

    Doubly Occupied:

       1A    -20.549327     2A    -20.526768     3A    -15.599277
       4A    -11.362233     5A    -11.299500     6A    -11.280158
       7A    -11.233509     8A    -11.232492     9A    -11.222837
      10A     -1.384565    11A     -1.338930    12A     -1.244205
      13A     -1.080105    14A     -1.030212    15A     -0.952955
      16A     -0.904382    17A     -0.822636    18A     -0.790936
      19A     -0.739902    20A     -0.677479    21A     -0.650151
      22A     -0.633195    23A     -0.626713    24A     -0.592237
      25A     -0.582857    26A     -0.569613    27A     -0.555135
      28A     -0.549471    29A     -0.540090    30A     -0.526464
      31A     -0.511094    32A     -0.507062    33A     -0.478865
      34A     -0.446261    35A     -0.436435    36A     -0.398000

  @DF-RHF Final Energy:  -439.12689621346726

   => Energetics <=

    Nuclear Repulsion Energy =            485.1782630056619041
    One-Electron Energy =               -1560.8582149931180538
    Two-Electron Energy =                 636.5530557739889446
    Total Energy =                       -439.1268962134672620
  Basis Set: (AUG-CC-PVTZ AUX)
    Blend: AUG-CC-PVTZ-RI
    Molecular point group: c1

    Geometry (in Angstrom), charge = 0, multiplicity = 1:

       Center              X                  Y                   Z               Mass
    ------------   -----------------  -----------------  -----------------  -----------------
         O           -2.875414006607     0.469125957318    -0.302902756979    15.994914619570
         O           -0.521848006607     1.545054957318     0.057079243021    15.994914619570
         N            0.656468993393    -0.367011042682    -0.333825756979    14.003074004430
         C            1.986630493393     0.189889657318    -0.105188556979    12.000000000000
         C           -1.801000006607    -0.442846042682    -0.367670756979    12.000000000000
         C            3.006997993393    -0.499472042682    -0.921950756979    12.000000000000
         C            2.293217993393     0.238693957318     1.395428243021    12.000000000000
         C           -0.516990306607     0.292509657318    -0.205060156979    12.000000000000
         C           -1.972199006607    -1.504532042682     0.712449243021    12.000000000000
         H            1.879036993393     1.268804957318    -0.437994756979     1.007825032230
         H            0.603743993393    -1.374589042682    -0.434372756979     1.007825032230
         H           -1.786674006607    -0.921251042682    -1.359652756979     1.007825032230
         H            3.990667993393    -0.043207042682    -0.786007756979     1.007825032230
         H            3.081482993393    -1.547438042682    -0.609490756979     1.007825032230
         H            2.753127993393    -0.469241042682    -1.983941756979     1.007825032230
         H            1.522729993393     0.783870957318     1.945241243021     1.007825032230
         H            3.257617993393     0.722278957318     1.578414243021     1.007825032230
         H            2.344113993393    -0.785626042682     1.777984243021     1.007825032230
         H           -2.958839006607    -1.959721042682     0.609291243021     1.007825032230
         H           -1.908802006607    -1.035672042682     1.697108243021     1.007825032230
         H           -1.219093006607    -2.295886042682     0.644263243021     1.007825032230
         H           -2.443994006607     1.338834957318    -0.149907756979     1.007825032230

  Basis Set: AUG-CC-PVTZ
    Blend: AUG-CC-PVTZ
  Basis Set: (AUG-CC-PVTZ AUX)
    Blend: AUG-CC-PVTZ-JKFIT
	 Reference Energy          =    -439.1268962134672620 [Eh]
	 Singles Energy            =      -0.0000000000000000 [Eh]
	 Same-Spin Energy          =      -0.4475383546996680 [Eh]
	 Opposite-Spin Energy      =      -1.4663269040067970 [Eh]
	 Correlation Energy        =      -1.9138652587064651 [Eh]
	 Total Energy              =    -441.0407614721736991 [Eh]

	 ================> DF-SCS-MP2 Energies <==================
	-----------------------------------------------------------
	 SCS Same-Spin Scale       =       0.3333333333333333 [-]
	 SCS Opposite-Spin Scale   =       1.2000000000000000 [-]
	 SCS Same-Spin Energy      =      -0.1491794515665560 [Eh]
	 SCS Opposite-Spin Energy  =      -1.7595922848081564 [Eh]
	 SCS Correlation Energy    =      -1.9087717363747125 [Eh]
	 SCS Total Energy          =    -441.0356679498419794 [Eh]
	-----------------------------------------------------------

  Dipole Moment: [D]
     X:     3.4513      Y:    -3.2784      Z:    -0.1947     Total:     4.7642

*** Psi4 exiting successfully. Buy a developer a beer!
