                               Psi4 1.4a3.dev225

  ==> Input File <==

--------------------------------------------------------------------------
#psi4
#
memory 32 gb

molecule  {
0 1
  O        2.9110620    -0.5703060    -0.4523520
  O        0.5539390    -1.5540470     0.1662040
  N       -0.5943370     0.3369340    -0.3930300
  C       -1.9154150    -0.2304160    -0.1256420
  C        1.8655780     0.3788930    -0.3941620
  C       -2.9513150     0.5221750    -0.9483650
  C       -2.2232580    -0.2086170     1.3682650
  C        0.5447068    -0.4141268    -0.1766425
  C        2.1035320     1.3624180     0.7499890
  H       -1.8664900    -1.2716350    -0.4595930
  H       -0.5281980     1.3181660    -0.6377390
  H        1.8317100     0.9202690    -1.3505730
  H       -3.9433690     0.0896600    -0.7945050
  H       -2.9965010     1.5743390    -0.6446630
  H       -2.7149650     0.4749500    -2.0147890
  H       -1.4563020    -0.7629570     1.9136170
  H       -3.1950150    -0.6709470     1.5682930
  H       -2.2473660     0.8219210     1.7368640
  H        3.0888910     1.8183940     0.6312910
  H        2.0827360     0.8223960     1.7004970
  H        1.3487660     2.1553220     0.7756360
  H        2.4958040    -1.4028240    -0.1381920
units angstrom
no_reorient  #important for SAPT in psi4, default
symmetry c1  #important for SAPT in psi4, default
}

set PROPERTIES_ORIGIN ["COM"]
properties('MP2/aug-cc-pvtz', properties = ['dipole'])
--------------------------------------------------------------------------

    Molecular point group: c1
  Charge       = 0
  Multiplicity = 1
  Basis Set: AUG-CC-PVTZ
    Blend: AUG-CC-PVTZ
  Basis Set: (AUG-CC-PVTZ AUX)
    Blend: AUG-CC-PVTZ-JKFIT

    Orbital Energies [Eh]
    ---------------------

    Doubly Occupied:

       1A    -20.548618     2A    -20.542126     3A    -15.588308
       4A    -11.356832     5A    -11.295989     6A    -11.274559
       7A    -11.231089     8A    -11.228366     9A    -11.219551
      10A     -1.423944    11A     -1.351286    12A     -1.240546
      13A     -1.064955    14A     -1.019330    15A     -0.947667
      16A     -0.887631    17A     -0.816561    18A     -0.790631
      19A     -0.737897    20A     -0.680584    21A     -0.645572
      22A     -0.639336    23A     -0.627504    24A     -0.601111
      25A     -0.581869    26A     -0.570162    27A     -0.553608
      28A     -0.546530    29A     -0.539028    30A     -0.530866
      31A     -0.519279    32A     -0.504530    33A     -0.491542
      34A     -0.446810    35A     -0.428346    36A     -0.399934

  @DF-RHF Final Energy:  -439.13732648102950

   => Energetics <=

    Nuclear Repulsion Energy =            485.2338155754887339
    One-Electron Energy =               -1560.9972889391801800
    Two-Electron Energy =                 636.6261468826619421
    Total Energy =                       -439.1373264810295041
  Basis Set: (AUG-CC-PVTZ AUX)
    Blend: AUG-CC-PVTZ-RI
    Molecular point group: c1

    Geometry (in Angstrom), charge = 0, multiplicity = 1:

       Center              X                  Y                   Z               Mass
    ------------   -----------------  -----------------  -----------------  -----------------
         O            2.849868709792    -0.521458092208    -0.436369668188    15.994914619570
         O            0.492745709792    -1.505199092208     0.182186331812    15.994914619570
         N           -0.655530290208     0.385781907792    -0.377047668188    14.003074004430
         C           -1.976608290208    -0.181568092208    -0.109659668188    12.000000000000
         C            1.804384709792     0.427740907792    -0.378179668188    12.000000000000
         C           -3.012508290208     0.571022907792    -0.932382668188    12.000000000000
         C           -2.284451290208    -0.159769092208     1.384247331812    12.000000000000
         C            0.483513509792    -0.365278892208    -0.160660168188    12.000000000000
         C            2.042338709792     1.411265907792     0.765971331812    12.000000000000
         H           -1.927683290208    -1.222787092208    -0.443610668188     1.007825032230
         H           -0.589391290208     1.367013907792    -0.621756668188     1.007825032230
         H            1.770516709792     0.969116907792    -1.334590668188     1.007825032230
         H           -4.004562290208     0.138507907792    -0.778522668188     1.007825032230
         H           -3.057694290208     1.623186907792    -0.628680668188     1.007825032230
         H           -2.776158290208     0.523797907792    -1.998806668188     1.007825032230
         H           -1.517495290208    -0.714109092208     1.929599331812     1.007825032230
         H           -3.256208290208    -0.622099092208     1.584275331812     1.007825032230
         H           -2.308559290208     0.870768907792     1.752846331812     1.007825032230
         H            3.027697709792     1.867241907792     0.647273331812     1.007825032230
         H            2.021542709792     0.871243907792     1.716479331812     1.007825032230
         H            1.287572709792     2.204169907792     0.791618331812     1.007825032230
         H            2.434610709792    -1.353976092208    -0.122209668188     1.007825032230

  Basis Set: AUG-CC-PVTZ
    Blend: AUG-CC-PVTZ
  Basis Set: (AUG-CC-PVTZ AUX)
    Blend: AUG-CC-PVTZ-JKFIT
	 Reference Energy          =    -439.1373264810295041 [Eh]
	 Singles Energy            =      -0.0000000000000000 [Eh]
	 Same-Spin Energy          =      -0.4449103119508826 [Eh]
	 Opposite-Spin Energy      =      -1.4618884492650992 [Eh]
	 Correlation Energy        =      -1.9067987612159818 [Eh]
	 Total Energy              =    -441.0441252422455136 [Eh]

	 ================> DF-SCS-MP2 Energies <==================
	-----------------------------------------------------------
	 SCS Same-Spin Scale       =       0.3333333333333333 [-]
	 SCS Opposite-Spin Scale   =       1.2000000000000000 [-]
	 SCS Same-Spin Energy      =      -0.1483034373169609 [Eh]
	 SCS Opposite-Spin Energy  =      -1.7542661391181189 [Eh]
	 SCS Correlation Energy    =      -1.9025695764350798 [Eh]
	 SCS Total Energy          =    -441.0398960574646026 [Eh]
	-----------------------------------------------------------

  Dipole Moment: [D]
     X:    -3.2167      Y:     2.8285      Z:    -0.1193     Total:     4.2851

*** Psi4 exiting successfully. Buy a developer a beer!
