                               Psi4 1.3.2 release

  ==> Input File <==

--------------------------------------------------------------------------
#psi4
#
memory 32 gb

molecule  {
0 1
  O       -2.8756320     0.4615000    -0.3051040
  O       -0.5220660     1.5374290     0.0548780
  N        0.6402209    -0.3300804    -0.3548671
  C        1.9647450     0.2268840    -0.0956960
  C       -1.8012180    -0.4504720    -0.3698720
  C        3.0067800    -0.5070980    -0.9241520
  C        2.2930000     0.2310680     1.3932270
  C       -0.4931590     0.3235730    -0.1949090
  C       -1.9724170    -1.5121580     0.7102480
  H        1.8425442     1.2542483    -0.4498418
  H        0.6035260    -1.3822150    -0.4365740
  H       -1.7868920    -0.9288770    -1.3618540
  H        3.9904500    -0.0508330    -0.7882090
  H        3.0812650    -1.5550640    -0.6116920
  H        2.7529100    -0.4768670    -1.9861430
  H        1.5225120     0.7762450     1.9430400
  H        3.2574000     0.7146530     1.5762130
  H        2.3438960    -0.7932520     1.7757830
  H       -2.9590570    -1.9673470     0.6070900
  H       -1.9090200    -1.0432980     1.6949070
  H       -1.2193110    -2.3035120     0.6420620
  H       -2.4442120     1.3312090    -0.1521090
units angstrom
no_reorient  #important for SAPT in psi4, default
symmetry c1  #important for SAPT in psi4, default
}

set PROPERTIES_ORIGIN ["COM"]
properties('MP2/aug-cc-pvtz', properties = ['dipole'])
--------------------------------------------------------------------------

    Molecular point group: c1
  Charge       = 0
  Multiplicity = 1
  Basis Set: AUG-CC-PVTZ
    Blend: AUG-CC-PVTZ
  Basis Set: (AUG-CC-PVTZ AUX)
    Blend: AUG-CC-PVTZ-JKFIT

    Orbital Energies [Eh]
    ---------------------

    Doubly Occupied:

       1A    -20.546765     2A    -20.525747     3A    -15.599562
       4A    -11.352445     5A    -11.296614     6A    -11.278602
       7A    -11.234350     8A    -11.230379     9A    -11.224372
      10A     -1.397154    11A     -1.345467    12A     -1.249953
      13A     -1.075147    14A     -1.024130    15A     -0.951347
      16A     -0.896076    17A     -0.825487    18A     -0.790293
      19A     -0.736996    20A     -0.676871    21A     -0.647358
      22A     -0.632277    23A     -0.628425    24A     -0.596475
      25A     -0.581293    26A     -0.567059    27A     -0.556320
      28A     -0.550641    29A     -0.539936    30A     -0.531135
      31A     -0.508269    32A     -0.503292    33A     -0.492944
      34A     -0.443998    35A     -0.432283    36A     -0.401862

  @DF-RHF Final Energy:  -439.13396931061573

   => Energetics <=

    Nuclear Repulsion Energy =            485.8952407421688804
    One-Electron Energy =               -1562.3157765259884400
    Two-Electron Energy =                 637.2865664732038340
    Total Energy =                       -439.1339693106157256
  Basis Set: (AUG-CC-PVTZ AUX)
    Blend: AUG-CC-PVTZ-RI
    Molecular point group: c1

    Geometry (in Angstrom), charge = 0, multiplicity = 1:

       Center              X                  Y                   Z               Mass
    ------------   -----------------  -----------------  -----------------  -----------------
         O           -2.873640877300     0.456793952180    -0.303017283462    15.994914619570
         O           -0.520074877300     1.532722952180     0.056964716538    15.994914619570
         N            0.642212022700    -0.334786447820    -0.352780383462    14.003074004430
         C            1.966736122700     0.222177952180    -0.093609283462    12.000000000000
         C           -1.799226877300    -0.455178047820    -0.367785283462    12.000000000000
         C            3.008771122700    -0.511804047820    -0.922065283462    12.000000000000
         C            2.294991122700     0.226361952180     1.395313716538    12.000000000000
         C           -0.491167877300     0.318866952180    -0.192822283462    12.000000000000
         C           -1.970425877300    -1.516864047820     0.712334716538    12.000000000000
         H            1.844535322700     1.249542252180    -0.447755083462     1.007825032230
         H            0.605517122700    -1.386921047820    -0.434487283462     1.007825032230
         H           -1.784900877300    -0.933583047820    -1.359767283462     1.007825032230
         H            3.992441122700    -0.055539047820    -0.786122283462     1.007825032230
         H            3.083256122700    -1.559770047820    -0.609605283462     1.007825032230
         H            2.754901122700    -0.481573047820    -1.984056283462     1.007825032230
         H            1.524503122700     0.771538952180     1.945126716538     1.007825032230
         H            3.259391122700     0.709946952180     1.578299716538     1.007825032230
         H            2.345887122700    -0.797958047820     1.777869716538     1.007825032230
         H           -2.957065877300    -1.972053047820     0.609176716538     1.007825032230
         H           -1.907028877300    -1.048004047820     1.696993716538     1.007825032230
         H           -1.217319877300    -2.308218047820     0.644148716538     1.007825032230
         H           -2.442220877300     1.326502952180    -0.150022283462     1.007825032230

  Basis Set: AUG-CC-PVTZ
    Blend: AUG-CC-PVTZ
  Basis Set: (AUG-CC-PVTZ AUX)
    Blend: AUG-CC-PVTZ-JKFIT
	 Reference Energy          =    -439.1339693106157256 [Eh]
	 Singles Energy            =      -0.0000000000000000 [Eh]
	 Same-Spin Energy          =      -0.4463009094773341 [Eh]
	 Opposite-Spin Energy      =      -1.4639074337246201 [Eh]
	 Correlation Energy        =      -1.9102083432019543 [Eh]
	 Total Energy              =    -441.0441776538176555 [Eh]

	 ================> DF-SCS-MP2 Energies <==================
	-----------------------------------------------------------
	 SCS Same-Spin Scale       =       0.3333333333333333 [-]
	 SCS Opposite-Spin Scale   =       1.2000000000000000 [-]
	 SCS Same-Spin Energy      =      -0.1487669698257780 [Eh]
	 SCS Opposite-Spin Energy  =      -1.7566889204695439 [Eh]
	 SCS Correlation Energy    =      -1.9054558902953220 [Eh]
	 SCS Total Energy          =    -441.0394252009110687 [Eh]
	-----------------------------------------------------------

  Dipole Moment: [D]
     X:     3.6089      Y:    -3.1753      Z:    -0.1187     Total:     4.8084

*** Psi4 exiting successfully. Buy a developer a beer!
