                               Psi4 1.4a3.dev225

  ==> Input File <==

--------------------------------------------------------------------------
#psi4
#
memory 32 gb

molecule  {
0 1
  O        2.9110620    -0.5703060    -0.4523520
  O        0.5539390    -1.5540470     0.1662040
  N       -0.5943370     0.3369340    -0.3930300
  C       -1.9154150    -0.2304160    -0.1256420
  C        1.8655780     0.3788930    -0.3941620
  C       -2.9513150     0.5221750    -0.9483650
  C       -2.2232580    -0.2086170     1.3682650
  C        0.5863843    -0.3922245    -0.1835810
  C        2.1035320     1.3624180     0.7499890
  H       -1.8664900    -1.2716350    -0.4595930
  H       -0.5281980     1.3181660    -0.6377390
  H        1.8317100     0.9202690    -1.3505730
  H       -3.9433690     0.0896600    -0.7945050
  H       -2.9965010     1.5743390    -0.6446630
  H       -2.7149650     0.4749500    -2.0147890
  H       -1.4563020    -0.7629570     1.9136170
  H       -3.1950150    -0.6709470     1.5682930
  H       -2.2473660     0.8219210     1.7368640
  H        3.0888910     1.8183940     0.6312910
  H        2.0827360     0.8223960     1.7004970
  H        1.3487660     2.1553220     0.7756360
  H        2.4958040    -1.4028240    -0.1381920
units angstrom
no_reorient  #important for SAPT in psi4, default
symmetry c1  #important for SAPT in psi4, default
}

set PROPERTIES_ORIGIN ["COM"]
properties('MP2/aug-cc-pvtz', properties = ['dipole'])
--------------------------------------------------------------------------

    Molecular point group: c1
  Charge       = 0
  Multiplicity = 1
  Basis Set: AUG-CC-PVTZ
    Blend: AUG-CC-PVTZ
  Basis Set: (AUG-CC-PVTZ AUX)
    Blend: AUG-CC-PVTZ-JKFIT

    Orbital Energies [Eh]
    ---------------------

    Doubly Occupied:

       1A    -20.551104     2A    -20.541366     3A    -15.587014
       4A    -11.360969     5A    -11.298809     6A    -11.273730
       7A    -11.231794     8A    -11.230097     9A    -11.218066
      10A     -1.412305    11A     -1.352224    12A     -1.232427
      13A     -1.066758    14A     -1.023089    15A     -0.946177
      16A     -0.897304    17A     -0.816471    18A     -0.784245
      19A     -0.741653    20A     -0.678995    21A     -0.644346
      22A     -0.637929    23A     -0.626226    24A     -0.596964
      25A     -0.582949    26A     -0.572071    27A     -0.552052
      28A     -0.546112    29A     -0.537694    30A     -0.529581
      31A     -0.517814    32A     -0.502223    33A     -0.489413
      34A     -0.450165    35A     -0.436685    36A     -0.395901

  @DF-RHF Final Energy:  -439.13561433821701

   => Energetics <=

    Nuclear Repulsion Energy =            485.0279309009445683
    One-Electron Energy =               -1560.6016444103090635
    Two-Electron Energy =                 636.4380991711475417
    Total Energy =                       -439.1356143382170103
  Basis Set: (AUG-CC-PVTZ AUX)
    Blend: AUG-CC-PVTZ-RI
    Molecular point group: c1

    Geometry (in Angstrom), charge = 0, multiplicity = 1:

       Center              X                  Y                   Z               Mass
    ------------   -----------------  -----------------  -----------------  -----------------
         O            2.846053679344    -0.523462961536    -0.435734539191    15.994914619570
         O            0.488930679344    -1.507203961536     0.182821460809    15.994914619570
         N           -0.659345320656     0.383777038464    -0.376412539191    14.003074004430
         C           -1.980423320656    -0.183572961536    -0.109024539191    12.000000000000
         C            1.800569679344     0.425736038464    -0.377544539191    12.000000000000
         C           -3.016323320656     0.569018038464    -0.931747539191    12.000000000000
         C           -2.288266320656    -0.161773961536     1.384882460809    12.000000000000
         C            0.521375979344    -0.345381461536    -0.166963539191    12.000000000000
         C            2.038523679344     1.409261038464     0.766606460809    12.000000000000
         H           -1.931498320656    -1.224791961536    -0.442975539191     1.007825032230
         H           -0.593206320656     1.365009038464    -0.621121539191     1.007825032230
         H            1.766701679344     0.967112038464    -1.333955539191     1.007825032230
         H           -4.008377320656     0.136503038464    -0.777887539191     1.007825032230
         H           -3.061509320656     1.621182038464    -0.628045539191     1.007825032230
         H           -2.779973320656     0.521793038464    -1.998171539191     1.007825032230
         H           -1.521310320656    -0.716113961536     1.930234460809     1.007825032230
         H           -3.260023320656    -0.624103961536     1.584910460809     1.007825032230
         H           -2.312374320656     0.868764038464     1.753481460809     1.007825032230
         H            3.023882679344     1.865237038464     0.647908460809     1.007825032230
         H            2.017727679344     0.869239038464     1.717114460809     1.007825032230
         H            1.283757679344     2.202165038464     0.792253460809     1.007825032230
         H            2.430795679344    -1.355980961536    -0.121574539191     1.007825032230

  Basis Set: AUG-CC-PVTZ
    Blend: AUG-CC-PVTZ
  Basis Set: (AUG-CC-PVTZ AUX)
    Blend: AUG-CC-PVTZ-JKFIT
	 Reference Energy          =    -439.1356143382170103 [Eh]
	 Singles Energy            =      -0.0000000000000000 [Eh]
	 Same-Spin Energy          =      -0.4456499990070210 [Eh]
	 Opposite-Spin Energy      =      -1.4633519561348269 [Eh]
	 Correlation Energy        =      -1.9090019551418478 [Eh]
	 Total Energy              =    -441.0446162933588425 [Eh]

	 ================> DF-SCS-MP2 Energies <==================
	-----------------------------------------------------------
	 SCS Same-Spin Scale       =       0.3333333333333333 [-]
	 SCS Opposite-Spin Scale   =       1.2000000000000000 [-]
	 SCS Same-Spin Energy      =      -0.1485499996690070 [Eh]
	 SCS Opposite-Spin Energy  =      -1.7560223473617922 [Eh]
	 SCS Correlation Energy    =      -1.9045723470307991 [Eh]
	 SCS Total Energy          =    -441.0401866852478179 [Eh]
	-----------------------------------------------------------

  Dipole Moment: [D]
     X:    -2.9985      Y:     2.9247      Z:    -0.1269     Total:     4.1906

*** Psi4 exiting successfully. Buy a developer a beer!
