                               Psi4 1.3.2 release

  ==> Input File <==

--------------------------------------------------------------------------
#psi4
#
memory 32 gb

molecule  {
0 1
  O       -2.8756320     0.4615000    -0.3051040
  O       -0.5328789     1.5371610     0.0546950
  N        0.6562510    -0.3746370    -0.3360270
  C        1.9647450     0.2268840    -0.0956960
  C       -1.8080916    -0.4392457    -0.3676399
  C        3.0067800    -0.5070980    -0.9241520
  C        2.2930000     0.2310680     1.3932270
  C       -0.4931590     0.3235730    -0.1949090
  C       -1.9724170    -1.5121580     0.7102480
  H        1.8788190     1.2611790    -0.4401960
  H        0.6035260    -1.3822150    -0.4365740
  H       -1.7868920    -0.9288770    -1.3618540
  H        3.9904500    -0.0508330    -0.7882090
  H        3.0812650    -1.5550640    -0.6116920
  H        2.7529100    -0.4768670    -1.9861430
  H        1.5225120     0.7762450     1.9430400
  H        3.2574000     0.7146530     1.5762130
  H        2.3438960    -0.7932520     1.7757830
  H       -2.9590570    -1.9673470     0.6070900
  H       -1.9090200    -1.0432980     1.6949070
  H       -1.2193110    -2.3035120     0.6420620
  H       -2.4442120     1.3312090    -0.1521090
units angstrom
no_reorient  #important for SAPT in psi4, default
symmetry c1  #important for SAPT in psi4, default
}

set PROPERTIES_ORIGIN ["COM"]
properties('MP2/aug-cc-pvtz', properties = ['dipole'])
--------------------------------------------------------------------------

    Molecular point group: c1
  Charge       = 0
  Multiplicity = 1
  Basis Set: AUG-CC-PVTZ
    Blend: AUG-CC-PVTZ
  Basis Set: (AUG-CC-PVTZ AUX)
    Blend: AUG-CC-PVTZ-JKFIT

    Orbital Energies [Eh]
    ---------------------

    Doubly Occupied:

       1A    -20.548445     2A    -20.532432     3A    -15.596201
       4A    -11.358048     5A    -11.296996     6A    -11.277621
       7A    -11.232518     8A    -11.230176     9A    -11.222504
      10A     -1.398760    11A     -1.349357    12A     -1.248475
      13A     -1.071834    14A     -1.022286    15A     -0.950088
      16A     -0.894245    17A     -0.822556    18A     -0.795093
      19A     -0.738228    20A     -0.679181    21A     -0.649911
      22A     -0.632550    23A     -0.629126    24A     -0.597292
      25A     -0.582729    26A     -0.567020    27A     -0.555389
      28A     -0.547906    29A     -0.540471    30A     -0.530236
      31A     -0.512529    32A     -0.503036    33A     -0.491897
      34A     -0.442926    35A     -0.433770    36A     -0.401667

  @DF-RHF Final Energy:  -439.13790208855488

   => Energetics <=

    Nuclear Repulsion Energy =            485.4006389518115157
    One-Electron Energy =               -1561.3100803157094560
    Two-Electron Energy =                 636.7715392753430024
    Total Energy =                       -439.1379020885549380
  Basis Set: (AUG-CC-PVTZ AUX)
    Blend: AUG-CC-PVTZ-RI
    Molecular point group: c1

    Geometry (in Angstrom), charge = 0, multiplicity = 1:

       Center              X                  Y                   Z               Mass
    ------------   -----------------  -----------------  -----------------  -----------------
         O           -2.873683554226     0.460505129947    -0.305285864005    15.994914619570
         O           -0.530930454226     1.536166129947     0.054513135995    15.994914619570
         N            0.658199445774    -0.375631870053    -0.336208864005    14.003074004430
         C            1.966693445774     0.225889129947    -0.095877864005    12.000000000000
         C           -1.806143154226    -0.440240570053    -0.367821764005    12.000000000000
         C            3.008728445774    -0.508092870053    -0.924333864005    12.000000000000
         C            2.294948445774     0.230073129947     1.393045135995    12.000000000000
         C           -0.491210554226     0.322578129947    -0.195090864005    12.000000000000
         C           -1.970468554226    -1.513152870053     0.710066135995    12.000000000000
         H            1.880767445774     1.260184129947    -0.440377864005     1.007825032230
         H            0.605474445774    -1.383209870053    -0.436755864005     1.007825032230
         H           -1.784943554226    -0.929871870053    -1.362035864005     1.007825032230
         H            3.992398445774    -0.051827870053    -0.788390864005     1.007825032230
         H            3.083213445774    -1.556058870053    -0.611873864005     1.007825032230
         H            2.754858445774    -0.477861870053    -1.986324864005     1.007825032230
         H            1.524460445774     0.775250129947     1.942858135995     1.007825032230
         H            3.259348445774     0.713658129947     1.576031135995     1.007825032230
         H            2.345844445774    -0.794246870053     1.775601135995     1.007825032230
         H           -2.957108554226    -1.968341870053     0.606908135995     1.007825032230
         H           -1.907071554226    -1.044292870053     1.694725135995     1.007825032230
         H           -1.217362554226    -2.304506870053     0.641880135995     1.007825032230
         H           -2.442263554226     1.330214129947    -0.152290864005     1.007825032230

  Basis Set: AUG-CC-PVTZ
    Blend: AUG-CC-PVTZ
  Basis Set: (AUG-CC-PVTZ AUX)
    Blend: AUG-CC-PVTZ-JKFIT
	 Reference Energy          =    -439.1379020885548812 [Eh]
	 Singles Energy            =      -0.0000000000000000 [Eh]
	 Same-Spin Energy          =      -0.4460122459088534 [Eh]
	 Opposite-Spin Energy      =      -1.4634056791037824 [Eh]
	 Correlation Energy        =      -1.9094179250126357 [Eh]
	 Total Energy              =    -441.0473200135675143 [Eh]

	 ================> DF-SCS-MP2 Energies <==================
	-----------------------------------------------------------
	 SCS Same-Spin Scale       =       0.3333333333333333 [-]
	 SCS Opposite-Spin Scale   =       1.2000000000000000 [-]
	 SCS Same-Spin Energy      =      -0.1486707486362844 [Eh]
	 SCS Opposite-Spin Energy  =      -1.7560868149245388 [Eh]
	 SCS Correlation Energy    =      -1.9047575635608232 [Eh]
	 SCS Total Energy          =    -441.0426596521157308 [Eh]
	-----------------------------------------------------------

  Dipole Moment: [D]
     X:     3.4706      Y:    -3.0229      Z:    -0.1424     Total:     4.6047

*** Psi4 exiting successfully. Buy a developer a beer!
