                               Psi4 1.3.2 release

  ==> Input File <==

--------------------------------------------------------------------------
#psi4
#
memory 32 gb

molecule  {
0 1
  O       -2.8756320     0.4615000    -0.3051040
  O       -0.5220660     1.5374290     0.0548780
  N        0.6562510    -0.3746370    -0.3360270
  C        1.9647450     0.2268840    -0.0956960
  C       -1.8012180    -0.4504720    -0.3698720
  C        3.0067800    -0.5070980    -0.9241520
  C        2.2930000     0.2310680     1.3932270
  C       -0.5012106     0.3312305    -0.1706282
  C       -1.9724170    -1.5121580     0.7102480
  H        1.8788190     1.2611790    -0.4401960
  H        0.6035260    -1.3822150    -0.4365740
  H       -1.8042717    -0.9363006    -1.3583386
  H        3.9904500    -0.0508330    -0.7882090
  H        3.0812650    -1.5550640    -0.6116920
  H        2.7529100    -0.4768670    -1.9861430
  H        1.5225120     0.7762450     1.9430400
  H        3.2574000     0.7146530     1.5762130
  H        2.3438960    -0.7932520     1.7757830
  H       -2.9590570    -1.9673470     0.6070900
  H       -1.9090200    -1.0432980     1.6949070
  H       -1.2193110    -2.3035120     0.6420620
  H       -2.4442120     1.3312090    -0.1521090
units angstrom
no_reorient  #important for SAPT in psi4, default
symmetry c1  #important for SAPT in psi4, default
}

set PROPERTIES_ORIGIN ["COM"]
properties('MP2/aug-cc-pvtz', properties = ['dipole'])
--------------------------------------------------------------------------

    Molecular point group: c1
  Charge       = 0
  Multiplicity = 1
  Basis Set: AUG-CC-PVTZ
    Blend: AUG-CC-PVTZ
  Basis Set: (AUG-CC-PVTZ AUX)
    Blend: AUG-CC-PVTZ-JKFIT

    Orbital Energies [Eh]
    ---------------------

    Doubly Occupied:

       1A    -20.547995     2A    -20.536106     3A    -15.593099
       4A    -11.359008     5A    -11.297166     6A    -11.275920
       7A    -11.231415     8A    -11.230423     9A    -11.221637
      10A     -1.403865    11A     -1.348076    12A     -1.244832
      13A     -1.070399    14A     -1.023387    15A     -0.949084
      16A     -0.893685    17A     -0.820891    18A     -0.792159
      19A     -0.738218    20A     -0.679537    21A     -0.649610
      22A     -0.634277    23A     -0.628208    24A     -0.597687
      25A     -0.581883    26A     -0.567518    27A     -0.554349
      28A     -0.547136    29A     -0.539401    30A     -0.531152
      31A     -0.514650    32A     -0.503242    33A     -0.491249
      34A     -0.444852    35A     -0.435889    36A     -0.400639

  @DF-RHF Final Energy:  -439.13793521016953

   => Energetics <=

    Nuclear Repulsion Energy =            485.3693169526047768
    One-Electron Energy =               -1561.2572154160673108
    Two-Electron Energy =                 636.7499632532930036
    Total Energy =                       -439.1379352101695304
  Basis Set: (AUG-CC-PVTZ AUX)
    Blend: AUG-CC-PVTZ-RI
    Molecular point group: c1

    Geometry (in Angstrom), charge = 0, multiplicity = 1:

       Center              X                  Y                   Z               Mass
    ------------   -----------------  -----------------  -----------------  -----------------
         O           -2.874761399421     0.460856179058    -0.307353487830    15.994914619570
         O           -0.521195399421     1.536785179058     0.052628512170    15.994914619570
         N            0.657121600579    -0.375280820942    -0.338276487830    14.003074004430
         C            1.965615600579     0.226240179058    -0.097945487830    12.000000000000
         C           -1.800347399421    -0.451115820942    -0.372121487830    12.000000000000
         C            3.007650600579    -0.507741820942    -0.926401487830    12.000000000000
         C            2.293870600579     0.230424179058     1.390977512170    12.000000000000
         C           -0.500339999421     0.330586679058    -0.172877687830    12.000000000000
         C           -1.971546399421    -1.512801820942     0.707998512170    12.000000000000
         H            1.879689600579     1.260535179058    -0.442445487830     1.007825032230
         H            0.604396600579    -1.382858820942    -0.438823487830     1.007825032230
         H           -1.803401099421    -0.936944420942    -1.360588087830     1.007825032230
         H            3.991320600579    -0.051476820942    -0.790458487830     1.007825032230
         H            3.082135600579    -1.555707820942    -0.613941487830     1.007825032230
         H            2.753780600579    -0.477510820942    -1.988392487830     1.007825032230
         H            1.523382600579     0.775601179058     1.940790512170     1.007825032230
         H            3.258270600579     0.714009179058     1.573963512170     1.007825032230
         H            2.344766600579    -0.793895820942     1.773533512170     1.007825032230
         H           -2.958186399421    -1.967990820942     0.604840512170     1.007825032230
         H           -1.908149399421    -1.043941820942     1.692657512170     1.007825032230
         H           -1.218440399421    -2.304155820942     0.639812512170     1.007825032230
         H           -2.443341399421     1.330565179058    -0.154358487830     1.007825032230

  Basis Set: AUG-CC-PVTZ
    Blend: AUG-CC-PVTZ
  Basis Set: (AUG-CC-PVTZ AUX)
    Blend: AUG-CC-PVTZ-JKFIT
	 Reference Energy          =    -439.1379352101695304 [Eh]
	 Singles Energy            =      -0.0000000000000000 [Eh]
	 Same-Spin Energy          =      -0.4458466999693890 [Eh]
	 Opposite-Spin Energy      =      -1.4633432668544200 [Eh]
	 Correlation Energy        =      -1.9091899668238090 [Eh]
	 Total Energy              =    -441.0471251769933474 [Eh]

	 ================> DF-SCS-MP2 Energies <==================
	-----------------------------------------------------------
	 SCS Same-Spin Scale       =       0.3333333333333333 [-]
	 SCS Opposite-Spin Scale   =       1.2000000000000000 [-]
	 SCS Same-Spin Energy      =      -0.1486155666564630 [Eh]
	 SCS Opposite-Spin Energy  =      -1.7560119202253039 [Eh]
	 SCS Correlation Energy    =      -1.9046274868817670 [Eh]
	 SCS Total Energy          =    -441.0425626970513235 [Eh]
	-----------------------------------------------------------

  Dipole Moment: [D]
     X:     3.3688      Y:    -2.9800      Z:    -0.1222     Total:     4.4993

*** Psi4 exiting successfully. Buy a developer a beer!
