                               Psi4 1.3.2 release

  ==> Input File <==

--------------------------------------------------------------------------
#psi4
#
memory 32 gb

molecule  {
0 1
  O       -2.8756320     0.4615000    -0.3051040
  O       -0.5220660     1.5374290     0.0548780
  N        0.6562510    -0.3746370    -0.3360270
  C        1.9533117     0.2489227    -0.0899580
  C       -1.8012180    -0.4504720    -0.3698720
  C        3.0067800    -0.5070980    -0.9241520
  C        2.2930000     0.2310680     1.3932270
  C       -0.4806073     0.3426016    -0.1887963
  C       -1.9724170    -1.5121580     0.7102480
  H        1.8788190     1.2611790    -0.4401960
  H        0.6035260    -1.3822150    -0.4365740
  H       -1.7868920    -0.9288770    -1.3618540
  H        3.9904500    -0.0508330    -0.7882090
  H        3.0812650    -1.5550640    -0.6116920
  H        2.7529100    -0.4768670    -1.9861430
  H        1.5225120     0.7762450     1.9430400
  H        3.2574000     0.7146530     1.5762130
  H        2.3438960    -0.7932520     1.7757830
  H       -2.9590570    -1.9673470     0.6070900
  H       -1.9090200    -1.0432980     1.6949070
  H       -1.2193110    -2.3035120     0.6420620
  H       -2.4442120     1.3312090    -0.1521090
units angstrom
no_reorient  #important for SAPT in psi4, default
symmetry c1  #important for SAPT in psi4, default
}

set PROPERTIES_ORIGIN ["COM"]
properties('MP2/aug-cc-pvtz', properties = ['dipole'])
--------------------------------------------------------------------------

    Molecular point group: c1
  Charge       = 0
  Multiplicity = 1
  Basis Set: AUG-CC-PVTZ
    Blend: AUG-CC-PVTZ
  Basis Set: (AUG-CC-PVTZ AUX)
    Blend: AUG-CC-PVTZ-JKFIT

    Orbital Energies [Eh]
    ---------------------

    Doubly Occupied:

       1A    -20.546970     2A    -20.535342     3A    -15.594207
       4A    -11.356438     5A    -11.295894     6A    -11.276093
       7A    -11.232208     8A    -11.229397     9A    -11.222240
      10A     -1.406428    11A     -1.347657    12A     -1.249525
      13A     -1.068682    14A     -1.020973    15A     -0.948234
      16A     -0.890404    17A     -0.823321    18A     -0.796352
      19A     -0.734993    20A     -0.680695    21A     -0.649823
      22A     -0.636110    23A     -0.626660    24A     -0.599740
      25A     -0.580533    26A     -0.565963    27A     -0.555153
      28A     -0.547349    29A     -0.540018    30A     -0.531705
      31A     -0.514929    32A     -0.503444    33A     -0.493075
      34A     -0.444079    35A     -0.431382    36A     -0.402649

  @DF-RHF Final Energy:  -439.13835341676736

   => Energetics <=

    Nuclear Repulsion Energy =            485.4294696418712078
    One-Electron Energy =               -1561.3783188659383541
    Two-Electron Energy =                 636.8104958072997306
    Total Energy =                       -439.1383534167673588
  Basis Set: (AUG-CC-PVTZ AUX)
    Blend: AUG-CC-PVTZ-RI
    Molecular point group: c1

    Geometry (in Angstrom), charge = 0, multiplicity = 1:

       Center              X                  Y                   Z               Mass
    ------------   -----------------  -----------------  -----------------  -----------------
         O           -2.875734404173     0.457740877584    -0.306188649044    15.994914619570
         O           -0.522168404173     1.533669877584     0.053793350956    15.994914619570
         N            0.656148595827    -0.378396122416    -0.337111649044    14.003074004430
         C            1.953209295827     0.245163577584    -0.091042649044    12.000000000000
         C           -1.801320404173    -0.454231122416    -0.370956649044    12.000000000000
         C            3.006677595827    -0.510857122416    -0.925236649044    12.000000000000
         C            2.292897595827     0.227308877584     1.392142350956    12.000000000000
         C           -0.480709704173     0.338842477584    -0.189880949044    12.000000000000
         C           -1.972519404173    -1.515917122416     0.709163350956    12.000000000000
         H            1.878716595827     1.257419877584    -0.441280649044     1.007825032230
         H            0.603423595827    -1.385974122416    -0.437658649044     1.007825032230
         H           -1.786994404173    -0.932636122416    -1.362938649044     1.007825032230
         H            3.990347595827    -0.054592122416    -0.789293649044     1.007825032230
         H            3.081162595827    -1.558823122416    -0.612776649044     1.007825032230
         H            2.752807595827    -0.480626122416    -1.987227649044     1.007825032230
         H            1.522409595827     0.772485877584     1.941955350956     1.007825032230
         H            3.257297595827     0.710893877584     1.575128350956     1.007825032230
         H            2.343793595827    -0.797011122416     1.774698350956     1.007825032230
         H           -2.959159404173    -1.971106122416     0.606005350956     1.007825032230
         H           -1.909122404173    -1.047057122416     1.693822350956     1.007825032230
         H           -1.219413404173    -2.307271122416     0.640977350956     1.007825032230
         H           -2.444314404173     1.327449877584    -0.153193649044     1.007825032230

  Basis Set: AUG-CC-PVTZ
    Blend: AUG-CC-PVTZ
  Basis Set: (AUG-CC-PVTZ AUX)
    Blend: AUG-CC-PVTZ-JKFIT
	 Reference Energy          =    -439.1383534167673588 [Eh]
	 Singles Energy            =      -0.0000000000000000 [Eh]
	 Same-Spin Energy          =      -0.4454405002014961 [Eh]
	 Opposite-Spin Energy      =      -1.4626196457528806 [Eh]
	 Correlation Energy        =      -1.9080601459543767 [Eh]
	 Total Energy              =    -441.0464135627217388 [Eh]

	 ================> DF-SCS-MP2 Energies <==================
	-----------------------------------------------------------
	 SCS Same-Spin Scale       =       0.3333333333333333 [-]
	 SCS Opposite-Spin Scale   =       1.2000000000000000 [-]
	 SCS Same-Spin Energy      =      -0.1484801667338320 [Eh]
	 SCS Opposite-Spin Energy  =      -1.7551435749034567 [Eh]
	 SCS Correlation Energy    =      -1.9036237416372888 [Eh]
	 SCS Total Energy          =    -441.0419771584046202 [Eh]
	-----------------------------------------------------------

  Dipole Moment: [D]
     X:     3.4689      Y:    -2.9470      Z:    -0.1162     Total:     4.5532

*** Psi4 exiting successfully. Buy a developer a beer!
