                               Psi4 1.3.2 release

  ==> Input File <==

--------------------------------------------------------------------------
#psi4
#
memory 32 gb

molecule  {
0 1
  O       -2.8756320     0.4615000    -0.3051040
  O       -0.5220660     1.5374290     0.0548780
  N        0.6262347    -0.3239458    -0.2873199
  C        1.9647450     0.2268840    -0.0956960
  C       -1.8012180    -0.4504720    -0.3698720
  C        3.0619784    -0.4581917    -0.8942296
  C        2.2930000     0.2310680     1.3932270
  C       -0.4931590     0.3235730    -0.1949090
  C       -1.9724170    -1.5121580     0.7102480
  H        1.8788190     1.2611790    -0.4401960
  H        0.6035260    -1.3822150    -0.4365740
  H       -1.7868920    -0.9288770    -1.3618540
  H        3.9904500    -0.0508330    -0.7882090
  H        3.0812650    -1.5550640    -0.6116920
  H        2.7529100    -0.4768670    -1.9861430
  H        1.5225120     0.7762450     1.9430400
  H        3.2574000     0.7146530     1.5762130
  H        2.3438960    -0.7932520     1.7757830
  H       -2.9590570    -1.9673470     0.6070900
  H       -1.9090200    -1.0432980     1.6949070
  H       -1.2193110    -2.3035120     0.6420620
  H       -2.4442120     1.3312090    -0.1521090
units angstrom
no_reorient  #important for SAPT in psi4, default
symmetry c1  #important for SAPT in psi4, default
}

set PROPERTIES_ORIGIN ["COM"]
properties('MP2/aug-cc-pvtz', properties = ['dipole'])
--------------------------------------------------------------------------

    Molecular point group: c1
  Charge       = 0
  Multiplicity = 1
  Basis Set: AUG-CC-PVTZ
    Blend: AUG-CC-PVTZ
  Basis Set: (AUG-CC-PVTZ AUX)
    Blend: AUG-CC-PVTZ-JKFIT

    Orbital Energies [Eh]
    ---------------------

    Doubly Occupied:

       1A    -20.546161     2A    -20.521088     3A    -15.603723
       4A    -11.349606     5A    -11.296424     6A    -11.280603
       7A    -11.238402     8A    -11.229836     9A    -11.222420
      10A     -1.397329    11A     -1.345321    12A     -1.252549
      13A     -1.078933    14A     -1.024808    15A     -0.951054
      16A     -0.897190    17A     -0.828793    18A     -0.791357
      19A     -0.737281    20A     -0.678014    21A     -0.649299
      22A     -0.630655    23A     -0.625573    24A     -0.603848
      25A     -0.586751    26A     -0.571012    27A     -0.559096
      28A     -0.547583    29A     -0.541386    30A     -0.529878
      31A     -0.507396    32A     -0.494870    33A     -0.487294
      34A     -0.443566    35A     -0.430689    36A     -0.401462

  @DF-RHF Final Energy:  -439.12304402250476

   => Energetics <=

    Nuclear Repulsion Energy =            486.1740303967253567
    One-Electron Energy =               -1562.8316469513281390
    Two-Electron Energy =                 637.5345725320980819
    Total Energy =                       -439.1230440225047005
  Basis Set: (AUG-CC-PVTZ AUX)
    Blend: AUG-CC-PVTZ-RI
    Molecular point group: c1

    Geometry (in Angstrom), charge = 0, multiplicity = 1:

       Center              X                  Y                   Z               Mass
    ------------   -----------------  -----------------  -----------------  -----------------
         O           -2.877478484248     0.451608661236    -0.313045600660    15.994914619570
         O           -0.523912484248     1.527537661236     0.046936399340    15.994914619570
         N            0.624388215752    -0.333837138764    -0.295261500660    14.003074004430
         C            1.962898515752     0.216992661236    -0.103637600660    12.000000000000
         C           -1.803064484248    -0.460363338764    -0.377813600660    12.000000000000
         C            3.060131915752    -0.468083038764    -0.902171200660    12.000000000000
         C            2.291153515752     0.221176661236     1.385285399340    12.000000000000
         C           -0.495005484248     0.313681661236    -0.202850600660    12.000000000000
         C           -1.974263484248    -1.522049338764     0.702306399340    12.000000000000
         H            1.876972515752     1.251287661236    -0.448137600660     1.007825032230
         H            0.601679515752    -1.392106338764    -0.444515600660     1.007825032230
         H           -1.788738484248    -0.938768338764    -1.369795600660     1.007825032230
         H            3.988603515752    -0.060724338764    -0.796150600660     1.007825032230
         H            3.079418515752    -1.564955338764    -0.619633600660     1.007825032230
         H            2.751063515752    -0.486758338764    -1.994084600660     1.007825032230
         H            1.520665515752     0.766353661236     1.935098399340     1.007825032230
         H            3.255553515752     0.704761661236     1.568271399340     1.007825032230
         H            2.342049515752    -0.803143338764     1.767841399340     1.007825032230
         H           -2.960903484248    -1.977238338764     0.599148399340     1.007825032230
         H           -1.910866484248    -1.053189338764     1.686965399340     1.007825032230
         H           -1.221157484248    -2.313403338764     0.634120399340     1.007825032230
         H           -2.446058484248     1.321317661236    -0.160050600660     1.007825032230

  Basis Set: AUG-CC-PVTZ
    Blend: AUG-CC-PVTZ
  Basis Set: (AUG-CC-PVTZ AUX)
    Blend: AUG-CC-PVTZ-JKFIT
	 Reference Energy          =    -439.1230440225047573 [Eh]
	 Singles Energy            =      -0.0000000000000000 [Eh]
	 Same-Spin Energy          =      -0.4464234715148566 [Eh]
	 Opposite-Spin Energy      =      -1.4641214931492601 [Eh]
	 Correlation Energy        =      -1.9105449646641166 [Eh]
	 Total Energy              =    -441.0335889871688551 [Eh]

	 ================> DF-SCS-MP2 Energies <==================
	-----------------------------------------------------------
	 SCS Same-Spin Scale       =       0.3333333333333333 [-]
	 SCS Opposite-Spin Scale   =       1.2000000000000000 [-]
	 SCS Same-Spin Energy      =      -0.1488078238382855 [Eh]
	 SCS Opposite-Spin Energy  =      -1.7569457917791120 [Eh]
	 SCS Correlation Energy    =      -1.9057536156173975 [Eh]
	 SCS Total Energy          =    -441.0287976381221711 [Eh]
	-----------------------------------------------------------

  Dipole Moment: [D]
     X:     3.7230      Y:    -3.2286      Z:    -0.2575     Total:     4.9346

*** Psi4 exiting successfully. Buy a developer a beer!
