                               Psi4 1.3.2 release

  ==> Input File <==

--------------------------------------------------------------------------
#psi4
#
memory 32 gb

molecule  {
0 1
  O       -2.8756320     0.4615000    -0.3051040
  O       -0.5220660     1.5374290     0.0548780
  N        0.6562510    -0.3746370    -0.3360270
  C        1.9703124     0.2157955    -0.0985925
  C       -1.8012180    -0.4504720    -0.3698720
  C        3.0067800    -0.5070980    -0.9241520
  C        2.2930000     0.2310680     1.3932270
  C       -0.4993038     0.3139786    -0.1979816
  C       -1.9724170    -1.5121580     0.7102480
  H        1.8788190     1.2611790    -0.4401960
  H        0.6035260    -1.3822150    -0.4365740
  H       -1.7868920    -0.9288770    -1.3618540
  H        3.9904500    -0.0508330    -0.7882090
  H        3.0812650    -1.5550640    -0.6116920
  H        2.7529100    -0.4768670    -1.9861430
  H        1.5225120     0.7762450     1.9430400
  H        3.2574000     0.7146530     1.5762130
  H        2.3438960    -0.7932520     1.7757830
  H       -2.9590570    -1.9673470     0.6070900
  H       -1.9090200    -1.0432980     1.6949070
  H       -1.2193110    -2.3035120     0.6420620
  H       -2.4442120     1.3312090    -0.1521090
units angstrom
no_reorient  #important for SAPT in psi4, default
symmetry c1  #important for SAPT in psi4, default
}

set PROPERTIES_ORIGIN ["COM"]
properties('MP2/aug-cc-pvtz', properties = ['dipole'])
--------------------------------------------------------------------------

    Molecular point group: c1
  Charge       = 0
  Multiplicity = 1
  Basis Set: AUG-CC-PVTZ
    Blend: AUG-CC-PVTZ
  Basis Set: (AUG-CC-PVTZ AUX)
    Blend: AUG-CC-PVTZ-JKFIT

    Orbital Energies [Eh]
    ---------------------

    Doubly Occupied:

       1A    -20.548169     2A    -20.531040     3A    -15.596533
       4A    -11.359247     5A    -11.297948     6A    -11.277887
       7A    -11.232356     8A    -11.231464     9A    -11.222374
      10A     -1.393365    11A     -1.344619    12A     -1.247154
      13A     -1.074126    14A     -1.025356    15A     -0.950659
      16A     -0.897344    17A     -0.822231    18A     -0.794100
      19A     -0.737272    20A     -0.678362    21A     -0.649871
      22A     -0.630692    23A     -0.629836    24A     -0.595682
      25A     -0.582139    26A     -0.567911    27A     -0.555112
      28A     -0.548483    29A     -0.539474    30A     -0.529288
      31A     -0.511496    32A     -0.504051    33A     -0.488876
      34A     -0.445318    35A     -0.435388    36A     -0.400676

  @DF-RHF Final Energy:  -439.13635719808883

   => Energetics <=

    Nuclear Repulsion Energy =            485.2899021692686006
    One-Electron Energy =               -1561.1007183750823515
    Two-Electron Energy =                 636.6744590077249768
    Total Energy =                       -439.1363571980888310
  Basis Set: (AUG-CC-PVTZ AUX)
    Blend: AUG-CC-PVTZ-RI
    Molecular point group: c1

    Geometry (in Angstrom), charge = 0, multiplicity = 1:

       Center              X                  Y                   Z               Mass
    ------------   -----------------  -----------------  -----------------  -----------------
         O           -2.875579175845     0.463393301391    -0.304557479238    15.994914619570
         O           -0.522013175845     1.539322301391     0.055424520762    15.994914619570
         N            0.656303824155    -0.372743698609    -0.335480479238    14.003074004430
         C            1.970365224155     0.217688801391    -0.098045979238    12.000000000000
         C           -1.801165175845    -0.448578698609    -0.369325479238    12.000000000000
         C            3.006832824155    -0.505204698609    -0.923605479238    12.000000000000
         C            2.293052824155     0.232961301391     1.393773520762    12.000000000000
         C           -0.499250975845     0.315871901391    -0.197435079238    12.000000000000
         C           -1.972364175845    -1.510264698609     0.710794520762    12.000000000000
         H            1.878871824155     1.263072301391    -0.439649479238     1.007825032230
         H            0.603578824155    -1.380321698609    -0.436027479238     1.007825032230
         H           -1.786839175845    -0.926983698609    -1.361307479238     1.007825032230
         H            3.990502824155    -0.048939698609    -0.787662479238     1.007825032230
         H            3.081317824155    -1.553170698609    -0.611145479238     1.007825032230
         H            2.752962824155    -0.474973698609    -1.985596479238     1.007825032230
         H            1.522564824155     0.778138301391     1.943586520762     1.007825032230
         H            3.257452824155     0.716546301391     1.576759520762     1.007825032230
         H            2.343948824155    -0.791358698609     1.776329520762     1.007825032230
         H           -2.959004175845    -1.965453698609     0.607636520762     1.007825032230
         H           -1.908967175845    -1.041404698609     1.695453520762     1.007825032230
         H           -1.219258175845    -2.301618698609     0.642608520762     1.007825032230
         H           -2.444159175845     1.333102301391    -0.151562479238     1.007825032230

  Basis Set: AUG-CC-PVTZ
    Blend: AUG-CC-PVTZ
  Basis Set: (AUG-CC-PVTZ AUX)
    Blend: AUG-CC-PVTZ-JKFIT
	 Reference Energy          =    -439.1363571980888310 [Eh]
	 Singles Energy            =      -0.0000000000000000 [Eh]
	 Same-Spin Energy          =      -0.4463660408446824 [Eh]
	 Opposite-Spin Energy      =      -1.4642253199257071 [Eh]
	 Correlation Energy        =      -1.9105913607703895 [Eh]
	 Total Energy              =    -441.0469485588592420 [Eh]

	 ================> DF-SCS-MP2 Energies <==================
	-----------------------------------------------------------
	 SCS Same-Spin Scale       =       0.3333333333333333 [-]
	 SCS Opposite-Spin Scale   =       1.2000000000000000 [-]
	 SCS Same-Spin Energy      =      -0.1487886802815608 [Eh]
	 SCS Opposite-Spin Energy  =      -1.7570703839108486 [Eh]
	 SCS Correlation Energy    =      -1.9058590641924094 [Eh]
	 SCS Total Energy          =    -441.0422162622812152 [Eh]
	-----------------------------------------------------------

  Dipole Moment: [D]
     X:     3.4557      Y:    -3.1154      Z:    -0.1564     Total:     4.6554

*** Psi4 exiting successfully. Buy a developer a beer!
