                               Psi4 1.3.2 release

  ==> Input File <==

--------------------------------------------------------------------------
#psi4
#
memory 32 gb

molecule  {
0 1
  O       -2.8692073     0.4670961    -0.2820030
  O       -0.5220660     1.5374290     0.0548780
  N        0.6562510    -0.3746370    -0.3360270
  C        1.9647450     0.2268840    -0.0956960
  C       -1.8012180    -0.4504720    -0.3698720
  C        3.0067800    -0.5070980    -0.9241520
  C        2.2930000     0.2310680     1.3932270
  C       -0.4931590     0.3235730    -0.1949090
  C       -1.9724170    -1.5121580     0.7102480
  H        1.8788190     1.2611790    -0.4401960
  H        0.6035260    -1.3822150    -0.4365740
  H       -1.7714623    -0.9390385    -1.3565443
  H        3.9904500    -0.0508330    -0.7882090
  H        3.0812650    -1.5550640    -0.6116920
  H        2.7529100    -0.4768670    -1.9861430
  H        1.5225120     0.7762450     1.9430400
  H        3.2574000     0.7146530     1.5762130
  H        2.3438960    -0.7932520     1.7757830
  H       -2.9590570    -1.9673470     0.6070900
  H       -1.9090200    -1.0432980     1.6949070
  H       -1.2193110    -2.3035120     0.6420620
  H       -2.4442120     1.3312090    -0.1521090
units angstrom
no_reorient  #important for SAPT in psi4, default
symmetry c1  #important for SAPT in psi4, default
}

set PROPERTIES_ORIGIN ["COM"]
properties('MP2/aug-cc-pvtz', properties = ['dipole'])
--------------------------------------------------------------------------

    Molecular point group: c1
  Charge       = 0
  Multiplicity = 1
  Basis Set: AUG-CC-PVTZ
    Blend: AUG-CC-PVTZ
  Basis Set: (AUG-CC-PVTZ AUX)
    Blend: AUG-CC-PVTZ-JKFIT

    Orbital Energies [Eh]
    ---------------------

    Doubly Occupied:

       1A    -20.547351     2A    -20.531917     3A    -15.595420
       4A    -11.357800     5A    -11.297853     6A    -11.277059
       7A    -11.232199     8A    -11.230546     9A    -11.222128
      10A     -1.397703    11A     -1.347385    12A     -1.247744
      13A     -1.072348    14A     -1.024365    15A     -0.949723
      16A     -0.895115    17A     -0.822527    18A     -0.794847
      19A     -0.736860    20A     -0.680464    21A     -0.651302
      22A     -0.632297    23A     -0.628560    24A     -0.596837
      25A     -0.581558    26A     -0.567032    27A     -0.554997
      28A     -0.548002    29A     -0.539786    30A     -0.530160
      31A     -0.512380    32A     -0.502618    33A     -0.491272
      34A     -0.445946    35A     -0.433832    36A     -0.401127

  @DF-RHF Final Energy:  -439.13827357960190

   => Energetics <=

    Nuclear Repulsion Energy =            485.5575552757259743
    One-Electron Energy =               -1561.6335418123039744
    Two-Electron Energy =                 636.9377129569761564
    Total Energy =                       -439.1382735796019006
  Basis Set: (AUG-CC-PVTZ AUX)
    Blend: AUG-CC-PVTZ-RI
    Molecular point group: c1

    Geometry (in Angstrom), charge = 0, multiplicity = 1:

       Center              X                  Y                   Z               Mass
    ------------   -----------------  -----------------  -----------------  -----------------
         O           -2.870109829754     0.466491488768    -0.284862255476    15.994914619570
         O           -0.522968529754     1.536824388768     0.052018744524    15.994914619570
         N            0.655348470246    -0.375241611232    -0.338886255476    14.003074004430
         C            1.963842470246     0.226279388768    -0.098555255476    12.000000000000
         C           -1.802120529754    -0.451076611232    -0.372731255476    12.000000000000
         C            3.005877470246    -0.507702611232    -0.927011255476    12.000000000000
         C            2.292097470246     0.230463388768     1.390367744524    12.000000000000
         C           -0.494061529754     0.322968388768    -0.197768255476    12.000000000000
         C           -1.973319529754    -1.512762611232     0.707388744524    12.000000000000
         H            1.877916470246     1.260574388768    -0.443055255476     1.007825032230
         H            0.602623470246    -1.382819611232    -0.439433255476     1.007825032230
         H           -1.772364829754    -0.939643111232    -1.359403555476     1.007825032230
         H            3.989547470246    -0.051437611232    -0.791068255476     1.007825032230
         H            3.080362470246    -1.555668611232    -0.614551255476     1.007825032230
         H            2.752007470246    -0.477471611232    -1.989002255476     1.007825032230
         H            1.521609470246     0.775640388768     1.940180744524     1.007825032230
         H            3.256497470246     0.714048388768     1.573353744524     1.007825032230
         H            2.342993470246    -0.793856611232     1.772923744524     1.007825032230
         H           -2.959959529754    -1.967951611232     0.604230744524     1.007825032230
         H           -1.909922529754    -1.043902611232     1.692047744524     1.007825032230
         H           -1.220213529754    -2.304116611232     0.639202744524     1.007825032230
         H           -2.445114529754     1.330604388768    -0.154968255476     1.007825032230

  Basis Set: AUG-CC-PVTZ
    Blend: AUG-CC-PVTZ
  Basis Set: (AUG-CC-PVTZ AUX)
    Blend: AUG-CC-PVTZ-JKFIT
	 Reference Energy          =    -439.1382735796019006 [Eh]
	 Singles Energy            =      -0.0000000000000000 [Eh]
	 Same-Spin Energy          =      -0.4458859310047681 [Eh]
	 Opposite-Spin Energy      =      -1.4632721404268623 [Eh]
	 Correlation Energy        =      -1.9091580714316303 [Eh]
	 Total Energy              =    -441.0474316510335484 [Eh]

	 ================> DF-SCS-MP2 Energies <==================
	-----------------------------------------------------------
	 SCS Same-Spin Scale       =       0.3333333333333333 [-]
	 SCS Opposite-Spin Scale   =       1.2000000000000000 [-]
	 SCS Same-Spin Energy      =      -0.1486286436682560 [Eh]
	 SCS Opposite-Spin Energy  =      -1.7559265685122347 [Eh]
	 SCS Correlation Energy    =      -1.9045552121804907 [Eh]
	 SCS Total Energy          =    -441.0428287917823695 [Eh]
	-----------------------------------------------------------

  Dipole Moment: [D]
     X:     3.4342      Y:    -3.0644      Z:    -0.1892     Total:     4.6065

*** Psi4 exiting successfully. Buy a developer a beer!
