                               Psi4 1.3.2 release

  ==> Input File <==

--------------------------------------------------------------------------
#psi4
#
memory 32 gb

molecule  {
0 1
  O       -2.8756320     0.4615000    -0.3051040
  O       -0.5220660     1.5374290     0.0548780
  N        0.6306931    -0.4134025    -0.3445030
  C        1.9647450     0.2268840    -0.0956960
  C       -1.7727284    -0.4946828    -0.3791252
  C        3.0067800    -0.5070980    -0.9241520
  C        2.2930000     0.2310680     1.3932270
  C       -0.4931590     0.3235730    -0.1949090
  C       -1.9724170    -1.5121580     0.7102480
  H        1.8788190     1.2611790    -0.4401960
  H        0.6035260    -1.3822150    -0.4365740
  H       -1.7868920    -0.9288770    -1.3618540
  H        3.9904500    -0.0508330    -0.7882090
  H        3.0812650    -1.5550640    -0.6116920
  H        2.7529100    -0.4768670    -1.9861430
  H        1.5225120     0.7762450     1.9430400
  H        3.2574000     0.7146530     1.5762130
  H        2.3438960    -0.7932520     1.7757830
  H       -2.9590570    -1.9673470     0.6070900
  H       -1.9090200    -1.0432980     1.6949070
  H       -1.2193110    -2.3035120     0.6420620
  H       -2.4442120     1.3312090    -0.1521090
units angstrom
no_reorient  #important for SAPT in psi4, default
symmetry c1  #important for SAPT in psi4, default
}

set PROPERTIES_ORIGIN ["COM"]
properties('MP2/aug-cc-pvtz', properties = ['dipole'])
--------------------------------------------------------------------------

    Molecular point group: c1
  Charge       = 0
  Multiplicity = 1
  Basis Set: AUG-CC-PVTZ
    Blend: AUG-CC-PVTZ
  Basis Set: (AUG-CC-PVTZ AUX)
    Blend: AUG-CC-PVTZ-JKFIT

    Orbital Energies [Eh]
    ---------------------

    Doubly Occupied:

       1A    -20.540595     2A    -20.535344     3A    -15.593482
       4A    -11.360277     5A    -11.294274     6A    -11.280837
       7A    -11.233016     8A    -11.230960     9A    -11.224108
      10A     -1.393272    11A     -1.327233    12A     -1.247757
      13A     -1.074938    14A     -1.028455    15A     -0.950612
      16A     -0.895533    17A     -0.820952    18A     -0.803869
      19A     -0.728719    20A     -0.677074    21A     -0.648258
      22A     -0.633801    23A     -0.626644    24A     -0.600057
      25A     -0.578507    26A     -0.566046    27A     -0.555691
      28A     -0.546952    29A     -0.535226    30A     -0.529835
      31A     -0.507549    32A     -0.502577    33A     -0.491856
      34A     -0.447902    35A     -0.434363    36A     -0.405711

  @DF-RHF Final Energy:  -439.13156720932113

   => Energetics <=

    Nuclear Repulsion Energy =            484.6390457212198157
    One-Electron Energy =               -1559.8366658447662303
    Two-Electron Energy =                 636.0660529142252244
    Total Energy =                       -439.1315672093211333
  Basis Set: (AUG-CC-PVTZ AUX)
    Blend: AUG-CC-PVTZ-RI
    Molecular point group: c1

    Geometry (in Angstrom), charge = 0, multiplicity = 1:

       Center              X                  Y                   Z               Mass
    ------------   -----------------  -----------------  -----------------  -----------------
         O           -2.875509873501     0.469687769545    -0.303351485851    15.994914619570
         O           -0.521943873501     1.545616769545     0.056630514149    15.994914619570
         N            0.630815226499    -0.405214730455    -0.342750485851    14.003074004430
         C            1.964867126499     0.235071769545    -0.093943485851    12.000000000000
         C           -1.772606273501    -0.486495030455    -0.377372685851    12.000000000000
         C            3.006902126499    -0.498910230455    -0.922399485851    12.000000000000
         C            2.293122126499     0.239255769545     1.394979514149    12.000000000000
         C           -0.493036873501     0.331760769545    -0.193156485851    12.000000000000
         C           -1.972294873501    -1.503970230455     0.712000514149    12.000000000000
         H            1.878941126499     1.269366769545    -0.438443485851     1.007825032230
         H            0.603648126499    -1.374027230455    -0.434821485851     1.007825032230
         H           -1.786769873501    -0.920689230455    -1.360101485851     1.007825032230
         H            3.990572126499    -0.042645230455    -0.786456485851     1.007825032230
         H            3.081387126499    -1.546876230455    -0.609939485851     1.007825032230
         H            2.753032126499    -0.468679230455    -1.984390485851     1.007825032230
         H            1.522634126499     0.784432769545     1.944792514149     1.007825032230
         H            3.257522126499     0.722840769545     1.577965514149     1.007825032230
         H            2.344018126499    -0.785064230455     1.777535514149     1.007825032230
         H           -2.958934873501    -1.959159230455     0.608842514149     1.007825032230
         H           -1.908897873501    -1.035110230455     1.696659514149     1.007825032230
         H           -1.219188873501    -2.295324230455     0.643814514149     1.007825032230
         H           -2.444089873501     1.339396769545    -0.150356485851     1.007825032230

  Basis Set: AUG-CC-PVTZ
    Blend: AUG-CC-PVTZ
  Basis Set: (AUG-CC-PVTZ AUX)
    Blend: AUG-CC-PVTZ-JKFIT
	 Reference Energy          =    -439.1315672093211333 [Eh]
	 Singles Energy            =      -0.0000000000000000 [Eh]
	 Same-Spin Energy          =      -0.4458801122650750 [Eh]
	 Opposite-Spin Energy      =      -1.4644916831316450 [Eh]
	 Correlation Energy        =      -1.9103717953967201 [Eh]
	 Total Energy              =    -441.0419390047178467 [Eh]

	 ================> DF-SCS-MP2 Energies <==================
	-----------------------------------------------------------
	 SCS Same-Spin Scale       =       0.3333333333333333 [-]
	 SCS Opposite-Spin Scale   =       1.2000000000000000 [-]
	 SCS Same-Spin Energy      =      -0.1486267040883583 [Eh]
	 SCS Opposite-Spin Energy  =      -1.7573900197579739 [Eh]
	 SCS Correlation Energy    =      -1.9060167238463324 [Eh]
	 SCS Total Energy          =    -441.0375839331674683 [Eh]
	-----------------------------------------------------------

  Dipole Moment: [D]
     X:     3.6688      Y:    -3.1261      Z:    -0.1113     Total:     4.8213

*** Psi4 exiting successfully. Buy a developer a beer!
