                               Psi4 1.4a3.dev225

  ==> Input File <==

--------------------------------------------------------------------------
#psi4
#
memory 32 gb

molecule  {
0 1
  O        2.9110620    -0.5703060    -0.4523520
  O        0.5539390    -1.5540470     0.1662040
  N       -0.5943370     0.3369340    -0.3930300
  C       -1.9154150    -0.2304160    -0.1256420
  C        1.8655780     0.3788930    -0.3941620
  C       -2.9513150     0.5221750    -0.9483650
  C       -2.2232580    -0.2086170     1.3682650
  C        0.5443190    -0.3662470    -0.1910430
  C        2.1035320     1.3624180     0.7499890
  H       -1.8664900    -1.2716350    -0.4595930
  H       -0.5281980     1.3181660    -0.6377390
  H        1.8317100     0.9202690    -1.3505730
  H       -3.9433690     0.0896600    -0.7945050
  H       -2.9965010     1.5743390    -0.6446630
  H       -2.7149650     0.4749500    -2.0147890
  H       -1.4563020    -0.7629570     1.9136170
  H       -3.1950150    -0.6709470     1.5682930
  H       -2.2473660     0.8219210     1.7368640
  H        3.0888910     1.8183940     0.6312910
  H        2.0827360     0.8223960     1.7004970
  H        1.3487660     2.1553220     0.7756360
  H        2.5169486    -1.3604329    -0.1541888
units angstrom
no_reorient  #important for SAPT in psi4, default
symmetry c1  #important for SAPT in psi4, default
}

set PROPERTIES_ORIGIN ["COM"]
properties('MP2/aug-cc-pvtz', properties = ['dipole'])
--------------------------------------------------------------------------

    Molecular point group: c1
  Charge       = 0
  Multiplicity = 1
  Basis Set: AUG-CC-PVTZ
    Blend: AUG-CC-PVTZ
  Basis Set: (AUG-CC-PVTZ AUX)
    Blend: AUG-CC-PVTZ-JKFIT

    Orbital Energies [Eh]
    ---------------------

    Doubly Occupied:

       1A    -20.546460     2A    -20.530655     3A    -15.595911
       4A    -11.357849     5A    -11.298599     6A    -11.277945
       7A    -11.233387     8A    -11.230417     9A    -11.220898
      10A     -1.398504    11A     -1.354706    12A     -1.246413
      13A     -1.071843    14A     -1.025610    15A     -0.949435
      16A     -0.894518    17A     -0.823001    18A     -0.795281
      19A     -0.742532    20A     -0.678545    21A     -0.644987
      22A     -0.635360    23A     -0.629247    24A     -0.595197
      25A     -0.584076    26A     -0.573083    27A     -0.555077
      28A     -0.548559    29A     -0.537745    30A     -0.528962
      31A     -0.515793    32A     -0.501987    33A     -0.491198
      34A     -0.448425    35A     -0.431126    36A     -0.401016

  @DF-RHF Final Energy:  -439.13861282765276

   => Energetics <=

    Nuclear Repulsion Energy =            485.3203261734515763
    One-Electron Energy =               -1561.1291834631524580
    Two-Electron Energy =                 636.6702444620481174
    Total Energy =                       -439.1386128276527643
  Basis Set: (AUG-CC-PVTZ AUX)
    Blend: AUG-CC-PVTZ-RI
    Molecular point group: c1

    Geometry (in Angstrom), charge = 0, multiplicity = 1:

       Center              X                  Y                   Z               Mass
    ------------   -----------------  -----------------  -----------------  -----------------
         O            2.849741653045    -0.526166755088    -0.434928510931    15.994914619570
         O            0.492618653045    -1.509907755088     0.183627489069    15.994914619570
         N           -0.655657346955     0.381073244912    -0.375606510931    14.003074004430
         C           -1.976735346955    -0.186276755088    -0.108218510931    12.000000000000
         C            1.804257653045     0.423032244912    -0.376738510931    12.000000000000
         C           -3.012635346955     0.566314244912    -0.930941510931    12.000000000000
         C           -2.284578346955    -0.164477755088     1.385688489069    12.000000000000
         C            0.482998653045    -0.322107755088    -0.173619510931    12.000000000000
         C            2.042211653045     1.406557244912     0.767412489069    12.000000000000
         H           -1.927810346955    -1.227495755088    -0.442169510931     1.007825032230
         H           -0.589518346955     1.362305244912    -0.620315510931     1.007825032230
         H            1.770389653045     0.964408244912    -1.333149510931     1.007825032230
         H           -4.004689346955     0.133799244912    -0.777081510931     1.007825032230
         H           -3.057821346955     1.618478244912    -0.627239510931     1.007825032230
         H           -2.776285346955     0.519089244912    -1.997365510931     1.007825032230
         H           -1.517622346955    -0.718817755088     1.931040489069     1.007825032230
         H           -3.256335346955    -0.626807755088     1.585716489069     1.007825032230
         H           -2.308686346955     0.866060244912     1.754287489069     1.007825032230
         H            3.027570653045     1.862533244912     0.648714489069     1.007825032230
         H            2.021415653045     0.866535244912     1.717920489069     1.007825032230
         H            1.287445653045     2.199461244912     0.793059489069     1.007825032230
         H            2.455628253045    -1.316293655088    -0.136765310931     1.007825032230

  Basis Set: AUG-CC-PVTZ
    Blend: AUG-CC-PVTZ
  Basis Set: (AUG-CC-PVTZ AUX)
    Blend: AUG-CC-PVTZ-JKFIT
	 Reference Energy          =    -439.1386128276527643 [Eh]
	 Singles Energy            =      -0.0000000000000000 [Eh]
	 Same-Spin Energy          =      -0.4451788670495411 [Eh]
	 Opposite-Spin Energy      =      -1.4622695767249767 [Eh]
	 Correlation Energy        =      -1.9074484437745178 [Eh]
	 Total Energy              =    -441.0460612714272770 [Eh]

	 ================> DF-SCS-MP2 Energies <==================
	-----------------------------------------------------------
	 SCS Same-Spin Scale       =       0.3333333333333333 [-]
	 SCS Opposite-Spin Scale   =       1.2000000000000000 [-]
	 SCS Same-Spin Energy      =      -0.1483929556831804 [Eh]
	 SCS Opposite-Spin Energy  =      -1.7547234920699719 [Eh]
	 SCS Correlation Energy    =      -1.9031164477531524 [Eh]
	 SCS Total Energy          =    -441.0417292754059417 [Eh]
	-----------------------------------------------------------

  Dipole Moment: [D]
     X:    -3.3288      Y:     3.1787      Z:    -0.2009     Total:     4.6072

*** Psi4 exiting successfully. Buy a developer a beer!
