                               Psi4 1.3.2 release

  ==> Input File <==

--------------------------------------------------------------------------
#psi4
#
memory 32 gb

molecule  {
0 1
  O       -2.8756320     0.4615000    -0.3051040
  O       -0.5220660     1.5374290     0.0548780
  N        0.6562510    -0.3746370    -0.3360270
  C        1.9647450     0.2268840    -0.0956960
  C       -1.8012180    -0.4504720    -0.3698720
  C        3.0067800    -0.5070980    -0.9241520
  C        2.2930000     0.2310680     1.3932270
  C       -0.4823711     0.2937832    -0.1519199
  C       -1.9257748    -1.4972123     0.7310212
  H        1.8788190     1.2611790    -0.4401960
  H        0.6035260    -1.3822150    -0.4365740
  H       -1.7868920    -0.9288770    -1.3618540
  H        3.9904500    -0.0508330    -0.7882090
  H        3.0812650    -1.5550640    -0.6116920
  H        2.7529100    -0.4768670    -1.9861430
  H        1.5225120     0.7762450     1.9430400
  H        3.2574000     0.7146530     1.5762130
  H        2.3438960    -0.7932520     1.7757830
  H       -2.9590570    -1.9673470     0.6070900
  H       -1.9090200    -1.0432980     1.6949070
  H       -1.2193110    -2.3035120     0.6420620
  H       -2.4442120     1.3312090    -0.1521090
units angstrom
no_reorient  #important for SAPT in psi4, default
symmetry c1  #important for SAPT in psi4, default
}

set PROPERTIES_ORIGIN ["COM"]
properties('MP2/aug-cc-pvtz', properties = ['dipole'])
--------------------------------------------------------------------------

    Molecular point group: c1
  Charge       = 0
  Multiplicity = 1
  Basis Set: AUG-CC-PVTZ
    Blend: AUG-CC-PVTZ
  Basis Set: (AUG-CC-PVTZ AUX)
    Blend: AUG-CC-PVTZ-JKFIT

    Orbital Energies [Eh]
    ---------------------

    Doubly Occupied:

       1A    -20.548146     2A    -20.526719     3A    -15.599831
       4A    -11.356836     5A    -11.298183     6A    -11.279091
       7A    -11.233881     8A    -11.230784     9A    -11.223748
      10A     -1.387884    11A     -1.342217    12A     -1.251624
      13A     -1.075891    14A     -1.026257    15A     -0.951456
      16A     -0.893604    17A     -0.825321    18A     -0.798615
      19A     -0.736136    20A     -0.679821    21A     -0.651447
      22A     -0.631798    23A     -0.626958    24A     -0.597122
      25A     -0.582727    26A     -0.563867    27A     -0.556730
      28A     -0.548296    29A     -0.540289    30A     -0.531156
      31A     -0.507547    32A     -0.501913    33A     -0.490210
      34A     -0.446355    35A     -0.428820    36A     -0.402656

  @DF-RHF Final Energy:  -439.13082973231548

   => Energetics <=

    Nuclear Repulsion Energy =            485.7570652026458902
    One-Electron Energy =               -1562.0279196342107753
    Two-Electron Energy =                 637.1400246992493521
    Total Energy =                       -439.1308297323155330
  Basis Set: (AUG-CC-PVTZ AUX)
    Blend: AUG-CC-PVTZ-RI
    Molecular point group: c1

    Geometry (in Angstrom), charge = 0, multiplicity = 1:

       Center              X                  Y                   Z               Mass
    ------------   -----------------  -----------------  -----------------  -----------------
         O           -2.880889004380     0.462858835557    -0.310940477600    15.994914619570
         O           -0.527323004380     1.538787835557     0.049041522400    15.994914619570
         N            0.650993995620    -0.373278164443    -0.341863477600    14.003074004430
         C            1.959487995620     0.228242835557    -0.101532477600    12.000000000000
         C           -1.806475004380    -0.449113164443    -0.375708477600    12.000000000000
         C            3.001522995620    -0.505739164443    -0.929988477600    12.000000000000
         C            2.287742995620     0.232426835557     1.387390522400    12.000000000000
         C           -0.487628104380     0.295142035557    -0.157756377600    12.000000000000
         C           -1.931031804380    -1.495853464443     0.725184722400    12.000000000000
         H            1.873561995620     1.262537835557    -0.446032477600     1.007825032230
         H            0.598268995620    -1.380856164443    -0.442410477600     1.007825032230
         H           -1.792149004380    -0.927518164443    -1.367690477600     1.007825032230
         H            3.985192995620    -0.049474164443    -0.794045477600     1.007825032230
         H            3.076007995620    -1.553705164443    -0.617528477600     1.007825032230
         H            2.747652995620    -0.475508164443    -1.991979477600     1.007825032230
         H            1.517254995620     0.777603835557     1.937203522400     1.007825032230
         H            3.252142995620     0.716011835557     1.570376522400     1.007825032230
         H            2.338638995620    -0.791893164443     1.769946522400     1.007825032230
         H           -2.964314004380    -1.965988164443     0.601253522400     1.007825032230
         H           -1.914277004380    -1.041939164443     1.689070522400     1.007825032230
         H           -1.224568004380    -2.302153164443     0.636225522400     1.007825032230
         H           -2.449469004380     1.332567835557    -0.157945477600     1.007825032230

  Basis Set: AUG-CC-PVTZ
    Blend: AUG-CC-PVTZ
  Basis Set: (AUG-CC-PVTZ AUX)
    Blend: AUG-CC-PVTZ-JKFIT
	 Reference Energy          =    -439.1308297323154761 [Eh]
	 Singles Energy            =      -0.0000000000000000 [Eh]
	 Same-Spin Energy          =      -0.4467086315312703 [Eh]
	 Opposite-Spin Energy      =      -1.4648757836546620 [Eh]
	 Correlation Energy        =      -1.9115844151859323 [Eh]
	 Total Energy              =    -441.0424141475014039 [Eh]

	 ================> DF-SCS-MP2 Energies <==================
	-----------------------------------------------------------
	 SCS Same-Spin Scale       =       0.3333333333333333 [-]
	 SCS Opposite-Spin Scale   =       1.2000000000000000 [-]
	 SCS Same-Spin Energy      =      -0.1489028771770901 [Eh]
	 SCS Opposite-Spin Energy  =      -1.7578509403855944 [Eh]
	 SCS Correlation Energy    =      -1.9067538175626846 [Eh]
	 SCS Total Energy          =    -441.0375835498781498 [Eh]
	-----------------------------------------------------------

  Dipole Moment: [D]
     X:     3.6056      Y:    -3.1925      Z:    -0.1419     Total:     4.8179

*** Psi4 exiting successfully. Buy a developer a beer!
