                               Psi4 1.3.2 release

  ==> Input File <==

--------------------------------------------------------------------------
#psi4
#
memory 32 gb

molecule  {
0 1
  O       -2.8756320     0.4615000    -0.3051040
  O       -0.5220660     1.5374290     0.0548780
  N        0.6562510    -0.3746370    -0.3360270
  C        1.9700623     0.2153097    -0.0960147
  C       -1.8012180    -0.4504720    -0.3698720
  C        3.0067800    -0.5070980    -0.9241520
  C        2.2930000     0.2310680     1.3932270
  C       -0.4931590     0.3235730    -0.1949090
  C       -1.9724170    -1.5121580     0.7102480
  H        1.8788190     1.2611790    -0.4401960
  H        0.6122781    -1.3827525    -0.4353879
  H       -1.7868920    -0.9288770    -1.3618540
  H        3.9904500    -0.0508330    -0.7882090
  H        3.0812650    -1.5550640    -0.6116920
  H        2.7529100    -0.4768670    -1.9861430
  H        1.5225120     0.7762450     1.9430400
  H        3.2574000     0.7146530     1.5762130
  H        2.3438960    -0.7932520     1.7757830
  H       -2.9590570    -1.9673470     0.6070900
  H       -1.9090200    -1.0432980     1.6949070
  H       -1.2193110    -2.3035120     0.6420620
  H       -2.4442120     1.3312090    -0.1521090
units angstrom
no_reorient  #important for SAPT in psi4, default
symmetry c1  #important for SAPT in psi4, default
}

set PROPERTIES_ORIGIN ["COM"]
properties('MP2/aug-cc-pvtz', properties = ['dipole'])
--------------------------------------------------------------------------

    Molecular point group: c1
  Charge       = 0
  Multiplicity = 1
  Basis Set: AUG-CC-PVTZ
    Blend: AUG-CC-PVTZ
  Basis Set: (AUG-CC-PVTZ AUX)
    Blend: AUG-CC-PVTZ-JKFIT

    Orbital Energies [Eh]
    ---------------------

    Doubly Occupied:

       1A    -20.547779     2A    -20.532581     3A    -15.595734
       4A    -11.358672     5A    -11.297352     6A    -11.277423
       7A    -11.232269     8A    -11.230694     9A    -11.222350
      10A     -1.397271    11A     -1.345903    12A     -1.248116
      13A     -1.073097    14A     -1.024103    15A     -0.950829
      16A     -0.895208    17A     -0.821185    18A     -0.795239
      19A     -0.736536    20A     -0.678327    21A     -0.649366
      22A     -0.632236    23A     -0.629942    24A     -0.597224
      25A     -0.581966    26A     -0.567373    27A     -0.555157
      28A     -0.548192    29A     -0.539582    30A     -0.530048
      31A     -0.512155    32A     -0.504801    33A     -0.488919
      34A     -0.444913    35A     -0.434486    36A     -0.401443

  @DF-RHF Final Energy:  -439.13741959343866

   => Energetics <=

    Nuclear Repulsion Energy =            485.3426213377729255
    One-Electron Energy =               -1561.2031321761289746
    Two-Electron Energy =                 636.7230912449173275
    Total Energy =                       -439.1374195934387217
  Basis Set: (AUG-CC-PVTZ AUX)
    Blend: AUG-CC-PVTZ-RI
    Molecular point group: c1

    Geometry (in Angstrom), charge = 0, multiplicity = 1:

       Center              X                  Y                   Z               Mass
    ------------   -----------------  -----------------  -----------------  -----------------
         O           -2.876186042704     0.462563660274    -0.305083817975    15.994914619570
         O           -0.522620042704     1.538492660274     0.054898182025    15.994914619570
         N            0.655696957296    -0.373573339726    -0.336006817975    14.003074004430
         C            1.969508257296     0.216373360274    -0.095994517975    12.000000000000
         C           -1.801772042704    -0.449408339726    -0.369851817975    12.000000000000
         C            3.006225957296    -0.506034339726    -0.924131817975    12.000000000000
         C            2.292445957296     0.232131660274     1.393247182025    12.000000000000
         C           -0.493713042704     0.324636660274    -0.194888817975    12.000000000000
         C           -1.972971042704    -1.511094339726     0.710268182025    12.000000000000
         H            1.878264957296     1.262242660274    -0.440175817975     1.007825032230
         H            0.611724057296    -1.381688839726    -0.435367717975     1.007825032230
         H           -1.787446042704    -0.927813339726    -1.361833817975     1.007825032230
         H            3.989895957296    -0.049769339726    -0.788188817975     1.007825032230
         H            3.080710957296    -1.554000339726    -0.611671817975     1.007825032230
         H            2.752355957296    -0.475803339726    -1.986122817975     1.007825032230
         H            1.521957957296     0.777308660274     1.943060182025     1.007825032230
         H            3.256845957296     0.715716660274     1.576233182025     1.007825032230
         H            2.343341957296    -0.792188339726     1.775803182025     1.007825032230
         H           -2.959611042704    -1.966283339726     0.607110182025     1.007825032230
         H           -1.909574042704    -1.042234339726     1.694927182025     1.007825032230
         H           -1.219865042704    -2.302448339726     0.642082182025     1.007825032230
         H           -2.444766042704     1.332272660274    -0.152088817975     1.007825032230

  Basis Set: AUG-CC-PVTZ
    Blend: AUG-CC-PVTZ
  Basis Set: (AUG-CC-PVTZ AUX)
    Blend: AUG-CC-PVTZ-JKFIT
	 Reference Energy          =    -439.1374195934386648 [Eh]
	 Singles Energy            =      -0.0000000000000000 [Eh]
	 Same-Spin Energy          =      -0.4461264182762659 [Eh]
	 Opposite-Spin Energy      =      -1.4637620758998851 [Eh]
	 Correlation Energy        =      -1.9098884941761509 [Eh]
	 Total Energy              =    -441.0473080876147947 [Eh]

	 ================> DF-SCS-MP2 Energies <==================
	-----------------------------------------------------------
	 SCS Same-Spin Scale       =       0.3333333333333333 [-]
	 SCS Opposite-Spin Scale   =       1.2000000000000000 [-]
	 SCS Same-Spin Energy      =      -0.1487088060920886 [Eh]
	 SCS Opposite-Spin Energy  =      -1.7565144910798620 [Eh]
	 SCS Correlation Energy    =      -1.9052232971719507 [Eh]
	 SCS Total Energy          =    -441.0426428906106366 [Eh]
	-----------------------------------------------------------

  Dipole Moment: [D]
     X:     3.4699      Y:    -3.0637      Z:    -0.1456     Total:     4.6311

*** Psi4 exiting successfully. Buy a developer a beer!
