                               Psi4 1.3.2 release

  ==> Input File <==

--------------------------------------------------------------------------
#psi4
#
memory 32 gb

molecule  {
0 1
  O       -2.8756320     0.4615000    -0.3051040
  O       -0.5220660     1.5374290     0.0548780
  N        0.6562510    -0.3746370    -0.3360270
  C        1.9647450     0.2268840    -0.0956960
  C       -1.8012180    -0.4504720    -0.3698720
  C        3.0067800    -0.5070980    -0.9241520
  C        2.2930000     0.2310680     1.3932270
  C       -0.4892825     0.3196557    -0.2070698
  C       -1.9724170    -1.5121580     0.7102480
  H        1.8788190     1.2611790    -0.4401960
  H        0.6035260    -1.3822150    -0.4365740
  H       -1.7782034    -0.9251104    -1.3634985
  H        3.9904500    -0.0508330    -0.7882090
  H        3.0812650    -1.5550640    -0.6116920
  H        2.7529100    -0.4768670    -1.9861430
  H        1.5225120     0.7762450     1.9430400
  H        3.2574000     0.7146530     1.5762130
  H        2.3438960    -0.7932520     1.7757830
  H       -2.9590570    -1.9673470     0.6070900
  H       -1.9090200    -1.0432980     1.6949070
  H       -1.2193110    -2.3035120     0.6420620
  H       -2.4442120     1.3312090    -0.1521090
units angstrom
no_reorient  #important for SAPT in psi4, default
symmetry c1  #important for SAPT in psi4, default
}

set PROPERTIES_ORIGIN ["COM"]
properties('MP2/aug-cc-pvtz', properties = ['dipole'])
--------------------------------------------------------------------------

    Molecular point group: c1
  Charge       = 0
  Multiplicity = 1
  Basis Set: AUG-CC-PVTZ
    Blend: AUG-CC-PVTZ
  Basis Set: (AUG-CC-PVTZ AUX)
    Blend: AUG-CC-PVTZ-JKFIT

    Orbital Energies [Eh]
    ---------------------

    Doubly Occupied:

       1A    -20.547673     2A    -20.530659     3A    -15.597017
       4A    -11.357962     5A    -11.297440     6A    -11.277886
       7A    -11.232753     8A    -11.230967     9A    -11.222619
      10A     -1.394202    11A     -1.344761    12A     -1.249352
      13A     -1.073185    14A     -1.024070    15A     -0.950248
      16A     -0.895700    17A     -0.823185    18A     -0.796394
      19A     -0.735591    20A     -0.678731    21A     -0.650100
      22A     -0.631409    23A     -0.628872    24A     -0.596785
      25A     -0.581403    26A     -0.567153    27A     -0.555496
      28A     -0.548602    29A     -0.539530    30A     -0.529866
      31A     -0.511309    32A     -0.502545    33A     -0.491617
      34A     -0.445011    35A     -0.433429    36A     -0.401688

  @DF-RHF Final Energy:  -439.13730133234037

   => Energetics <=

    Nuclear Repulsion Energy =            485.3105910760496613
    One-Electron Energy =               -1561.1453645564618000
    Two-Electron Energy =                 636.6974721480718244
    Total Energy =                       -439.1373013323403711
  Basis Set: (AUG-CC-PVTZ AUX)
    Blend: AUG-CC-PVTZ-RI
    Molecular point group: c1

    Geometry (in Angstrom), charge = 0, multiplicity = 1:

       Center              X                  Y                   Z               Mass
    ------------   -----------------  -----------------  -----------------  -----------------
         O           -2.876053668120     0.461829673072    -0.303978067487    15.994914619570
         O           -0.522487668120     1.537758673072     0.056003932513    15.994914619570
         N            0.655829331880    -0.374307326928    -0.334901067487    14.003074004430
         C            1.964323331880     0.227213673072    -0.094570067487    12.000000000000
         C           -1.801639668120    -0.450142326928    -0.368746067487    12.000000000000
         C            3.006358331880    -0.506768326928    -0.923026067487    12.000000000000
         C            2.292578331880     0.231397673072     1.394352932513    12.000000000000
         C           -0.489704168120     0.319985373072    -0.205943867487    12.000000000000
         C           -1.972838668120    -1.511828326928     0.711373932513    12.000000000000
         H            1.878397331880     1.261508673072    -0.439070067487     1.007825032230
         H            0.603104331880    -1.381885326928    -0.435448067487     1.007825032230
         H           -1.778625068120    -0.924780726928    -1.362372567487     1.007825032230
         H            3.990028331880    -0.050503326928    -0.787083067487     1.007825032230
         H            3.080843331880    -1.554734326928    -0.610566067487     1.007825032230
         H            2.752488331880    -0.476537326928    -1.985017067487     1.007825032230
         H            1.522090331880     0.776574673072     1.944165932513     1.007825032230
         H            3.256978331880     0.714982673072     1.577338932513     1.007825032230
         H            2.343474331880    -0.792922326928     1.776908932513     1.007825032230
         H           -2.959478668120    -1.967017326928     0.608215932513     1.007825032230
         H           -1.909441668120    -1.042968326928     1.696032932513     1.007825032230
         H           -1.219732668120    -2.303182326928     0.643187932513     1.007825032230
         H           -2.444633668120     1.331538673072    -0.150983067487     1.007825032230

  Basis Set: AUG-CC-PVTZ
    Blend: AUG-CC-PVTZ
  Basis Set: (AUG-CC-PVTZ AUX)
    Blend: AUG-CC-PVTZ-JKFIT
	 Reference Energy          =    -439.1373013323403711 [Eh]
	 Singles Energy            =      -0.0000000000000000 [Eh]
	 Same-Spin Energy          =      -0.4461387713730777 [Eh]
	 Opposite-Spin Energy      =      -1.4638225262031059 [Eh]
	 Correlation Energy        =      -1.9099612975761837 [Eh]
	 Total Energy              =    -441.0472626299165313 [Eh]

	 ================> DF-SCS-MP2 Energies <==================
	-----------------------------------------------------------
	 SCS Same-Spin Scale       =       0.3333333333333333 [-]
	 SCS Opposite-Spin Scale   =       1.2000000000000000 [-]
	 SCS Same-Spin Energy      =      -0.1487129237910259 [Eh]
	 SCS Opposite-Spin Energy  =      -1.7565870314437271 [Eh]
	 SCS Correlation Energy    =      -1.9052999552347529 [Eh]
	 SCS Total Energy          =    -441.0426012875751098 [Eh]
	-----------------------------------------------------------

  Dipole Moment: [D]
     X:     3.5033      Y:    -3.0999      Z:    -0.1529     Total:     4.6804

*** Psi4 exiting successfully. Buy a developer a beer!
