                               Psi4 1.3.2 release

  ==> Input File <==

--------------------------------------------------------------------------
#psi4
#
memory 32 gb

molecule  {
0 1
  O       -2.8595666     0.4798573    -0.3017630
  O       -0.5220660     1.5374290     0.0548780
  N        0.6562510    -0.3746370    -0.3360270
  C        1.9647450     0.2268840    -0.0956960
  C       -1.8012180    -0.4504720    -0.3698720
  C        3.0067800    -0.5070980    -0.9241520
  C        2.2930000     0.2310680     1.3932270
  C       -0.5071341     0.3462105    -0.1926151
  C       -1.9724170    -1.5121580     0.7102480
  H        1.8788190     1.2611790    -0.4401960
  H        0.6035260    -1.3822150    -0.4365740
  H       -1.7868920    -0.9288770    -1.3618540
  H        3.9904500    -0.0508330    -0.7882090
  H        3.0812650    -1.5550640    -0.6116920
  H        2.7529100    -0.4768670    -1.9861430
  H        1.5225120     0.7762450     1.9430400
  H        3.2574000     0.7146530     1.5762130
  H        2.3438960    -0.7932520     1.7757830
  H       -2.9590570    -1.9673470     0.6070900
  H       -1.9090200    -1.0432980     1.6949070
  H       -1.2193110    -2.3035120     0.6420620
  H       -2.4442120     1.3312090    -0.1521090
units angstrom
no_reorient  #important for SAPT in psi4, default
symmetry c1  #important for SAPT in psi4, default
}

set PROPERTIES_ORIGIN ["COM"]
properties('MP2/aug-cc-pvtz', properties = ['dipole'])
--------------------------------------------------------------------------

    Molecular point group: c1
  Charge       = 0
  Multiplicity = 1
  Basis Set: AUG-CC-PVTZ
    Blend: AUG-CC-PVTZ
  Basis Set: (AUG-CC-PVTZ AUX)
    Blend: AUG-CC-PVTZ-JKFIT

    Orbital Energies [Eh]
    ---------------------

    Doubly Occupied:

       1A    -20.546200     2A    -20.537537     3A    -15.590075
       4A    -11.358115     5A    -11.297903     6A    -11.274482
       7A    -11.231526     8A    -11.230289     9A    -11.220555
      10A     -1.410159    11A     -1.352871    12A     -1.241399
      13A     -1.068947    14A     -1.023609    15A     -0.947931
      16A     -0.894728    17A     -0.820172    18A     -0.790138
      19A     -0.739790    20A     -0.681546    21A     -0.650890
      22A     -0.635792    23A     -0.626944    24A     -0.597919
      25A     -0.582986    26A     -0.568971    27A     -0.553396
      28A     -0.546406    29A     -0.540486    30A     -0.531834
      31A     -0.515573    32A     -0.503063    33A     -0.490474
      34A     -0.446968    35A     -0.435477    36A     -0.398890

  @DF-RHF Final Energy:  -439.13929292249531

   => Energetics <=

    Nuclear Repulsion Energy =            485.6583831184649398
    One-Electron Energy =               -1561.8272733278367923
    Two-Electron Energy =                 637.0295972868766512
    Total Energy =                       -439.1392929224953150
  Basis Set: (AUG-CC-PVTZ AUX)
    Blend: AUG-CC-PVTZ-RI
    Molecular point group: c1

    Geometry (in Angstrom), charge = 0, multiplicity = 1:

       Center              X                  Y                   Z               Mass
    ------------   -----------------  -----------------  -----------------  -----------------
         O           -2.860247538184     0.475545402486    -0.302380485813    15.994914619570
         O           -0.522746938184     1.533117102486     0.054260514187    15.994914619570
         N            0.655570061816    -0.378948897514    -0.336644485813    14.003074004430
         C            1.964064061816     0.222572102486    -0.096313485813    12.000000000000
         C           -1.801898938184    -0.454783897514    -0.370489485813    12.000000000000
         C            3.006099061816    -0.511409897514    -0.924769485813    12.000000000000
         C            2.292319061816     0.226756102486     1.392609514187    12.000000000000
         C           -0.507815038184     0.341898602486    -0.193232585813    12.000000000000
         C           -1.973097938184    -1.516469897514     0.709630514187    12.000000000000
         H            1.878138061816     1.256867102486    -0.440813485813     1.007825032230
         H            0.602845061816    -1.386526897514    -0.437191485813     1.007825032230
         H           -1.787572938184    -0.933188897514    -1.362471485813     1.007825032230
         H            3.989769061816    -0.055144897514    -0.788826485813     1.007825032230
         H            3.080584061816    -1.559375897514    -0.612309485813     1.007825032230
         H            2.752229061816    -0.481178897514    -1.986760485813     1.007825032230
         H            1.521831061816     0.771933102486     1.942422514187     1.007825032230
         H            3.256719061816     0.710341102486     1.575595514187     1.007825032230
         H            2.343215061816    -0.797563897514     1.775165514187     1.007825032230
         H           -2.959737938184    -1.971658897514     0.606472514187     1.007825032230
         H           -1.909700938184    -1.047609897514     1.694289514187     1.007825032230
         H           -1.219991938184    -2.307823897514     0.641444514187     1.007825032230
         H           -2.444892938184     1.326897102486    -0.152726485813     1.007825032230

  Basis Set: AUG-CC-PVTZ
    Blend: AUG-CC-PVTZ
  Basis Set: (AUG-CC-PVTZ AUX)
    Blend: AUG-CC-PVTZ-JKFIT
	 Reference Energy          =    -439.1392929224953150 [Eh]
	 Singles Energy            =      -0.0000000000000000 [Eh]
	 Same-Spin Energy          =      -0.4452382245992874 [Eh]
	 Opposite-Spin Energy      =      -1.4620788486563443 [Eh]
	 Correlation Energy        =      -1.9073170732556317 [Eh]
	 Total Energy              =    -441.0466099957509414 [Eh]

	 ================> DF-SCS-MP2 Energies <==================
	-----------------------------------------------------------
	 SCS Same-Spin Scale       =       0.3333333333333333 [-]
	 SCS Opposite-Spin Scale   =       1.2000000000000000 [-]
	 SCS Same-Spin Energy      =      -0.1484127415330958 [Eh]
	 SCS Opposite-Spin Energy  =      -1.7544946183876131 [Eh]
	 SCS Correlation Energy    =      -1.9029073599207089 [Eh]
	 SCS Total Energy          =    -441.0422002824160472 [Eh]
	-----------------------------------------------------------

  Dipole Moment: [D]
     X:     3.2398      Y:    -2.9497      Z:    -0.1252     Total:     4.3832

*** Psi4 exiting successfully. Buy a developer a beer!
