                               Psi4 1.3.2 release

  ==> Input File <==

--------------------------------------------------------------------------
#psi4
#
memory 32 gb

molecule  {
0 1
  O       -2.8756320     0.4615000    -0.3051040
  O       -0.5220660     1.5374290     0.0548780
  N        0.6562510    -0.3746370    -0.3360270
  C        1.9647450     0.2268840    -0.0956960
  C       -1.7250597    -0.5151159    -0.3744630
  C        3.0067800    -0.5070980    -0.9241520
  C        2.2930000     0.2310680     1.3932270
  C       -0.4931590     0.3235730    -0.1949090
  C       -1.9724170    -1.5121580     0.7102480
  H        1.8788190     1.2611790    -0.4401960
  H        0.6035260    -1.3822150    -0.4365740
  H       -1.7868920    -0.9288770    -1.3618540
  H        3.9904500    -0.0508330    -0.7882090
  H        3.0812650    -1.5550640    -0.6116920
  H        2.7529100    -0.4768670    -1.9861430
  H        1.5225120     0.7762450     1.9430400
  H        3.2574000     0.7146530     1.5762130
  H        2.3438960    -0.7932520     1.7757830
  H       -2.9590570    -1.9673470     0.6070900
  H       -1.9090200    -1.0432980     1.6949070
  H       -1.2193110    -2.3035120     0.6420620
  H       -2.4442120     1.3312090    -0.1521090
units angstrom
no_reorient  #important for SAPT in psi4, default
symmetry c1  #important for SAPT in psi4, default
}

set PROPERTIES_ORIGIN ["COM"]
properties('MP2/aug-cc-pvtz', properties = ['dipole'])
--------------------------------------------------------------------------

    Molecular point group: c1
  Charge       = 0
  Multiplicity = 1
  Basis Set: AUG-CC-PVTZ
    Blend: AUG-CC-PVTZ
  Basis Set: (AUG-CC-PVTZ AUX)
    Blend: AUG-CC-PVTZ-JKFIT

    Orbital Energies [Eh]
    ---------------------

    Doubly Occupied:

       1A    -20.538061     2A    -20.534825     3A    -15.596542
       4A    -11.361329     5A    -11.297418     6A    -11.277550
       7A    -11.234030     8A    -11.232899     9A    -11.223024
      10A     -1.393958    11A     -1.313889    12A     -1.250772
      13A     -1.078828    14A     -1.032166    15A     -0.950546
      16A     -0.903733    17A     -0.822444    18A     -0.796803
      19A     -0.728743    20A     -0.677191    21A     -0.647076
      22A     -0.632746    23A     -0.628323    24A     -0.598910
      25A     -0.580419    26A     -0.564987    27A     -0.555264
      28A     -0.550724    29A     -0.532287    30A     -0.527910
      31A     -0.505554    32A     -0.501394    33A     -0.491311
      34A     -0.448650    35A     -0.440753    36A     -0.402715

  @DF-RHF Final Energy:  -439.12645330807993

   => Energetics <=

    Nuclear Repulsion Energy =            485.2059451243479202
    One-Electron Energy =               -1560.9572528966975824
    Two-Electron Energy =                 636.6248544642697880
    Total Energy =                       -439.1264533080799310
  Basis Set: (AUG-CC-PVTZ AUX)
    Blend: AUG-CC-PVTZ-RI
    Molecular point group: c1

    Geometry (in Angstrom), charge = 0, multiplicity = 1:

       Center              X                  Y                   Z               Mass
    ------------   -----------------  -----------------  -----------------  -----------------
         O           -2.882603326334     0.467417356422    -0.304683626283    15.994914619570
         O           -0.529037326334     1.543346356422     0.055298373717    15.994914619570
         N            0.649279673666    -0.368719643578    -0.335606626283    14.003074004430
         C            1.957773673666     0.232801356422    -0.095275626283    12.000000000000
         C           -1.732031026334    -0.509198543578    -0.374042626283    12.000000000000
         C            2.999808673666    -0.501180643578    -0.923731626283    12.000000000000
         C            2.286028673666     0.236985356422     1.393647373717    12.000000000000
         C           -0.500130326334     0.329490356422    -0.194488626283    12.000000000000
         C           -1.979388326334    -1.506240643578     0.710668373717    12.000000000000
         H            1.871847673666     1.267096356422    -0.439775626283     1.007825032230
         H            0.596554673666    -1.376297643578    -0.436153626283     1.007825032230
         H           -1.793863326334    -0.922959643578    -1.361433626283     1.007825032230
         H            3.983478673666    -0.044915643578    -0.787788626283     1.007825032230
         H            3.074293673666    -1.549146643578    -0.611271626283     1.007825032230
         H            2.745938673666    -0.470949643578    -1.985722626283     1.007825032230
         H            1.515540673666     0.782162356422     1.943460373717     1.007825032230
         H            3.250428673666     0.720570356422     1.576633373717     1.007825032230
         H            2.336924673666    -0.787334643578     1.776203373717     1.007825032230
         H           -2.966028326334    -1.961429643578     0.607510373717     1.007825032230
         H           -1.915991326334    -1.037380643578     1.695327373717     1.007825032230
         H           -1.226282326334    -2.297594643578     0.642482373717     1.007825032230
         H           -2.451183326334     1.337126356422    -0.151688626283     1.007825032230

  Basis Set: AUG-CC-PVTZ
    Blend: AUG-CC-PVTZ
  Basis Set: (AUG-CC-PVTZ AUX)
    Blend: AUG-CC-PVTZ-JKFIT
	 Reference Energy          =    -439.1264533080799310 [Eh]
	 Singles Energy            =      -0.0000000000000000 [Eh]
	 Same-Spin Energy          =      -0.4468285998405157 [Eh]
	 Opposite-Spin Energy      =      -1.4664474047758316 [Eh]
	 Correlation Energy        =      -1.9132760046163473 [Eh]
	 Total Energy              =    -441.0397293126962950 [Eh]

	 ================> DF-SCS-MP2 Energies <==================
	-----------------------------------------------------------
	 SCS Same-Spin Scale       =       0.3333333333333333 [-]
	 SCS Opposite-Spin Scale   =       1.2000000000000000 [-]
	 SCS Same-Spin Energy      =      -0.1489428666135052 [Eh]
	 SCS Opposite-Spin Energy  =      -1.7597368857309978 [Eh]
	 SCS Correlation Energy    =      -1.9086797523445032 [Eh]
	 SCS Total Energy          =    -441.0351330604244140 [Eh]
	-----------------------------------------------------------

  Dipole Moment: [D]
     X:     3.6608      Y:    -3.2701      Z:    -0.1207     Total:     4.9101

*** Psi4 exiting successfully. Buy a developer a beer!
