                               Psi4 1.3.2 release

  ==> Input File <==

--------------------------------------------------------------------------
#psi4
#
memory 32 gb

molecule  {
0 1
  O       -2.8756320     0.4615000    -0.3051040
  O       -0.5220660     1.5374290     0.0548780
  N        0.6562510    -0.3746370    -0.3360270
  C        1.9647450     0.2268840    -0.0956960
  C       -1.8012180    -0.4504720    -0.3698720
  C        3.0067800    -0.5070980    -0.9241520
  C        2.2930000     0.2310680     1.3932270
  C       -0.4677597     0.3632738    -0.1923522
  C       -1.9724170    -1.5121580     0.7102480
  H        1.8788190     1.2611790    -0.4401960
  H        0.6388333    -1.3832184    -0.4388043
  H       -1.7868920    -0.9288770    -1.3618540
  H        3.9904500    -0.0508330    -0.7882090
  H        3.0812650    -1.5550640    -0.6116920
  H        2.7529100    -0.4768670    -1.9861430
  H        1.5225120     0.7762450     1.9430400
  H        3.2574000     0.7146530     1.5762130
  H        2.3438960    -0.7932520     1.7757830
  H       -2.9590570    -1.9673470     0.6070900
  H       -1.9090200    -1.0432980     1.6949070
  H       -1.2193110    -2.3035120     0.6420620
  H       -2.4442120     1.3312090    -0.1521090
units angstrom
no_reorient  #important for SAPT in psi4, default
symmetry c1  #important for SAPT in psi4, default
}

set PROPERTIES_ORIGIN ["COM"]
properties('MP2/aug-cc-pvtz', properties = ['dipole'])
--------------------------------------------------------------------------

    Molecular point group: c1
  Charge       = 0
  Multiplicity = 1
  Basis Set: AUG-CC-PVTZ
    Blend: AUG-CC-PVTZ
  Basis Set: (AUG-CC-PVTZ AUX)
    Blend: AUG-CC-PVTZ-JKFIT

    Orbital Energies [Eh]
    ---------------------

    Doubly Occupied:

       1A    -20.546108     2A    -20.538520     3A    -15.592825
       4A    -11.356209     5A    -11.294341     6A    -11.275437
       7A    -11.232016     8A    -11.227690     9A    -11.222307
      10A     -1.416824    11A     -1.348436    12A     -1.251017
      13A     -1.068270    14A     -1.018755    15A     -0.949958
      16A     -0.886888    17A     -0.819081    18A     -0.799655
      19A     -0.733613    20A     -0.680567    21A     -0.648823
      22A     -0.638147    23A     -0.628545    24A     -0.602435
      25A     -0.580509    26A     -0.565007    27A     -0.555569
      28A     -0.547241    29A     -0.541950    30A     -0.531430
      31A     -0.516365    32A     -0.505489    33A     -0.492719
      34A     -0.442998    35A     -0.427816    36A     -0.403320

  @DF-RHF Final Energy:  -439.13764364244275

   => Energetics <=

    Nuclear Repulsion Energy =            485.4966295543574120
    One-Electron Energy =               -1561.4947840162742523
    Two-Electron Energy =                 636.8605108194740296
    Total Energy =                       -439.1376436424427538
  Basis Set: (AUG-CC-PVTZ AUX)
    Blend: AUG-CC-PVTZ-RI
    Molecular point group: c1

    Geometry (in Angstrom), charge = 0, multiplicity = 1:

       Center              X                  Y                   Z               Mass
    ------------   -----------------  -----------------  -----------------  -----------------
         O           -2.878228437560     0.457873676706    -0.305320767931    15.994914619570
         O           -0.524662437560     1.533802676706     0.054661232069    15.994914619570
         N            0.653654562440    -0.378263323294    -0.336243767931    14.003074004430
         C            1.962148562440     0.223257676706    -0.095912767931    12.000000000000
         C           -1.803814437560    -0.454098323294    -0.370088767931    12.000000000000
         C            3.004183562440    -0.510724323294    -0.924368767931    12.000000000000
         C            2.290403562440     0.227441676706     1.393010232069    12.000000000000
         C           -0.470356137560     0.359647476706    -0.192568967931    12.000000000000
         C           -1.975013437560    -1.515784323294     0.710031232069    12.000000000000
         H            1.876222562440     1.257552676706    -0.440412767931     1.007825032230
         H            0.636236862440    -1.386844723294    -0.439021067931     1.007825032230
         H           -1.789488437560    -0.932503323294    -1.362070767931     1.007825032230
         H            3.987853562440    -0.054459323294    -0.788425767931     1.007825032230
         H            3.078668562440    -1.558690323294    -0.611908767931     1.007825032230
         H            2.750313562440    -0.480493323294    -1.986359767931     1.007825032230
         H            1.519915562440     0.772618676706     1.942823232069     1.007825032230
         H            3.254803562440     0.711026676706     1.575996232069     1.007825032230
         H            2.341299562440    -0.796878323294     1.775566232069     1.007825032230
         H           -2.961653437560    -1.970973323294     0.606873232069     1.007825032230
         H           -1.911616437560    -1.046924323294     1.694690232069     1.007825032230
         H           -1.221907437560    -2.307138323294     0.641845232069     1.007825032230
         H           -2.446808437560     1.327582676706    -0.152325767931     1.007825032230

  Basis Set: AUG-CC-PVTZ
    Blend: AUG-CC-PVTZ
  Basis Set: (AUG-CC-PVTZ AUX)
    Blend: AUG-CC-PVTZ-JKFIT
	 Reference Energy          =    -439.1376436424427538 [Eh]
	 Singles Energy            =      -0.0000000000000000 [Eh]
	 Same-Spin Energy          =      -0.4451900252784633 [Eh]
	 Opposite-Spin Energy      =      -1.4620217719586710 [Eh]
	 Correlation Energy        =      -1.9072117972371343 [Eh]
	 Total Energy              =    -441.0448554396799068 [Eh]

	 ================> DF-SCS-MP2 Energies <==================
	-----------------------------------------------------------
	 SCS Same-Spin Scale       =       0.3333333333333333 [-]
	 SCS Opposite-Spin Scale   =       1.2000000000000000 [-]
	 SCS Same-Spin Energy      =      -0.1483966750928211 [Eh]
	 SCS Opposite-Spin Energy  =      -1.7544261263504051 [Eh]
	 SCS Correlation Energy    =      -1.9028228014432262 [Eh]
	 SCS Total Energy          =    -441.0404664438859754 [Eh]
	-----------------------------------------------------------

  Dipole Moment: [D]
     X:     3.5340      Y:    -2.8494      Z:    -0.1293     Total:     4.5415

*** Psi4 exiting successfully. Buy a developer a beer!
