                               Psi4 1.3.2 release

  ==> Input File <==

--------------------------------------------------------------------------
#psi4
#
memory 32 gb

molecule  {
0 1
  O       -2.8756320     0.4615000    -0.3051040
  O       -0.5220660     1.5374290     0.0548780
  N        0.6562510    -0.3746370    -0.3360270
  C        1.9647450     0.2268840    -0.0956960
  C       -1.8012180    -0.4504720    -0.3698720
  C        3.0067800    -0.5070980    -0.9241520
  C        2.2930000     0.2310680     1.3932270
  C       -0.5096582     0.3386499    -0.1464081
  C       -1.9724170    -1.5121580     0.7102480
  H        1.8788190     1.2611790    -0.4401960
  H        0.6035260    -1.3822150    -0.4365740
  H       -1.8216506    -0.9435762    -1.3545220
  H        3.9904500    -0.0508330    -0.7882090
  H        3.0812650    -1.5550640    -0.6116920
  H        2.7529100    -0.4768670    -1.9861430
  H        1.5225120     0.7762450     1.9430400
  H        3.2574000     0.7146530     1.5762130
  H        2.3438960    -0.7932520     1.7757830
  H       -2.9590570    -1.9673470     0.6070900
  H       -1.9090200    -1.0432980     1.6949070
  H       -1.2193110    -2.3035120     0.6420620
  H       -2.4442120     1.3312090    -0.1521090
units angstrom
no_reorient  #important for SAPT in psi4, default
symmetry c1  #important for SAPT in psi4, default
}

set PROPERTIES_ORIGIN ["COM"]
properties('MP2/aug-cc-pvtz', properties = ['dipole'])
--------------------------------------------------------------------------

    Molecular point group: c1
  Charge       = 0
  Multiplicity = 1
  Basis Set: AUG-CC-PVTZ
    Blend: AUG-CC-PVTZ
  Basis Set: (AUG-CC-PVTZ AUX)
    Blend: AUG-CC-PVTZ-JKFIT

    Orbital Energies [Eh]
    ---------------------

    Doubly Occupied:

       1A    -20.548240     2A    -20.539770     3A    -15.590501
       4A    -11.359843     5A    -11.297113     6A    -11.274598
       7A    -11.230519     8A    -11.230098     9A    -11.220985
      10A     -1.410886    11A     -1.350048    12A     -1.241214
      13A     -1.068590    14A     -1.022899    15A     -0.948301
      16A     -0.892426    17A     -0.819405    18A     -0.789454
      19A     -0.739932    20A     -0.680249    21A     -0.649864
      22A     -0.635803    23A     -0.627557    24A     -0.598381
      25A     -0.581979    26A     -0.567762    27A     -0.553616
      28A     -0.546154    29A     -0.539477    30A     -0.532250
      31A     -0.516688    32A     -0.503533    33A     -0.490893
      34A     -0.444931    35A     -0.436790    36A     -0.399571

  @DF-RHF Final Energy:  -439.13662524268887

   => Energetics <=

    Nuclear Repulsion Energy =            485.3924635875820854
    One-Electron Energy =               -1561.2975381916398874
    Two-Electron Energy =                 636.7684493613688801
    Total Energy =                       -439.1366252426888650
  Basis Set: (AUG-CC-PVTZ AUX)
    Blend: AUG-CC-PVTZ-RI
    Molecular point group: c1

    Geometry (in Angstrom), charge = 0, multiplicity = 1:

       Center              X                  Y                   Z               Mass
    ------------   -----------------  -----------------  -----------------  -----------------
         O           -2.873854527097     0.460232963072    -0.309599862590    15.994914619570
         O           -0.520288527097     1.536161963072     0.050382137410    15.994914619570
         N            0.658028472903    -0.375904036928    -0.340522862590    14.003074004430
         C            1.966522472903     0.225616963072    -0.100191862590    12.000000000000
         C           -1.799440527097    -0.451739036928    -0.374367862590    12.000000000000
         C            3.008557472903    -0.508365036928    -0.928647862590    12.000000000000
         C            2.294777472903     0.229800963072     1.388731137410    12.000000000000
         C           -0.507880727097     0.337382863072    -0.150903962590    12.000000000000
         C           -1.970639527097    -1.513425036928     0.705752137410    12.000000000000
         H            1.880596472903     1.259911963072    -0.444691862590     1.007825032230
         H            0.605303472903    -1.383482036928    -0.441069862590     1.007825032230
         H           -1.819873127097    -0.944843236928    -1.359017862590     1.007825032230
         H            3.992227472903    -0.052100036928    -0.792704862590     1.007825032230
         H            3.083042472903    -1.556331036928    -0.616187862590     1.007825032230
         H            2.754687472903    -0.478134036928    -1.990638862590     1.007825032230
         H            1.524289472903     0.774977963072     1.938544137410     1.007825032230
         H            3.259177472903     0.713385963072     1.571717137410     1.007825032230
         H            2.345673472903    -0.794519036928     1.771287137410     1.007825032230
         H           -2.957279527097    -1.968614036928     0.602594137410     1.007825032230
         H           -1.907242527097    -1.044565036928     1.690411137410     1.007825032230
         H           -1.217533527097    -2.304779036928     0.637566137410     1.007825032230
         H           -2.442434527097     1.329941963072    -0.156604862590     1.007825032230

  Basis Set: AUG-CC-PVTZ
    Blend: AUG-CC-PVTZ
  Basis Set: (AUG-CC-PVTZ AUX)
    Blend: AUG-CC-PVTZ-JKFIT
	 Reference Energy          =    -439.1366252426888650 [Eh]
	 Singles Energy            =      -0.0000000000000000 [Eh]
	 Same-Spin Energy          =      -0.4457123494938277 [Eh]
	 Opposite-Spin Energy      =      -1.4631723298875383 [Eh]
	 Correlation Energy        =      -1.9088846793813659 [Eh]
	 Total Energy              =    -441.0455099220702095 [Eh]

	 ================> DF-SCS-MP2 Energies <==================
	-----------------------------------------------------------
	 SCS Same-Spin Scale       =       0.3333333333333333 [-]
	 SCS Opposite-Spin Scale   =       1.2000000000000000 [-]
	 SCS Same-Spin Energy      =      -0.1485707831646092 [Eh]
	 SCS Opposite-Spin Energy  =      -1.7558067958650458 [Eh]
	 SCS Correlation Energy    =      -1.9043775790296551 [Eh]
	 SCS Total Energy          =    -441.0410028217185072 [Eh]
	-----------------------------------------------------------

  Dipole Moment: [D]
     X:     3.2763      Y:    -2.9001      Z:    -0.0990     Total:     4.3766

*** Psi4 exiting successfully. Buy a developer a beer!
