                               Psi4 1.4a3.dev225

  ==> Input File <==

--------------------------------------------------------------------------
#psi4
#
memory 32 gb

molecule  {
0 1
  O        2.9110620    -0.5703060    -0.4523520
  O        0.5539390    -1.5540470     0.1662040
  N       -0.5943370     0.3369340    -0.3930300
  C       -1.9154150    -0.2304160    -0.1256420
  C        1.8655780     0.3788930    -0.3941620
  C       -2.9513150     0.5221750    -0.9483650
  C       -2.2232580    -0.2086170     1.3682650
  C        0.5443190    -0.3662470    -0.1910430
  C        2.1035320     1.3624180     0.7499890
  H       -1.8664900    -1.2716350    -0.4595930
  H       -0.5281980     1.3181660    -0.6377390
  H        1.8323260     0.9104216    -1.3331762
  H       -3.9433690     0.0896600    -0.7945050
  H       -2.9965010     1.5743390    -0.6446630
  H       -2.7149650     0.4749500    -2.0147890
  H       -1.4563020    -0.7629570     1.9136170
  H       -3.1950150    -0.6709470     1.5682930
  H       -2.2473660     0.8219210     1.7368640
  H        3.0888910     1.8183940     0.6312910
  H        2.0827360     0.8223960     1.7004970
  H        1.3487660     2.1553220     0.7756360
  H        2.4958040    -1.4028240    -0.1381920
units angstrom
no_reorient  #important for SAPT in psi4, default
symmetry c1  #important for SAPT in psi4, default
}

set PROPERTIES_ORIGIN ["COM"]
properties('MP2/aug-cc-pvtz', properties = ['dipole'])
--------------------------------------------------------------------------

    Molecular point group: c1
  Charge       = 0
  Multiplicity = 1
  Basis Set: AUG-CC-PVTZ
    Blend: AUG-CC-PVTZ
  Basis Set: (AUG-CC-PVTZ AUX)
    Blend: AUG-CC-PVTZ-JKFIT

    Orbital Energies [Eh]
    ---------------------

    Doubly Occupied:

       1A    -20.548288     2A    -20.531551     3A    -15.596257
       4A    -11.357872     5A    -11.295186     6A    -11.278140
       7A    -11.233533     8A    -11.229662     9A    -11.221084
      10A     -1.395667    11A     -1.345510    12A     -1.246806
      13A     -1.071539    14A     -1.023965    15A     -0.949609
      16A     -0.894283    17A     -0.822112    18A     -0.795185
      19A     -0.737952    20A     -0.678123    21A     -0.643728
      22A     -0.635070    23A     -0.628998    24A     -0.595203
      25A     -0.582201    26A     -0.571000    27A     -0.555167
      28A     -0.548201    29A     -0.537168    30A     -0.529031
      31A     -0.512054    32A     -0.502110    33A     -0.491379
      34A     -0.446976    35A     -0.431594    36A     -0.401502

  @DF-RHF Final Energy:  -439.13790335590221

   => Energetics <=

    Nuclear Repulsion Energy =            485.1795297312269213
    One-Electron Energy =               -1560.9074505288988348
    Two-Electron Energy =                 636.5900174417697599
    Total Energy =                       -439.1379033559021536
  Basis Set: (AUG-CC-PVTZ AUX)
    Blend: AUG-CC-PVTZ-RI
    Molecular point group: c1

    Geometry (in Angstrom), charge = 0, multiplicity = 1:

       Center              X                  Y                   Z               Mass
    ------------   -----------------  -----------------  -----------------  -----------------
         O            2.849899472149    -0.525765157643    -0.435185233165    15.994914619570
         O            0.492776472149    -1.509506157643     0.183370766835    15.994914619570
         N           -0.655499527851     0.381474842357    -0.375863233165    14.003074004430
         C           -1.976577527851    -0.185875157643    -0.108475233165    12.000000000000
         C            1.804415472149     0.423433842357    -0.376995233165    12.000000000000
         C           -3.012477527851     0.566715842357    -0.931198233165    12.000000000000
         C           -2.284420527851    -0.164076157643     1.385431766835    12.000000000000
         C            0.483156472149    -0.321706157643    -0.173876233165    12.000000000000
         C            2.042369472149     1.406958842357     0.767155766835    12.000000000000
         H           -1.927652527851    -1.227094157643    -0.442426233165     1.007825032230
         H           -0.589360527851     1.362706842357    -0.620572233165     1.007825032230
         H            1.771163472149     0.954962442357    -1.316009433165     1.007825032230
         H           -4.004531527851     0.134200842357    -0.777338233165     1.007825032230
         H           -3.057663527851     1.618879842357    -0.627496233165     1.007825032230
         H           -2.776127527851     0.519490842357    -1.997622233165     1.007825032230
         H           -1.517464527851    -0.718416157643     1.930783766835     1.007825032230
         H           -3.256177527851    -0.626406157643     1.585459766835     1.007825032230
         H           -2.308528527851     0.866461842357     1.754030766835     1.007825032230
         H            3.027728472149     1.862934842357     0.648457766835     1.007825032230
         H            2.021573472149     0.866936842357     1.717663766835     1.007825032230
         H            1.287603472149     2.199862842357     0.792802766835     1.007825032230
         H            2.434641472149    -1.358283157643    -0.121025233165     1.007825032230

  Basis Set: AUG-CC-PVTZ
    Blend: AUG-CC-PVTZ
  Basis Set: (AUG-CC-PVTZ AUX)
    Blend: AUG-CC-PVTZ-JKFIT
	 Reference Energy          =    -439.1379033559022105 [Eh]
	 Singles Energy            =      -0.0000000000000000 [Eh]
	 Same-Spin Energy          =      -0.4459132533723361 [Eh]
	 Opposite-Spin Energy      =      -1.4636314200106160 [Eh]
	 Correlation Energy        =      -1.9095446733829520 [Eh]
	 Total Energy              =    -441.0474480292851354 [Eh]

	 ================> DF-SCS-MP2 Energies <==================
	-----------------------------------------------------------
	 SCS Same-Spin Scale       =       0.3333333333333333 [-]
	 SCS Opposite-Spin Scale   =       1.2000000000000000 [-]
	 SCS Same-Spin Energy      =      -0.1486377511241120 [Eh]
	 SCS Opposite-Spin Energy  =      -1.7563577040127392 [Eh]
	 SCS Correlation Energy    =      -1.9049954551368511 [Eh]
	 SCS Total Energy          =    -441.0428988110390378 [Eh]
	-----------------------------------------------------------

  Dipole Moment: [D]
     X:    -3.3909      Y:     3.1343      Z:    -0.1924     Total:     4.6216

*** Psi4 exiting successfully. Buy a developer a beer!
