                               Psi4 1.3.2 release

  ==> Input File <==

--------------------------------------------------------------------------
#psi4
#
memory 32 gb

molecule  {
0 1
  O       -2.8756320     0.4615000    -0.3051040
  O       -0.5220660     1.5374290     0.0548780
  N        0.6605084    -0.3856637    -0.3312703
  C        1.9647450     0.2268840    -0.0956960
  C       -1.8012180    -0.4504720    -0.3698720
  C        3.0067800    -0.5070980    -0.9241520
  C        2.2930000     0.2310680     1.3932270
  C       -0.4931590     0.3235730    -0.1949090
  C       -1.9724170    -1.5121580     0.7102480
  H        1.8879058     1.2627151    -0.4377185
  H        0.6035260    -1.3822150    -0.4365740
  H       -1.7868920    -0.9288770    -1.3618540
  H        3.9904500    -0.0508330    -0.7882090
  H        3.0812650    -1.5550640    -0.6116920
  H        2.7529100    -0.4768670    -1.9861430
  H        1.5225120     0.7762450     1.9430400
  H        3.2574000     0.7146530     1.5762130
  H        2.3438960    -0.7932520     1.7757830
  H       -2.9590570    -1.9673470     0.6070900
  H       -1.9090200    -1.0432980     1.6949070
  H       -1.2193110    -2.3035120     0.6420620
  H       -2.4442120     1.3312090    -0.1521090
units angstrom
no_reorient  #important for SAPT in psi4, default
symmetry c1  #important for SAPT in psi4, default
}

set PROPERTIES_ORIGIN ["COM"]
properties('MP2/aug-cc-pvtz', properties = ['dipole'])
--------------------------------------------------------------------------

    Molecular point group: c1
  Charge       = 0
  Multiplicity = 1
  Basis Set: AUG-CC-PVTZ
    Blend: AUG-CC-PVTZ
  Basis Set: (AUG-CC-PVTZ AUX)
    Blend: AUG-CC-PVTZ-JKFIT

    Orbital Energies [Eh]
    ---------------------

    Doubly Occupied:

       1A    -20.548047     2A    -20.534185     3A    -15.594719
       4A    -11.359760     5A    -11.297533     6A    -11.276939
       7A    -11.231798     8A    -11.230883     9A    -11.221777
      10A     -1.397455    11A     -1.346098    12A     -1.247497
      13A     -1.071577    14A     -1.023818    15A     -0.949496
      16A     -0.894838    17A     -0.822103    18A     -0.795560
      19A     -0.736296    20A     -0.679562    21A     -0.650605
      22A     -0.633454    23A     -0.627917    24A     -0.596988
      25A     -0.581704    26A     -0.567342    27A     -0.554807
      28A     -0.547518    29A     -0.539352    30A     -0.530014
      31A     -0.513475    32A     -0.502712    33A     -0.490954
      34A     -0.445184    35A     -0.434850    36A     -0.401274

  @DF-RHF Final Energy:  -439.13769640988767

   => Energetics <=

    Nuclear Repulsion Energy =            485.1931218396010195
    One-Electron Energy =               -1560.9054585735987075
    Two-Electron Energy =                 636.5746403241100779
    Total Energy =                       -439.1376964098876670
  Basis Set: (AUG-CC-PVTZ AUX)
    Blend: AUG-CC-PVTZ-RI
    Molecular point group: c1

    Geometry (in Angstrom), charge = 0, multiplicity = 1:

       Center              X                  Y                   Z               Mass
    ------------   -----------------  -----------------  -----------------  -----------------
         O           -2.876156647192     0.462666076905    -0.305631012990    15.994914619570
         O           -0.522590647192     1.538595076905     0.054350987010    15.994914619570
         N            0.659983752808    -0.384497623095    -0.331797312990    14.003074004430
         C            1.964220352808     0.228050076905    -0.096223012990    12.000000000000
         C           -1.801742647192    -0.449305923095    -0.370399012990    12.000000000000
         C            3.006255352808    -0.505931923095    -0.924679012990    12.000000000000
         C            2.292475352808     0.232234076905     1.392699987010    12.000000000000
         C           -0.493683647192     0.324739076905    -0.195436012990    12.000000000000
         C           -1.972941647192    -1.510991923095     0.709720987010    12.000000000000
         H            1.887381152808     1.263881176905    -0.438245512990     1.007825032230
         H            0.603001352808    -1.381048923095    -0.437101012990     1.007825032230
         H           -1.787416647192    -0.927710923095    -1.362381012990     1.007825032230
         H            3.989925352808    -0.049666923095    -0.788736012990     1.007825032230
         H            3.080740352808    -1.553897923095    -0.612219012990     1.007825032230
         H            2.752385352808    -0.475700923095    -1.986670012990     1.007825032230
         H            1.521987352808     0.777411076905     1.942512987010     1.007825032230
         H            3.256875352808     0.715819076905     1.575685987010     1.007825032230
         H            2.343371352808    -0.792085923095     1.775255987010     1.007825032230
         H           -2.959581647192    -1.966180923095     0.606562987010     1.007825032230
         H           -1.909544647192    -1.042131923095     1.694379987010     1.007825032230
         H           -1.219835647192    -2.302345923095     0.641534987010     1.007825032230
         H           -2.444736647192     1.332375076905    -0.152636012990     1.007825032230

  Basis Set: AUG-CC-PVTZ
    Blend: AUG-CC-PVTZ
  Basis Set: (AUG-CC-PVTZ AUX)
    Blend: AUG-CC-PVTZ-JKFIT
	 Reference Energy          =    -439.1376964098876670 [Eh]
	 Singles Energy            =      -0.0000000000000000 [Eh]
	 Same-Spin Energy          =      -0.4459876954486791 [Eh]
	 Opposite-Spin Energy      =      -1.4636328115847350 [Eh]
	 Correlation Energy        =      -1.9096205070334142 [Eh]
	 Total Energy              =    -441.0473169169210905 [Eh]

	 ================> DF-SCS-MP2 Energies <==================
	-----------------------------------------------------------
	 SCS Same-Spin Scale       =       0.3333333333333333 [-]
	 SCS Opposite-Spin Scale   =       1.2000000000000000 [-]
	 SCS Same-Spin Energy      =      -0.1486625651495597 [Eh]
	 SCS Opposite-Spin Energy  =      -1.7563593739016821 [Eh]
	 SCS Correlation Energy    =      -1.9050219390512417 [Eh]
	 SCS Total Energy          =    -441.0427183489389336 [Eh]
	-----------------------------------------------------------

  Dipole Moment: [D]
     X:     3.4194      Y:    -3.0289      Z:    -0.1495     Total:     4.5704

*** Psi4 exiting successfully. Buy a developer a beer!
