                               Psi4 1.3.2 release

  ==> Input File <==

--------------------------------------------------------------------------
#psi4
#
memory 32 gb

molecule  {
0 1
  O        0.9755400    -1.0764940     0.0000010
  O       -1.3738420     1.6199730     0.0000050
  N       -1.7006930    -0.6600630    -0.0000030
  C        0.5224480     0.2188310    -0.0000040
  C       -0.9336490     0.4655780     0.0000000
  C        1.5816790     1.0895450    -0.0000030
  C        2.7579030     0.2894600     0.0000000
  C        2.3428020    -1.0138960     0.0000040
  C       -3.1488560    -0.5988880     0.0000010
  H        1.5004040     2.1673970    -0.0000090
  H       -1.2325350    -1.5568070    -0.0000080
  H        3.7847062     0.6289707     0.3000040
  H        2.8531580    -1.9656810     0.0000030
  H       -3.4251050     0.4551520     0.0000010
  H       -3.5616590    -1.0800960     0.8913170
  H       -3.5616630    -1.0800960    -0.8913140
units angstrom
no_reorient  #important for SAPT in psi4, default
symmetry c1  #important for SAPT in psi4, default
}

set PROPERTIES_ORIGIN ["COM"]
properties('MP2/aug-cc-pvtz', properties = ['dipole'])
--------------------------------------------------------------------------

    Molecular point group: c1
  Charge       = 0
  Multiplicity = 1
  Basis Set: AUG-CC-PVTZ
    Blend: AUG-CC-PVTZ
  Basis Set: (AUG-CC-PVTZ AUX)
    Blend: AUG-CC-PVTZ-JKFIT

    Orbital Energies [Eh]
    ---------------------

    Doubly Occupied:

       1A    -20.644390     2A    -20.516074     3A    -15.589264
       4A    -11.360715     5A    -11.314106     6A    -11.301725
       7A    -11.259578     8A    -11.252880     9A    -11.251139
      10A     -1.475232    11A     -1.371246    12A     -1.231688
      13A     -1.101302    14A     -1.039266    15A     -0.954067
      16A     -0.841482    17A     -0.817133    18A     -0.775361
      19A     -0.762145    20A     -0.672214    21A     -0.659763
      22A     -0.640514    23A     -0.619039    24A     -0.598097
      25A     -0.586595    26A     -0.573578    27A     -0.560691
      28A     -0.542488    29A     -0.536510    30A     -0.434097
      31A     -0.413429    32A     -0.391989    33A     -0.331393

  @DF-RHF Final Energy:  -435.59624244399185

   => Energetics <=

    Nuclear Repulsion Energy =            429.2935209743056362
    One-Electron Energy =               -1444.9411481399240529
    Two-Electron Energy =                 580.0513847216265049
    Total Energy =                       -435.5962424439918550
  Basis Set: (AUG-CC-PVTZ AUX)
    Blend: AUG-CC-PVTZ-RI
    Molecular point group: c1

    Geometry (in Angstrom), charge = 0, multiplicity = 1:

       Center              X                  Y                   Z               Mass
    ------------   -----------------  -----------------  -----------------  -----------------
         O            0.946663097788    -1.095745576580    -0.002417049073    15.994914619570
         O           -1.402718902212     1.600721423420    -0.002413049073    15.994914619570
         N           -1.729569902212    -0.679314576580    -0.002421049073    14.003074004430
         C            0.493571097788     0.199579423420    -0.002422049073    12.000000000000
         C           -0.962525902212     0.446326423420    -0.002418049073    12.000000000000
         C            1.552802097788     1.070293423420    -0.002421049073    12.000000000000
         C            2.729026097788     0.270208423420    -0.002418049073    12.000000000000
         C            2.313925097788    -1.033147576580    -0.002414049073    12.000000000000
         C           -3.177732902212    -0.618139576580    -0.002417049073    12.000000000000
         H            1.471527097788     2.148145423420    -0.002427049073     1.007825032230
         H           -1.261411902212    -1.576058576580    -0.002426049073     1.007825032230
         H            3.755829297788     0.609719123420     0.297585950927     1.007825032230
         H            2.824281097788    -1.984932576580    -0.002415049073     1.007825032230
         H           -3.453981902212     0.435900423420    -0.002417049073     1.007825032230
         H           -3.590535902212    -1.099347576580     0.888898950927     1.007825032230
         H           -3.590539902212    -1.099347576580    -0.893732049073     1.007825032230

  Basis Set: AUG-CC-PVTZ
    Blend: AUG-CC-PVTZ
  Basis Set: (AUG-CC-PVTZ AUX)
    Blend: AUG-CC-PVTZ-JKFIT
	 Reference Energy          =    -435.5962424439918550 [Eh]
	 Singles Energy            =      -0.0000000000000000 [Eh]
	 Same-Spin Energy          =      -0.4480553726332933 [Eh]
	 Opposite-Spin Energy      =      -1.3720282107295003 [Eh]
	 Correlation Energy        =      -1.8200835833627935 [Eh]
	 Total Energy              =    -437.4163260273546712 [Eh]

	 ================> DF-SCS-MP2 Energies <==================
	-----------------------------------------------------------
	 SCS Same-Spin Scale       =       0.3333333333333333 [-]
	 SCS Opposite-Spin Scale   =       1.2000000000000000 [-]
	 SCS Same-Spin Energy      =      -0.1493517908777644 [Eh]
	 SCS Opposite-Spin Energy  =      -1.6464338528754003 [Eh]
	 SCS Correlation Energy    =      -1.7957856437531647 [Eh]
	 SCS Total Energy          =    -437.3920280877450182 [Eh]
	-----------------------------------------------------------

  Dipole Moment: [D]
     X:     1.0190      Y:    -3.2625      Z:     0.2274     Total:     3.4255

*** Psi4 exiting successfully. Buy a developer a beer!
