                               Psi4 1.3.2 release

  ==> Input File <==

--------------------------------------------------------------------------
#psi4
#
memory 32 gb

molecule  {
0 1
  O        0.9755400    -1.0764940     0.0000010
  O       -1.3738420     1.6199730     0.0000050
  N       -1.7006930    -0.6600630    -0.0000030
  C        0.5224484     0.2188302     0.1999960
  C       -0.9336490     0.4655780     0.0000000
  C        1.5816790     1.0895450    -0.0000030
  C        2.7579030     0.2894600     0.0000000
  C        2.3428020    -1.0138960     0.0000040
  C       -3.1488560    -0.5988880     0.0000010
  H        1.5004040     2.1673970    -0.0000090
  H       -1.2325350    -1.5568070    -0.0000080
  H        3.7847070     0.6289700     0.0000040
  H        2.8531580    -1.9656810     0.0000030
  H       -3.4251050     0.4551520     0.0000010
  H       -3.5616590    -1.0800960     0.8913170
  H       -3.5616630    -1.0800960    -0.8913140
units angstrom
no_reorient  #important for SAPT in psi4, default
symmetry c1  #important for SAPT in psi4, default
}

set PROPERTIES_ORIGIN ["COM"]
properties('MP2/aug-cc-pvtz', properties = ['dipole'])
--------------------------------------------------------------------------

    Molecular point group: c1
  Charge       = 0
  Multiplicity = 1
  Basis Set: AUG-CC-PVTZ
    Blend: AUG-CC-PVTZ
  Basis Set: (AUG-CC-PVTZ AUX)
    Blend: AUG-CC-PVTZ-JKFIT

    Orbital Energies [Eh]
    ---------------------

    Doubly Occupied:

       1A    -20.641829     2A    -20.514967     3A    -15.587521
       4A    -11.360136     5A    -11.315336     6A    -11.302031
       7A    -11.258544     8A    -11.257912     9A    -11.248796
      10A     -1.469010    11A     -1.369688    12A     -1.230004
      13A     -1.100732    14A     -1.036007    15A     -0.952443
      16A     -0.838602    17A     -0.816108    18A     -0.774891
      19A     -0.762353    20A     -0.672432    21A     -0.653787
      22A     -0.640608    23A     -0.618011    24A     -0.600010
      25A     -0.586381    26A     -0.575173    27A     -0.560473
      28A     -0.541200    29A     -0.533798    30A     -0.432065
      31A     -0.412882    32A     -0.390798    33A     -0.331439

  @DF-RHF Final Energy:  -435.58992866394851

   => Energetics <=

    Nuclear Repulsion Energy =            428.8227044781208406
    One-Electron Energy =               -1444.0533234679892303
    Two-Electron Energy =                 579.6406903259198771
    Total Energy =                       -435.5899286639485126
  Basis Set: (AUG-CC-PVTZ AUX)
    Blend: AUG-CC-PVTZ-RI
    Molecular point group: c1

    Geometry (in Angstrom), charge = 0, multiplicity = 1:

       Center              X                  Y                   Z               Mass
    ------------   -----------------  -----------------  -----------------  -----------------
         O            0.946663052955    -1.095745494168    -0.019191870613    15.994914619570
         O           -1.402718947045     1.600721505832    -0.019187870613    15.994914619570
         N           -1.729569947045    -0.679314494168    -0.019195870613    14.003074004430
         C            0.493571452955     0.199578705832     0.180803129387    12.000000000000
         C           -0.962525947045     0.446326505832    -0.019192870613    12.000000000000
         C            1.552802052955     1.070293505832    -0.019195870613    12.000000000000
         C            2.729026052955     0.270208505832    -0.019192870613    12.000000000000
         C            2.313925052955    -1.033147494168    -0.019188870613    12.000000000000
         C           -3.177732947045    -0.618139494168    -0.019191870613    12.000000000000
         H            1.471527052955     2.148145505832    -0.019201870613     1.007825032230
         H           -1.261411947045    -1.576058494168    -0.019200870613     1.007825032230
         H            3.755830052955     0.609718505832    -0.019188870613     1.007825032230
         H            2.824281052955    -1.984932494168    -0.019189870613     1.007825032230
         H           -3.453981947045     0.435900505832    -0.019191870613     1.007825032230
         H           -3.590535947045    -1.099347494168     0.872124129387     1.007825032230
         H           -3.590539947045    -1.099347494168    -0.910506870613     1.007825032230

  Basis Set: AUG-CC-PVTZ
    Blend: AUG-CC-PVTZ
  Basis Set: (AUG-CC-PVTZ AUX)
    Blend: AUG-CC-PVTZ-JKFIT
	 Reference Energy          =    -435.5899286639485126 [Eh]
	 Singles Energy            =      -0.0000000000000000 [Eh]
	 Same-Spin Energy          =      -0.4483507926283647 [Eh]
	 Opposite-Spin Energy      =      -1.3727702481263251 [Eh]
	 Correlation Energy        =      -1.8211210407546898 [Eh]
	 Total Energy              =    -437.4110497047032027 [Eh]

	 ================> DF-SCS-MP2 Energies <==================
	-----------------------------------------------------------
	 SCS Same-Spin Scale       =       0.3333333333333333 [-]
	 SCS Opposite-Spin Scale   =       1.2000000000000000 [-]
	 SCS Same-Spin Energy      =      -0.1494502642094549 [Eh]
	 SCS Opposite-Spin Energy  =      -1.6473242977515901 [Eh]
	 SCS Correlation Energy    =      -1.7967745619610449 [Eh]
	 SCS Total Energy          =    -437.3867032259095708 [Eh]
	-----------------------------------------------------------

  Dipole Moment: [D]
     X:     1.1527      Y:    -3.2135      Z:     0.0059     Total:     3.4140

*** Psi4 exiting successfully. Buy a developer a beer!
