                               Psi4 1.3.2 release

  ==> Input File <==

--------------------------------------------------------------------------
#psi4
#
memory 32 gb

molecule  {
0 1
  O        0.9755400    -1.0764940     0.0000010
  O       -1.3738420     1.6199730     0.0000050
  N       -1.7006930    -0.6600630    -0.0000030
  C        0.5224480     0.2188310    -0.0000040
  C       -0.9336490     0.4655780     0.0000000
  C        1.5816790     1.0895449    -0.0500030
  C        2.7579030     0.2894600     0.0000000
  C        2.3428020    -1.0138960     0.0000040
  C       -3.1488560    -0.5988880     0.0000010
  H        1.5004040     2.1673970    -0.0000090
  H       -1.2325350    -1.5568070    -0.0000080
  H        3.7847070     0.6289700     0.0000040
  H        2.8531580    -1.9656810     0.0000030
  H       -3.4251050     0.4551520     0.0000010
  H       -3.5616590    -1.0800960     0.8913170
  H       -3.5616630    -1.0800960    -0.8913140
units angstrom
no_reorient  #important for SAPT in psi4, default
symmetry c1  #important for SAPT in psi4, default
}

set PROPERTIES_ORIGIN ["COM"]
properties('MP2/aug-cc-pvtz', properties = ['dipole'])
--------------------------------------------------------------------------

    Molecular point group: c1
  Charge       = 0
  Multiplicity = 1
  Basis Set: AUG-CC-PVTZ
    Blend: AUG-CC-PVTZ
  Basis Set: (AUG-CC-PVTZ AUX)
    Blend: AUG-CC-PVTZ-JKFIT

    Orbital Energies [Eh]
    ---------------------

    Doubly Occupied:

       1A    -20.643685     2A    -20.515953     3A    -15.589084
       4A    -11.360557     5A    -11.312544     6A    -11.301775
       7A    -11.259446     8A    -11.252736     9A    -11.248143
      10A     -1.474486    11A     -1.371105    12A     -1.231513
      13A     -1.101285    14A     -1.039001    15A     -0.953973
      16A     -0.841147    17A     -0.819530    18A     -0.775360
      19A     -0.764745    20A     -0.671548    21A     -0.658830
      22A     -0.641803    23A     -0.618728    24A     -0.601050
      25A     -0.585930    26A     -0.577471    27A     -0.561456
      28A     -0.542297    29A     -0.536347    30A     -0.433926
      31A     -0.414269    32A     -0.391844    33A     -0.330923

  @DF-RHF Final Energy:  -435.60138416395671

   => Energetics <=

    Nuclear Repulsion Energy =            429.4126988652239447
    One-Electron Energy =               -1445.1831854108286279
    Two-Electron Energy =                 580.1691023816479174
    Total Energy =                       -435.6013841639567090
  Basis Set: (AUG-CC-PVTZ AUX)
    Blend: AUG-CC-PVTZ-RI
    Molecular point group: c1

    Geometry (in Angstrom), charge = 0, multiplicity = 1:

       Center              X                  Y                   Z               Mass
    ------------   -----------------  -----------------  -----------------  -----------------
         O            0.946663091340    -1.095745561342     0.004798978611    15.994914619570
         O           -1.402718908660     1.600721438658     0.004802978611    15.994914619570
         N           -1.729569908660    -0.679314561342     0.004794978611    14.003074004430
         C            0.493571091340     0.199579438658     0.004793978611    12.000000000000
         C           -0.962525908660     0.446326438658     0.004797978611    12.000000000000
         C            1.552802091340     1.070293338658    -0.045205021389    12.000000000000
         C            2.729026091340     0.270208438658     0.004797978611    12.000000000000
         C            2.313925091340    -1.033147561342     0.004801978611    12.000000000000
         C           -3.177732908660    -0.618139561342     0.004798978611    12.000000000000
         H            1.471527091340     2.148145438658     0.004788978611     1.007825032230
         H           -1.261411908660    -1.576058561342     0.004789978611     1.007825032230
         H            3.755830091340     0.609718438658     0.004801978611     1.007825032230
         H            2.824281091340    -1.984932561342     0.004800978611     1.007825032230
         H           -3.453981908660     0.435900438658     0.004798978611     1.007825032230
         H           -3.590535908660    -1.099347561342     0.896114978611     1.007825032230
         H           -3.590539908660    -1.099347561342    -0.886516021389     1.007825032230

  Basis Set: AUG-CC-PVTZ
    Blend: AUG-CC-PVTZ
  Basis Set: (AUG-CC-PVTZ AUX)
    Blend: AUG-CC-PVTZ-JKFIT
	 Reference Energy          =    -435.6013841639567090 [Eh]
	 Singles Energy            =      -0.0000000000000000 [Eh]
	 Same-Spin Energy          =      -0.4478668662199023 [Eh]
	 Opposite-Spin Energy      =      -1.3715163821580252 [Eh]
	 Correlation Energy        =      -1.8193832483779275 [Eh]
	 Total Energy              =    -437.4207674123346123 [Eh]

	 ================> DF-SCS-MP2 Energies <==================
	-----------------------------------------------------------
	 SCS Same-Spin Scale       =       0.3333333333333333 [-]
	 SCS Opposite-Spin Scale   =       1.2000000000000000 [-]
	 SCS Same-Spin Energy      =      -0.1492889554066341 [Eh]
	 SCS Opposite-Spin Energy  =      -1.6458196585896301 [Eh]
	 SCS Correlation Energy    =      -1.7951086139962642 [Eh]
	 SCS Total Energy          =    -437.3964927779529717 [Eh]
	-----------------------------------------------------------

  Dipole Moment: [D]
     X:     1.0881      Y:    -3.2419      Z:     0.0348     Total:     3.4198

*** Psi4 exiting successfully. Buy a developer a beer!
