                               Psi4 1.3.2 release

  ==> Input File <==

--------------------------------------------------------------------------
#psi4
#
memory 32 gb

molecule  {
0 1
  O        0.9755400    -1.0764940     0.0000010
  O       -1.3738420     1.6199730     0.0000050
  N       -1.7006930    -0.6600630    -0.0000030
  C        0.5224480     0.2188310    -0.0000040
  C       -0.9336490     0.4655780     0.0000000
  C        1.5816790     1.0895450    -0.0000030
  C        2.7579030     0.2894600     0.0000000
  C        2.3428020    -1.0138960     0.0000040
  C       -3.1488560    -0.5988880     0.0000010
  H        1.5004036     2.1673977     0.1999910
  H       -1.2325350    -1.5568070    -0.0000080
  H        3.7847070     0.6289700     0.0000040
  H        2.8531580    -1.9656810     0.0000030
  H       -3.4251050     0.4551520     0.0000010
  H       -3.5616590    -1.0800960     0.8913170
  H       -3.5616630    -1.0800960    -0.8913140
units angstrom
no_reorient  #important for SAPT in psi4, default
symmetry c1  #important for SAPT in psi4, default
}

set PROPERTIES_ORIGIN ["COM"]
properties('MP2/aug-cc-pvtz', properties = ['dipole'])
--------------------------------------------------------------------------

    Molecular point group: c1
  Charge       = 0
  Multiplicity = 1
  Basis Set: AUG-CC-PVTZ
    Blend: AUG-CC-PVTZ
  Basis Set: (AUG-CC-PVTZ AUX)
    Blend: AUG-CC-PVTZ-JKFIT

    Orbital Energies [Eh]
    ---------------------

    Doubly Occupied:

       1A    -20.643873     2A    -20.516039     3A    -15.589182
       4A    -11.360652     5A    -11.312583     6A    -11.302033
       7A    -11.259513     8A    -11.253871     9A    -11.248068
      10A     -1.474693    11A     -1.371176    12A     -1.231603
      13A     -1.101314    14A     -1.039093    15A     -0.953993
      16A     -0.840940    17A     -0.818940    18A     -0.775048
      19A     -0.763614    20A     -0.671428    21A     -0.659086
      22A     -0.641844    23A     -0.618826    24A     -0.601121
      25A     -0.582485    26A     -0.577479    27A     -0.561527
      28A     -0.542380    29A     -0.536425    30A     -0.434011
      31A     -0.413869    32A     -0.391892    33A     -0.331057

  @DF-RHF Final Energy:  -435.59956296070720

   => Energetics <=

    Nuclear Repulsion Energy =            429.3693345133302728
    One-Electron Energy =               -1445.0984725042276295
    Two-Electron Energy =                 580.1295750301901535
    Total Energy =                       -435.5995629607072033
  Basis Set: (AUG-CC-PVTZ AUX)
    Blend: AUG-CC-PVTZ-RI
    Molecular point group: c1

    Geometry (in Angstrom), charge = 0, multiplicity = 1:

       Center              X                  Y                   Z               Mass
    ------------   -----------------  -----------------  -----------------  -----------------
         O            0.946663094564    -1.095745576580    -0.001611096460    15.994914619570
         O           -1.402718905436     1.600721423420    -0.001607096460    15.994914619570
         N           -1.729569905436    -0.679314576580    -0.001615096460    14.003074004430
         C            0.493571094564     0.199579423420    -0.001616096460    12.000000000000
         C           -0.962525905436     0.446326423420    -0.001612096460    12.000000000000
         C            1.552802094564     1.070293423420    -0.001615096460    12.000000000000
         C            2.729026094564     0.270208423420    -0.001612096460    12.000000000000
         C            2.313925094564    -1.033147576580    -0.001608096460    12.000000000000
         C           -3.177732905436    -0.618139576580    -0.001611096460    12.000000000000
         H            1.471526694564     2.148146123420     0.198378903540     1.007825032230
         H           -1.261411905436    -1.576058576580    -0.001620096460     1.007825032230
         H            3.755830094564     0.609718423420    -0.001608096460     1.007825032230
         H            2.824281094564    -1.984932576580    -0.001609096460     1.007825032230
         H           -3.453981905436     0.435900423420    -0.001611096460     1.007825032230
         H           -3.590535905436    -1.099347576580     0.889704903540     1.007825032230
         H           -3.590539905436    -1.099347576580    -0.892926096460     1.007825032230

  Basis Set: AUG-CC-PVTZ
    Blend: AUG-CC-PVTZ
  Basis Set: (AUG-CC-PVTZ AUX)
    Blend: AUG-CC-PVTZ-JKFIT
	 Reference Energy          =    -435.5995629607072033 [Eh]
	 Singles Energy            =      -0.0000000000000000 [Eh]
	 Same-Spin Energy          =      -0.4479759320698942 [Eh]
	 Opposite-Spin Energy      =      -1.3717762676695675 [Eh]
	 Correlation Energy        =      -1.8197521997394617 [Eh]
	 Total Energy              =    -437.4193151604466721 [Eh]

	 ================> DF-SCS-MP2 Energies <==================
	-----------------------------------------------------------
	 SCS Same-Spin Scale       =       0.3333333333333333 [-]
	 SCS Opposite-Spin Scale   =       1.2000000000000000 [-]
	 SCS Same-Spin Energy      =      -0.1493253106899647 [Eh]
	 SCS Opposite-Spin Energy  =      -1.6461315212034811 [Eh]
	 SCS Correlation Energy    =      -1.7954568318934458 [Eh]
	 SCS Total Energy          =    -437.3950197926006354 [Eh]
	-----------------------------------------------------------

  Dipole Moment: [D]
     X:     1.0855      Y:    -3.2611      Z:     0.1540     Total:     3.4405

*** Psi4 exiting successfully. Buy a developer a beer!
