                               Psi4 1.3.2 release

  ==> Input File <==

--------------------------------------------------------------------------
#psi4
#
memory 32 gb

molecule  {
0 1
  O        0.9755400    -1.0764940     0.0000010
  O       -1.3738420     1.6199730     0.0000050
  N       -1.7006930    -0.6600630    -0.0000030
  C        0.5224480     0.2188310    -0.0000040
  C       -0.9336490     0.4655780     0.0000000
  C        1.5816790     1.0895450    -0.0000030
  C        2.7579030     0.2894600     0.0000000
  C        2.3428020    -1.0138960     0.0000040
  C       -3.1488560    -0.5988880     0.0000010
  H        1.5004040     2.1673970    -0.0000090
  H       -1.2325350    -1.5568070    -0.0000080
  H        3.7847070     0.6289700     0.0000040
  H        2.8531581    -1.9656814    -0.2999970
  H       -3.4251050     0.4551520     0.0000010
  H       -3.5616590    -1.0800960     0.8913170
  H       -3.5616630    -1.0800960    -0.8913140
units angstrom
no_reorient  #important for SAPT in psi4, default
symmetry c1  #important for SAPT in psi4, default
}

set PROPERTIES_ORIGIN ["COM"]
properties('MP2/aug-cc-pvtz', properties = ['dipole'])
--------------------------------------------------------------------------

    Molecular point group: c1
  Charge       = 0
  Multiplicity = 1
  Basis Set: AUG-CC-PVTZ
    Blend: AUG-CC-PVTZ
  Basis Set: (AUG-CC-PVTZ AUX)
    Blend: AUG-CC-PVTZ-JKFIT

    Orbital Energies [Eh]
    ---------------------

    Doubly Occupied:

       1A    -20.643413     2A    -20.516553     3A    -15.589496
       4A    -11.361074     5A    -11.314946     6A    -11.302732
       7A    -11.259719     8A    -11.252958     9A    -11.249119
      10A     -1.474454    11A     -1.371642    12A     -1.231911
      13A     -1.102116    14A     -1.038213    15A     -0.953648
      16A     -0.839917    17A     -0.817705    18A     -0.775488
      19A     -0.764114    20A     -0.669720    21A     -0.654689
      22A     -0.642261    23A     -0.619071    24A     -0.600560
      25A     -0.585527    26A     -0.576658    27A     -0.559865
      28A     -0.542429    29A     -0.536400    30A     -0.434488
      31A     -0.414558    32A     -0.392196    33A     -0.331200

  @DF-RHF Final Energy:  -435.59658839859389

   => Energetics <=

    Nuclear Repulsion Energy =            429.2865462859529089
    One-Electron Energy =               -1444.9285926710199419
    Two-Electron Energy =                 580.0454579864731386
    Total Energy =                       -435.5965883985938945
  Basis Set: (AUG-CC-PVTZ AUX)
    Blend: AUG-CC-PVTZ-RI
    Molecular point group: c1

    Geometry (in Angstrom), charge = 0, multiplicity = 1:

       Center              X                  Y                   Z               Mass
    ------------   -----------------  -----------------  -----------------  -----------------
         O            0.946663090534    -1.095745567715     0.002418666606    15.994914619570
         O           -1.402718909466     1.600721432285     0.002422666606    15.994914619570
         N           -1.729569909466    -0.679314567715     0.002414666606    14.003074004430
         C            0.493571090534     0.199579432285     0.002413666606    12.000000000000
         C           -0.962525909466     0.446326432285     0.002417666606    12.000000000000
         C            1.552802090534     1.070293432285     0.002414666606    12.000000000000
         C            2.729026090534     0.270208432285     0.002417666606    12.000000000000
         C            2.313925090534    -1.033147567715     0.002421666606    12.000000000000
         C           -3.177732909466    -0.618139567715     0.002418666606    12.000000000000
         H            1.471527090534     2.148145432285     0.002408666606     1.007825032230
         H           -1.261411909466    -1.576058567715     0.002409666606     1.007825032230
         H            3.755830090534     0.609718432285     0.002421666606     1.007825032230
         H            2.824281190534    -1.984932967715    -0.297579333394     1.007825032230
         H           -3.453981909466     0.435900432285     0.002418666606     1.007825032230
         H           -3.590535909466    -1.099347567715     0.893734666606     1.007825032230
         H           -3.590539909466    -1.099347567715    -0.888896333394     1.007825032230

  Basis Set: AUG-CC-PVTZ
    Blend: AUG-CC-PVTZ
  Basis Set: (AUG-CC-PVTZ AUX)
    Blend: AUG-CC-PVTZ-JKFIT
	 Reference Energy          =    -435.5965883985938945 [Eh]
	 Singles Energy            =      -0.0000000000000000 [Eh]
	 Same-Spin Energy          =      -0.4481985562876984 [Eh]
	 Opposite-Spin Energy      =      -1.3723105197276164 [Eh]
	 Correlation Energy        =      -1.8205090760153149 [Eh]
	 Total Energy              =    -437.4170974746091929 [Eh]

	 ================> DF-SCS-MP2 Energies <==================
	-----------------------------------------------------------
	 SCS Same-Spin Scale       =       0.3333333333333333 [-]
	 SCS Opposite-Spin Scale   =       1.2000000000000000 [-]
	 SCS Same-Spin Energy      =      -0.1493995187625661 [Eh]
	 SCS Opposite-Spin Energy  =      -1.6467726236731397 [Eh]
	 SCS Correlation Energy    =      -1.7961721424357058 [Eh]
	 SCS Total Energy          =    -437.3927605410295882 [Eh]
	-----------------------------------------------------------

  Dipole Moment: [D]
     X:     1.0406      Y:    -3.1632      Z:    -0.2559     Total:     3.3398

*** Psi4 exiting successfully. Buy a developer a beer!
