                               Psi4 1.3.2 release

  ==> Input File <==

--------------------------------------------------------------------------
#psi4
#
memory 32 gb

molecule  {
0 1
  O        0.9755400    -1.0764940     0.0000010
  O       -1.3738420     1.6199730     0.0000050
  N       -1.7006930    -0.6600630    -0.0000030
  C        0.5224482     0.2188306     0.0999960
  C       -0.9336490     0.4655780     0.0000000
  C        1.5816790     1.0895450    -0.0000030
  C        2.7579030     0.2894600     0.0000000
  C        2.3428020    -1.0138960     0.0000040
  C       -3.1488560    -0.5988880     0.0000010
  H        1.5004040     2.1673970    -0.0000090
  H       -1.2325350    -1.5568070    -0.0000080
  H        3.7847070     0.6289700     0.0000040
  H        2.8531580    -1.9656810     0.0000030
  H       -3.4251050     0.4551520     0.0000010
  H       -3.5616590    -1.0800960     0.8913170
  H       -3.5616630    -1.0800960    -0.8913140
units angstrom
no_reorient  #important for SAPT in psi4, default
symmetry c1  #important for SAPT in psi4, default
}

set PROPERTIES_ORIGIN ["COM"]
properties('MP2/aug-cc-pvtz', properties = ['dipole'])
--------------------------------------------------------------------------

    Molecular point group: c1
  Charge       = 0
  Multiplicity = 1
  Basis Set: AUG-CC-PVTZ
    Blend: AUG-CC-PVTZ
  Basis Set: (AUG-CC-PVTZ AUX)
    Blend: AUG-CC-PVTZ-JKFIT

    Orbital Energies [Eh]
    ---------------------

    Doubly Occupied:

       1A    -20.643167     2A    -20.515637     3A    -15.588636
       4A    -11.360409     5A    -11.313264     6A    -11.301607
       7A    -11.259186     8A    -11.253877     9A    -11.248236
      10A     -1.473050    11A     -1.370692    12A     -1.231084
      13A     -1.101299    14A     -1.038241    15A     -0.953569
      16A     -0.840472    17A     -0.818713    18A     -0.775271
      19A     -0.764248    20A     -0.671909    21A     -0.657373
      22A     -0.641481    23A     -0.618508    24A     -0.600770
      25A     -0.586437    26A     -0.576889    27A     -0.561414
      28A     -0.542010    29A     -0.535685    30A     -0.433399
      31A     -0.413993    32A     -0.391550    33A     -0.331072

  @DF-RHF Final Energy:  -435.59907189118195

   => Energetics <=

    Nuclear Repulsion Energy =            429.2857936177294391
    One-Electron Energy =               -1444.9434349251584990
    Two-Electron Energy =                 580.0585694162471100
    Total Energy =                       -435.5990718911818931
  Basis Set: (AUG-CC-PVTZ AUX)
    Blend: AUG-CC-PVTZ-RI
    Molecular point group: c1

    Geometry (in Angstrom), charge = 0, multiplicity = 1:

       Center              X                  Y                   Z               Mass
    ------------   -----------------  -----------------  -----------------  -----------------
         O            0.946663072148    -1.095745532553    -0.009595530923    15.994914619570
         O           -1.402718927852     1.600721467447    -0.009591530923    15.994914619570
         N           -1.729569927852    -0.679314532553    -0.009599530923    14.003074004430
         C            0.493571272148     0.199579067447     0.090399469077    12.000000000000
         C           -0.962525927852     0.446326467447    -0.009596530923    12.000000000000
         C            1.552802072148     1.070293467447    -0.009599530923    12.000000000000
         C            2.729026072148     0.270208467447    -0.009596530923    12.000000000000
         C            2.313925072148    -1.033147532553    -0.009592530923    12.000000000000
         C           -3.177732927852    -0.618139532553    -0.009595530923    12.000000000000
         H            1.471527072148     2.148145467447    -0.009605530923     1.007825032230
         H           -1.261411927852    -1.576058532553    -0.009604530923     1.007825032230
         H            3.755830072148     0.609718467447    -0.009592530923     1.007825032230
         H            2.824281072148    -1.984932532553    -0.009593530923     1.007825032230
         H           -3.453981927852     0.435900467447    -0.009595530923     1.007825032230
         H           -3.590535927852    -1.099347532553     0.881720469077     1.007825032230
         H           -3.590539927852    -1.099347532553    -0.900910530923     1.007825032230

  Basis Set: AUG-CC-PVTZ
    Blend: AUG-CC-PVTZ
  Basis Set: (AUG-CC-PVTZ AUX)
    Blend: AUG-CC-PVTZ-JKFIT
	 Reference Energy          =    -435.5990718911819499 [Eh]
	 Singles Energy            =      -0.0000000000000000 [Eh]
	 Same-Spin Energy          =      -0.4479581462121201 [Eh]
	 Opposite-Spin Energy      =      -1.3717107298453524 [Eh]
	 Correlation Energy        =      -1.8196688760574724 [Eh]
	 Total Energy              =    -437.4187407672393988 [Eh]

	 ================> DF-SCS-MP2 Energies <==================
	-----------------------------------------------------------
	 SCS Same-Spin Scale       =       0.3333333333333333 [-]
	 SCS Opposite-Spin Scale   =       1.2000000000000000 [-]
	 SCS Same-Spin Energy      =      -0.1493193820707067 [Eh]
	 SCS Opposite-Spin Energy  =      -1.6460528758144228 [Eh]
	 SCS Correlation Energy    =      -1.7953722578851294 [Eh]
	 SCS Total Energy          =    -437.3944441490670556 [Eh]
	-----------------------------------------------------------

  Dipole Moment: [D]
     X:     1.1079      Y:    -3.2313      Z:     0.0050     Total:     3.4159

*** Psi4 exiting successfully. Buy a developer a beer!
