                               Psi4 1.3.2 release

  ==> Input File <==

--------------------------------------------------------------------------
#psi4
#
memory 32 gb

molecule  {
0 1
  O        0.9755400    -1.0764940     0.0000010
  O       -1.3738420     1.6199730     0.0000050
  N       -1.7006930    -0.6600630    -0.0000030
  C        0.5224480     0.2188310    -0.0000040
  C       -0.9336490     0.4655780     0.0000000
  C        1.5816790     1.0895450    -0.0000030
  C        2.7579030     0.2894600     0.0000000
  C        2.3428020    -1.0138960     0.0000040
  C       -3.1488560    -0.5988880     0.0000010
  H        1.5004034     2.1673981     0.2999910
  H       -1.2325350    -1.5568070    -0.0000080
  H        3.7847070     0.6289700     0.0000040
  H        2.8531580    -1.9656810     0.0000030
  H       -3.4251050     0.4551520     0.0000010
  H       -3.5616590    -1.0800960     0.8913170
  H       -3.5616630    -1.0800960    -0.8913140
units angstrom
no_reorient  #important for SAPT in psi4, default
symmetry c1  #important for SAPT in psi4, default
}

set PROPERTIES_ORIGIN ["COM"]
properties('MP2/aug-cc-pvtz', properties = ['dipole'])
--------------------------------------------------------------------------

    Molecular point group: c1
  Charge       = 0
  Multiplicity = 1
  Basis Set: AUG-CC-PVTZ
    Blend: AUG-CC-PVTZ
  Basis Set: (AUG-CC-PVTZ AUX)
    Blend: AUG-CC-PVTZ-JKFIT

    Orbital Energies [Eh]
    ---------------------

    Doubly Occupied:

       1A    -20.644200     2A    -20.516243     3A    -15.589383
       4A    -11.360851     5A    -11.312589     6A    -11.302754
       7A    -11.259646     8A    -11.255513     9A    -11.248099
      10A     -1.475017    11A     -1.371345    12A     -1.231787
      13A     -1.101093    14A     -1.039229    15A     -0.954048
      16A     -0.840770    17A     -0.818208    18A     -0.774777
      19A     -0.761994    20A     -0.671269    21A     -0.659463
      22A     -0.641939    23A     -0.619006    24A     -0.601235
      25A     -0.578594    26A     -0.576601    27A     -0.561202
      28A     -0.542510    29A     -0.536531    30A     -0.434199
      31A     -0.413272    32A     -0.392000    33A     -0.331173

  @DF-RHF Final Energy:  -435.59596110270297

   => Energetics <=

    Nuclear Repulsion Energy =            429.2819775117718564
    One-Electron Energy =               -1444.9227958272458636
    Two-Electron Energy =                 580.0448572127710349
    Total Energy =                       -435.5959611027029723
  Basis Set: (AUG-CC-PVTZ AUX)
    Blend: AUG-CC-PVTZ-RI
    Molecular point group: c1

    Geometry (in Angstrom), charge = 0, multiplicity = 1:

       Center              X                  Y                   Z               Mass
    ------------   -----------------  -----------------  -----------------  -----------------
         O            0.946663096176    -1.095745579804    -0.002417049073    15.994914619570
         O           -1.402718903824     1.600721420196    -0.002413049073    15.994914619570
         N           -1.729569903824    -0.679314579804    -0.002421049073    14.003074004430
         C            0.493571096176     0.199579420196    -0.002422049073    12.000000000000
         C           -0.962525903824     0.446326420196    -0.002418049073    12.000000000000
         C            1.552802096176     1.070293420196    -0.002421049073    12.000000000000
         C            2.729026096176     0.270208420196    -0.002418049073    12.000000000000
         C            2.313925096176    -1.033147579804    -0.002414049073    12.000000000000
         C           -3.177732903824    -0.618139579804    -0.002417049073    12.000000000000
         H            1.471526496176     2.148146520196     0.297572950927     1.007825032230
         H           -1.261411903824    -1.576058579804    -0.002426049073     1.007825032230
         H            3.755830096176     0.609718420196    -0.002414049073     1.007825032230
         H            2.824281096176    -1.984932579804    -0.002415049073     1.007825032230
         H           -3.453981903824     0.435900420196    -0.002417049073     1.007825032230
         H           -3.590535903824    -1.099347579804     0.888898950927     1.007825032230
         H           -3.590539903824    -1.099347579804    -0.893732049073     1.007825032230

  Basis Set: AUG-CC-PVTZ
    Blend: AUG-CC-PVTZ
  Basis Set: (AUG-CC-PVTZ AUX)
    Blend: AUG-CC-PVTZ-JKFIT
	 Reference Energy          =    -435.5959611027029723 [Eh]
	 Singles Energy            =      -0.0000000000000000 [Eh]
	 Same-Spin Energy          =      -0.4481637066162535 [Eh]
	 Opposite-Spin Energy      =      -1.3722492000956452 [Eh]
	 Correlation Energy        =      -1.8204129067118988 [Eh]
	 Total Energy              =    -437.4163740094148807 [Eh]

	 ================> DF-SCS-MP2 Energies <==================
	-----------------------------------------------------------
	 SCS Same-Spin Scale       =       0.3333333333333333 [-]
	 SCS Opposite-Spin Scale   =       1.2000000000000000 [-]
	 SCS Same-Spin Energy      =      -0.1493879022054178 [Eh]
	 SCS Opposite-Spin Energy  =      -1.6466990401147743 [Eh]
	 SCS Correlation Energy    =      -1.7960869423201922 [Eh]
	 SCS Total Energy          =    -437.3920480450231594 [Eh]
	-----------------------------------------------------------

  Dipole Moment: [D]
     X:     1.0782      Y:    -3.2901      Z:     0.2292     Total:     3.4698

*** Psi4 exiting successfully. Buy a developer a beer!
