                               Psi4 1.3.2 release

  ==> Input File <==

--------------------------------------------------------------------------
#psi4
#
memory 32 gb

molecule  {
0 1
  O        0.9755400    -1.0764940     0.0000010
  O       -1.3738420     1.6199730     0.0000050
  N       -1.7006930    -0.6600630    -0.0000030
  C        0.5224480     0.2188310    -0.0000040
  C       -0.9336490     0.4655780     0.0000000
  C        1.5816790     1.0895450    -0.0000030
  C        2.7579030     0.2894600     0.0000000
  C        2.3428020    -1.0138960     0.0000040
  C       -3.1488560    -0.5988880     0.0000010
  H        1.5004040     2.1673970    -0.0000090
  H       -1.2325350    -1.5568070    -0.0000080
  H        3.7847070     0.6289700     0.0000040
  H        2.8531580    -1.9656811    -0.0999970
  H       -3.4251050     0.4551520     0.0000010
  H       -3.5616590    -1.0800960     0.8913170
  H       -3.5616630    -1.0800960    -0.8913140
units angstrom
no_reorient  #important for SAPT in psi4, default
symmetry c1  #important for SAPT in psi4, default
}

set PROPERTIES_ORIGIN ["COM"]
properties('MP2/aug-cc-pvtz', properties = ['dipole'])
--------------------------------------------------------------------------

    Molecular point group: c1
  Charge       = 0
  Multiplicity = 1
  Basis Set: AUG-CC-PVTZ
    Blend: AUG-CC-PVTZ
  Basis Set: (AUG-CC-PVTZ AUX)
    Blend: AUG-CC-PVTZ-JKFIT

    Orbital Energies [Eh]
    ---------------------

    Doubly Occupied:

       1A    -20.643582     2A    -20.515947     3A    -15.589071
       4A    -11.360555     5A    -11.312856     6A    -11.301590
       7A    -11.259439     8A    -11.252571     9A    -11.248174
      10A     -1.474432    11A     -1.371104    12A     -1.231503
      13A     -1.101581    14A     -1.038893    15A     -0.953915
      16A     -0.840968    17A     -0.819404    18A     -0.775406
      19A     -0.764797    20A     -0.671321    21A     -0.658303
      22A     -0.641828    23A     -0.618714    24A     -0.600978
      25A     -0.586400    26A     -0.577367    27A     -0.561508
      28A     -0.542294    29A     -0.536346    30A     -0.433927
      31A     -0.414393    32A     -0.391847    33A     -0.330992

  @DF-RHF Final Energy:  -435.60159477171510

   => Energetics <=

    Nuclear Repulsion Energy =            429.4241641676327959
    One-Electron Energy =               -1445.2075101262655608
    Two-Electron Energy =                 580.1817511869176087
    Total Energy =                       -435.6015947717150993
  Basis Set: (AUG-CC-PVTZ AUX)
    Blend: AUG-CC-PVTZ-RI
    Molecular point group: c1

    Geometry (in Angstrom), charge = 0, multiplicity = 1:

       Center              X                  Y                   Z               Mass
    ------------   -----------------  -----------------  -----------------  -----------------
         O            0.946663091340    -1.095745570133     0.000806761380    15.994914619570
         O           -1.402718908660     1.600721429867     0.000810761380    15.994914619570
         N           -1.729569908660    -0.679314570133     0.000802761380    14.003074004430
         C            0.493571091340     0.199579429867     0.000801761380    12.000000000000
         C           -0.962525908660     0.446326429867     0.000805761380    12.000000000000
         C            1.552802091340     1.070293429867     0.000802761380    12.000000000000
         C            2.729026091340     0.270208429867     0.000805761380    12.000000000000
         C            2.313925091340    -1.033147570133     0.000809761380    12.000000000000
         C           -3.177732908660    -0.618139570133     0.000806761380    12.000000000000
         H            1.471527091340     2.148145429867     0.000796761380     1.007825032230
         H           -1.261411908660    -1.576058570133     0.000797761380     1.007825032230
         H            3.755830091340     0.609718429867     0.000809761380     1.007825032230
         H            2.824281091340    -1.984932670133    -0.099191238620     1.007825032230
         H           -3.453981908660     0.435900429867     0.000806761380     1.007825032230
         H           -3.590535908660    -1.099347570133     0.892122761380     1.007825032230
         H           -3.590539908660    -1.099347570133    -0.890508238620     1.007825032230

  Basis Set: AUG-CC-PVTZ
    Blend: AUG-CC-PVTZ
  Basis Set: (AUG-CC-PVTZ AUX)
    Blend: AUG-CC-PVTZ-JKFIT
	 Reference Energy          =    -435.6015947717150993 [Eh]
	 Singles Energy            =      -0.0000000000000000 [Eh]
	 Same-Spin Energy          =      -0.4478642179890256 [Eh]
	 Opposite-Spin Energy      =      -1.3715123843385468 [Eh]
	 Correlation Energy        =      -1.8193766023275724 [Eh]
	 Total Energy              =    -437.4209713740426650 [Eh]

	 ================> DF-SCS-MP2 Energies <==================
	-----------------------------------------------------------
	 SCS Same-Spin Scale       =       0.3333333333333333 [-]
	 SCS Opposite-Spin Scale   =       1.2000000000000000 [-]
	 SCS Same-Spin Energy      =      -0.1492880726630085 [Eh]
	 SCS Opposite-Spin Energy  =      -1.6458148612062562 [Eh]
	 SCS Correlation Energy    =      -1.7951029338692648 [Eh]
	 SCS Total Energy          =    -437.3966977055843586 [Eh]
	-----------------------------------------------------------

  Dipole Moment: [D]
     X:     1.0860      Y:    -3.2288      Z:    -0.0873     Total:     3.4076

*** Psi4 exiting successfully. Buy a developer a beer!
