                               Psi4 1.3.2 release

  ==> Input File <==

--------------------------------------------------------------------------
#psi4
#
memory 32 gb

molecule  {
0 1
  O        0.9755400    -1.0764940     0.0000010
  O       -1.3738420     1.6199730     0.0000050
  N       -1.7006930    -0.6600630    -0.0000030
  C        0.5224485     0.2188301     0.2499960
  C       -0.9336490     0.4655780     0.0000000
  C        1.5816790     1.0895450    -0.0000030
  C        2.7579030     0.2894600     0.0000000
  C        2.3428020    -1.0138960     0.0000040
  C       -3.1488560    -0.5988880     0.0000010
  H        1.5004040     2.1673970    -0.0000090
  H       -1.2325350    -1.5568070    -0.0000080
  H        3.7847070     0.6289700     0.0000040
  H        2.8531580    -1.9656810     0.0000030
  H       -3.4251050     0.4551520     0.0000010
  H       -3.5616590    -1.0800960     0.8913170
  H       -3.5616630    -1.0800960    -0.8913140
units angstrom
no_reorient  #important for SAPT in psi4, default
symmetry c1  #important for SAPT in psi4, default
}

set PROPERTIES_ORIGIN ["COM"]
properties('MP2/aug-cc-pvtz', properties = ['dipole'])
--------------------------------------------------------------------------

    Molecular point group: c1
  Charge       = 0
  Multiplicity = 1
  Basis Set: AUG-CC-PVTZ
    Blend: AUG-CC-PVTZ
  Basis Set: (AUG-CC-PVTZ AUX)
    Blend: AUG-CC-PVTZ-JKFIT

    Orbital Energies [Eh]
    ---------------------

    Doubly Occupied:

       1A    -20.640808     2A    -20.514489     3A    -15.586708
       4A    -11.359895     5A    -11.316924     6A    -11.302288
       7A    -11.260888     8A    -11.258071     9A    -11.249229
      10A     -1.466074    11A     -1.368956    12A     -1.229212
      13A     -1.100371    14A     -1.034343    15A     -0.951629
      16A     -0.837322    17A     -0.814285    18A     -0.774605
      19A     -0.760962    20A     -0.672520    21A     -0.651468
      22A     -0.639942    23A     -0.617622    24A     -0.599489
      25A     -0.586509    26A     -0.573874    27A     -0.559593
      28A     -0.540570    29A     -0.532428    30A     -0.431096
      31A     -0.412069    32A     -0.390236    33A     -0.331761

  @DF-RHF Final Energy:  -435.58312099317624

   => Energetics <=

    Nuclear Repulsion Energy =            428.4810416111957920
    One-Electron Energy =               -1443.3958492458464207
    Two-Electron Energy =                 579.3316866414744482
    Total Energy =                       -435.5831209931761805
  Basis Set: (AUG-CC-PVTZ AUX)
    Blend: AUG-CC-PVTZ-RI
    Molecular point group: c1

    Geometry (in Angstrom), charge = 0, multiplicity = 1:

       Center              X                  Y                   Z               Mass
    ------------   -----------------  -----------------  -----------------  -----------------
         O            0.946663043359    -1.095745484572    -0.023990040458    15.994914619570
         O           -1.402718956641     1.600721515428    -0.023986040458    15.994914619570
         N           -1.729569956641    -0.679314484572    -0.023994040458    14.003074004430
         C            0.493571543359     0.199578615428     0.226004959542    12.000000000000
         C           -0.962525956641     0.446326515428    -0.023991040458    12.000000000000
         C            1.552802043359     1.070293515428    -0.023994040458    12.000000000000
         C            2.729026043359     0.270208515428    -0.023991040458    12.000000000000
         C            2.313925043359    -1.033147484572    -0.023987040458    12.000000000000
         C           -3.177732956641    -0.618139484572    -0.023990040458    12.000000000000
         H            1.471527043359     2.148145515428    -0.024000040458     1.007825032230
         H           -1.261411956641    -1.576058484572    -0.023999040458     1.007825032230
         H            3.755830043359     0.609718515428    -0.023987040458     1.007825032230
         H            2.824281043359    -1.984932484572    -0.023988040458     1.007825032230
         H           -3.453981956641     0.435900515428    -0.023990040458     1.007825032230
         H           -3.590535956641    -1.099347484572     0.867325959542     1.007825032230
         H           -3.590539956641    -1.099347484572    -0.915305040458     1.007825032230

  Basis Set: AUG-CC-PVTZ
    Blend: AUG-CC-PVTZ
  Basis Set: (AUG-CC-PVTZ AUX)
    Blend: AUG-CC-PVTZ-JKFIT
	 Reference Energy          =    -435.5831209931762373 [Eh]
	 Singles Energy            =      -0.0000000000000000 [Eh]
	 Same-Spin Energy          =      -0.4486250450171451 [Eh]
	 Opposite-Spin Energy      =      -1.3735941186621443 [Eh]
	 Correlation Energy        =      -1.8222191636792895 [Eh]
	 Total Energy              =    -437.4053401568555159 [Eh]

	 ================> DF-SCS-MP2 Energies <==================
	-----------------------------------------------------------
	 SCS Same-Spin Scale       =       0.3333333333333333 [-]
	 SCS Opposite-Spin Scale   =       1.2000000000000000 [-]
	 SCS Same-Spin Energy      =      -0.1495416816723817 [Eh]
	 SCS Opposite-Spin Energy  =      -1.6483129423945730 [Eh]
	 SCS Correlation Energy    =      -1.7978546240669546 [Eh]
	 SCS Total Energy          =    -437.3809756172431662 [Eh]
	-----------------------------------------------------------

  Dipole Moment: [D]
     X:     1.1834      Y:    -3.2007      Z:     0.0042     Total:     3.4124

*** Psi4 exiting successfully. Buy a developer a beer!
