                               Psi4 1.3.2 release

  ==> Input File <==

--------------------------------------------------------------------------
#psi4
#
memory 32 gb

molecule  {
0 1
  O        0.9755400    -1.0764940     0.0000010
  O       -1.3738420     1.6199730     0.0000050
  N       -1.7006930    -0.6600630    -0.0000030
  C        0.5224480     0.2188310    -0.0000040
  C       -0.9336490     0.4655780     0.0000000
  C        1.5816790     1.0895450    -0.0000030
  C        2.7579030     0.2894600     0.0000000
  C        2.3428020    -1.0138960     0.0000040
  C       -3.1488560    -0.5988880     0.0000010
  H        1.5004040     2.1673970    -0.0000090
  H       -1.2325350    -1.5568070    -0.0000080
  H        3.7847066     0.6289704     0.1500040
  H        2.8531580    -1.9656810     0.0000030
  H       -3.4251050     0.4551520     0.0000010
  H       -3.5616590    -1.0800960     0.8913170
  H       -3.5616630    -1.0800960    -0.8913140
units angstrom
no_reorient  #important for SAPT in psi4, default
symmetry c1  #important for SAPT in psi4, default
}

set PROPERTIES_ORIGIN ["COM"]
properties('MP2/aug-cc-pvtz', properties = ['dipole'])
--------------------------------------------------------------------------

    Molecular point group: c1
  Charge       = 0
  Multiplicity = 1
  Basis Set: AUG-CC-PVTZ
    Blend: AUG-CC-PVTZ
  Basis Set: (AUG-CC-PVTZ AUX)
    Blend: AUG-CC-PVTZ-JKFIT

    Orbital Energies [Eh]
    ---------------------

    Doubly Occupied:

       1A    -20.643807     2A    -20.515920     3A    -15.589078
       4A    -11.360544     5A    -11.312975     6A    -11.301511
       7A    -11.259447     8A    -11.252592     9A    -11.248856
      10A     -1.474634    11A     -1.371087    12A     -1.231510
      13A     -1.101451    14A     -1.039057    15A     -0.953980
      16A     -0.841226    17A     -0.818916    18A     -0.775373
      19A     -0.764191    20A     -0.671731    21A     -0.659040
      22A     -0.641399    23A     -0.618771    24A     -0.600160
      25A     -0.586529    26A     -0.576547    27A     -0.561512
      28A     -0.542327    29A     -0.536377    30A     -0.433915
      31A     -0.414126    32A     -0.391848    33A     -0.331074

  @DF-RHF Final Energy:  -435.60079592176794

   => Energetics <=

    Nuclear Repulsion Energy =            429.4037487657388965
    One-Electron Energy =               -1445.1660700089003058
    Two-Electron Energy =                 580.1615253213934693
    Total Energy =                       -435.6007959217679399
  Basis Set: (AUG-CC-PVTZ AUX)
    Blend: AUG-CC-PVTZ-RI
    Molecular point group: c1

    Geometry (in Angstrom), charge = 0, multiplicity = 1:

       Center              X                  Y                   Z               Mass
    ------------   -----------------  -----------------  -----------------  -----------------
         O            0.946663094564    -1.095745574162    -0.001208120153    15.994914619570
         O           -1.402718905436     1.600721425838    -0.001204120153    15.994914619570
         N           -1.729569905436    -0.679314574162    -0.001212120153    14.003074004430
         C            0.493571094564     0.199579425838    -0.001213120153    12.000000000000
         C           -0.962525905436     0.446326425838    -0.001209120153    12.000000000000
         C            1.552802094564     1.070293425838    -0.001212120153    12.000000000000
         C            2.729026094564     0.270208425838    -0.001209120153    12.000000000000
         C            2.313925094564    -1.033147574162    -0.001205120153    12.000000000000
         C           -3.177732905436    -0.618139574162    -0.001208120153    12.000000000000
         H            1.471527094564     2.148145425838    -0.001218120153     1.007825032230
         H           -1.261411905436    -1.576058574162    -0.001217120153     1.007825032230
         H            3.755829694564     0.609718825838     0.148794879847     1.007825032230
         H            2.824281094564    -1.984932574162    -0.001206120153     1.007825032230
         H           -3.453981905436     0.435900425838    -0.001208120153     1.007825032230
         H           -3.590535905436    -1.099347574162     0.890107879847     1.007825032230
         H           -3.590539905436    -1.099347574162    -0.892523120153     1.007825032230

  Basis Set: AUG-CC-PVTZ
    Blend: AUG-CC-PVTZ
  Basis Set: (AUG-CC-PVTZ AUX)
    Blend: AUG-CC-PVTZ-JKFIT
	 Reference Energy          =    -435.6007959217679399 [Eh]
	 Singles Energy            =      -0.0000000000000000 [Eh]
	 Same-Spin Energy          =      -0.4478803804142251 [Eh]
	 Opposite-Spin Energy      =      -1.3715544822500831 [Eh]
	 Correlation Energy        =      -1.8194348626643082 [Eh]
	 Total Energy              =    -437.4202307844322490 [Eh]

	 ================> DF-SCS-MP2 Energies <==================
	-----------------------------------------------------------
	 SCS Same-Spin Scale       =       0.3333333333333333 [-]
	 SCS Opposite-Spin Scale   =       1.2000000000000000 [-]
	 SCS Same-Spin Energy      =      -0.1492934601380750 [Eh]
	 SCS Opposite-Spin Energy  =      -1.6458653787000996 [Eh]
	 SCS Correlation Energy    =      -1.7951588388381747 [Eh]
	 SCS Total Energy          =    -437.3959547606061165 [Eh]
	-----------------------------------------------------------

  Dipole Moment: [D]
     X:     1.0732      Y:    -3.2438      Z:     0.1152     Total:     3.4187

*** Psi4 exiting successfully. Buy a developer a beer!
