                               Psi4 1.3.2 release

  ==> Input File <==

--------------------------------------------------------------------------
#psi4
#
memory 32 gb

molecule  {
0 1
  O        0.9755400    -1.0764940     0.0000010
  O       -1.3738420     1.6199730     0.0000050
  N       -1.7006930    -0.6600630    -0.0000030
  C        0.5224480     0.2188310    -0.0000040
  C       -0.9336490     0.4655780     0.0000000
  C        1.5816790     1.0895450    -0.0000030
  C        2.7579030     0.2894600     0.0000000
  C        2.3428020    -1.0138960     0.0000040
  C       -3.1488560    -0.5988880     0.0000010
  H        1.5004040     2.1673970    -0.0000090
  H       -1.2325350    -1.5568070    -0.0000080
  H        3.7847070     0.6289700     0.0000040
  H        2.8531581    -1.9656813    -0.2499970
  H       -3.4251050     0.4551520     0.0000010
  H       -3.5616590    -1.0800960     0.8913170
  H       -3.5616630    -1.0800960    -0.8913140
units angstrom
no_reorient  #important for SAPT in psi4, default
symmetry c1  #important for SAPT in psi4, default
}

set PROPERTIES_ORIGIN ["COM"]
properties('MP2/aug-cc-pvtz', properties = ['dipole'])
--------------------------------------------------------------------------

    Molecular point group: c1
  Charge       = 0
  Multiplicity = 1
  Basis Set: AUG-CC-PVTZ
    Blend: AUG-CC-PVTZ
  Basis Set: (AUG-CC-PVTZ AUX)
    Blend: AUG-CC-PVTZ-JKFIT

    Orbital Energies [Eh]
    ---------------------

    Doubly Occupied:

       1A    -20.643462     2A    -20.516348     3A    -15.589352
       4A    -11.360898     5A    -11.314238     6A    -11.302346
       7A    -11.259624     8A    -11.252825     9A    -11.248798
      10A     -1.474441    11A     -1.371460    12A     -1.231772
      13A     -1.101933    14A     -1.038426    15A     -0.953729
      16A     -0.840219    17A     -0.818267    18A     -0.775452
      19A     -0.764339    20A     -0.670205    21A     -0.655914
      22A     -0.642115    23A     -0.618950    24A     -0.600685
      25A     -0.585803    26A     -0.576901    27A     -0.560509
      28A     -0.542390    29A     -0.536394    30A     -0.434299
      31A     -0.414500    32A     -0.392077    33A     -0.331127

  @DF-RHF Final Energy:  -435.59843468065202

   => Energetics <=

    Nuclear Repulsion Energy =            429.3327069522385386
    One-Electron Energy =               -1445.0226910319488525
    Two-Electron Energy =                 580.0915493990581808
    Total Energy =                       -435.5984346806520762
  Basis Set: (AUG-CC-PVTZ AUX)
    Blend: AUG-CC-PVTZ-RI
    Molecular point group: c1

    Geometry (in Angstrom), charge = 0, multiplicity = 1:

       Center              X                  Y                   Z               Mass
    ------------   -----------------  -----------------  -----------------  -----------------
         O            0.946663090534    -1.095745568521     0.002015690299    15.994914619570
         O           -1.402718909466     1.600721431479     0.002019690299    15.994914619570
         N           -1.729569909466    -0.679314568521     0.002011690299    14.003074004430
         C            0.493571090534     0.199579431479     0.002010690299    12.000000000000
         C           -0.962525909466     0.446326431479     0.002014690299    12.000000000000
         C            1.552802090534     1.070293431479     0.002011690299    12.000000000000
         C            2.729026090534     0.270208431479     0.002014690299    12.000000000000
         C            2.313925090534    -1.033147568521     0.002018690299    12.000000000000
         C           -3.177732909466    -0.618139568521     0.002015690299    12.000000000000
         H            1.471527090534     2.148145431479     0.002005690299     1.007825032230
         H           -1.261411909466    -1.576058568521     0.002006690299     1.007825032230
         H            3.755830090534     0.609718431479     0.002018690299     1.007825032230
         H            2.824281190534    -1.984932868521    -0.247982309701     1.007825032230
         H           -3.453981909466     0.435900431479     0.002015690299     1.007825032230
         H           -3.590535909466    -1.099347568521     0.893331690299     1.007825032230
         H           -3.590539909466    -1.099347568521    -0.889299309701     1.007825032230

  Basis Set: AUG-CC-PVTZ
    Blend: AUG-CC-PVTZ
  Basis Set: (AUG-CC-PVTZ AUX)
    Blend: AUG-CC-PVTZ-JKFIT
	 Reference Energy          =    -435.5984346806520193 [Eh]
	 Singles Energy            =      -0.0000000000000000 [Eh]
	 Same-Spin Energy          =      -0.4480857266644849 [Eh]
	 Opposite-Spin Energy      =      -1.3720303668457057 [Eh]
	 Correlation Energy        =      -1.8201160935101905 [Eh]
	 Total Energy              =    -437.4185507741622132 [Eh]

	 ================> DF-SCS-MP2 Energies <==================
	-----------------------------------------------------------
	 SCS Same-Spin Scale       =       0.3333333333333333 [-]
	 SCS Opposite-Spin Scale   =       1.2000000000000000 [-]
	 SCS Same-Spin Energy      =      -0.1493619088881616 [Eh]
	 SCS Opposite-Spin Energy  =      -1.6464364402148468 [Eh]
	 SCS Correlation Energy    =      -1.7957983491030085 [Eh]
	 SCS Total Energy          =    -437.3942330297550143 [Eh]
	-----------------------------------------------------------

  Dipole Moment: [D]
     X:     1.0559      Y:    -3.1852      Z:    -0.2149     Total:     3.3626

*** Psi4 exiting successfully. Buy a developer a beer!
