                               Psi4 1.3.2 release

  ==> Input File <==

--------------------------------------------------------------------------
#psi4
#
memory 32 gb

molecule  {
0 1
  O        0.9755400    -1.0764940     0.0000010
  O       -1.3738420     1.6199730     0.0000050
  N       -1.7006930    -0.6600630    -0.0000030
  C        0.5224480     0.2188310    -0.0000040
  C       -0.9336490     0.4655780     0.0000000
  C        1.5816790     1.0895450    -0.0000030
  C        2.7579030     0.2894600     0.0000000
  C        2.3428020    -1.0138960     0.0000040
  C       -3.1488560    -0.5988880     0.0000010
  H        1.5004040     2.1673970    -0.0000090
  H       -1.2325350    -1.5568070    -0.0000080
  H        3.7847065     0.6289705     0.2000040
  H        2.8531580    -1.9656810     0.0000030
  H       -3.4251050     0.4551520     0.0000010
  H       -3.5616590    -1.0800960     0.8913170
  H       -3.5616630    -1.0800960    -0.8913140
units angstrom
no_reorient  #important for SAPT in psi4, default
symmetry c1  #important for SAPT in psi4, default
}

set PROPERTIES_ORIGIN ["COM"]
properties('MP2/aug-cc-pvtz', properties = ['dipole'])
--------------------------------------------------------------------------

    Molecular point group: c1
  Charge       = 0
  Multiplicity = 1
  Basis Set: AUG-CC-PVTZ
    Blend: AUG-CC-PVTZ
  Basis Set: (AUG-CC-PVTZ AUX)
    Blend: AUG-CC-PVTZ-JKFIT

    Orbital Energies [Eh]
    ---------------------

    Doubly Occupied:

       1A    -20.643959     2A    -20.515959     3A    -15.589126
       4A    -11.360588     5A    -11.313272     6A    -11.301565
       7A    -11.259481     8A    -11.252653     9A    -11.249469
      10A     -1.474791    11A     -1.371128    12A     -1.231556
      13A     -1.101408    14A     -1.039109    15A     -0.954000
      16A     -0.841292    17A     -0.818405    18A     -0.775361
      19A     -0.763653    20A     -0.671857    21A     -0.659243
      22A     -0.641139    23A     -0.618845    24A     -0.599544
      25A     -0.586539    26A     -0.575801    27A     -0.561359
      28A     -0.542369    29A     -0.536412    30A     -0.433962
      31A     -0.413939    32A     -0.391885    33A     -0.331156

  @DF-RHF Final Energy:  -435.59968803194340

   => Energetics <=

    Nuclear Repulsion Energy =            429.3744899914855750
    One-Electron Energy =               -1445.1067035853900506
    Two-Electron Energy =                 580.1325255619610743
    Total Energy =                       -435.5996880319434013
  Basis Set: (AUG-CC-PVTZ AUX)
    Blend: AUG-CC-PVTZ-RI
    Molecular point group: c1

    Geometry (in Angstrom), charge = 0, multiplicity = 1:

       Center              X                  Y                   Z               Mass
    ------------   -----------------  -----------------  -----------------  -----------------
         O            0.946663095370    -1.095745574968    -0.001611096460    15.994914619570
         O           -1.402718904630     1.600721425032    -0.001607096460    15.994914619570
         N           -1.729569904630    -0.679314574968    -0.001615096460    14.003074004430
         C            0.493571095370     0.199579425032    -0.001616096460    12.000000000000
         C           -0.962525904630     0.446326425032    -0.001612096460    12.000000000000
         C            1.552802095370     1.070293425032    -0.001615096460    12.000000000000
         C            2.729026095370     0.270208425032    -0.001612096460    12.000000000000
         C            2.313925095370    -1.033147574968    -0.001608096460    12.000000000000
         C           -3.177732904630    -0.618139574968    -0.001611096460    12.000000000000
         H            1.471527095370     2.148145425032    -0.001621096460     1.007825032230
         H           -1.261411904630    -1.576058574968    -0.001620096460     1.007825032230
         H            3.755829595370     0.609718925032     0.198391903540     1.007825032230
         H            2.824281095370    -1.984932574968    -0.001609096460     1.007825032230
         H           -3.453981904630     0.435900425032    -0.001611096460     1.007825032230
         H           -3.590535904630    -1.099347574968     0.889704903540     1.007825032230
         H           -3.590539904630    -1.099347574968    -0.892926096460     1.007825032230

  Basis Set: AUG-CC-PVTZ
    Blend: AUG-CC-PVTZ
  Basis Set: (AUG-CC-PVTZ AUX)
    Blend: AUG-CC-PVTZ-JKFIT
	 Reference Energy          =    -435.5996880319434013 [Eh]
	 Singles Energy            =      -0.0000000000000000 [Eh]
	 Same-Spin Energy          =      -0.4479262337375739 [Eh]
	 Opposite-Spin Energy      =      -1.3716699905302561 [Eh]
	 Correlation Energy        =      -1.8195962242678299 [Eh]
	 Total Energy              =    -437.4192842562112560 [Eh]

	 ================> DF-SCS-MP2 Energies <==================
	-----------------------------------------------------------
	 SCS Same-Spin Scale       =       0.3333333333333333 [-]
	 SCS Opposite-Spin Scale   =       1.2000000000000000 [-]
	 SCS Same-Spin Energy      =      -0.1493087445791913 [Eh]
	 SCS Opposite-Spin Energy  =      -1.6460039886363071 [Eh]
	 SCS Correlation Energy    =      -1.7953127332154986 [Eh]
	 SCS Total Energy          =    -437.3950007651588976 [Eh]
	-----------------------------------------------------------

  Dipole Moment: [D]
     X:     1.0589      Y:    -3.2488      Z:     0.1531     Total:     3.4205

*** Psi4 exiting successfully. Buy a developer a beer!
