                               Psi4 1.3.2 release

  ==> Input File <==

--------------------------------------------------------------------------
#psi4
#
memory 32 gb

molecule  {
0 1
  O        0.9755400    -1.0764940     0.0000010
  O       -1.3738420     1.6199730     0.0000050
  N       -1.7006930    -0.6600630    -0.0000030
  C        0.5224486     0.2188299     0.2999960
  C       -0.9336490     0.4655780     0.0000000
  C        1.5816790     1.0895450    -0.0000030
  C        2.7579030     0.2894600     0.0000000
  C        2.3428020    -1.0138960     0.0000040
  C       -3.1488560    -0.5988880     0.0000010
  H        1.5004040     2.1673970    -0.0000090
  H       -1.2325350    -1.5568070    -0.0000080
  H        3.7847070     0.6289700     0.0000040
  H        2.8531580    -1.9656810     0.0000030
  H       -3.4251050     0.4551520     0.0000010
  H       -3.5616590    -1.0800960     0.8913170
  H       -3.5616630    -1.0800960    -0.8913140
units angstrom
no_reorient  #important for SAPT in psi4, default
symmetry c1  #important for SAPT in psi4, default
}

set PROPERTIES_ORIGIN ["COM"]
properties('MP2/aug-cc-pvtz', properties = ['dipole'])
--------------------------------------------------------------------------

    Molecular point group: c1
  Charge       = 0
  Multiplicity = 1
  Basis Set: AUG-CC-PVTZ
    Blend: AUG-CC-PVTZ
  Basis Set: (AUG-CC-PVTZ AUX)
    Blend: AUG-CC-PVTZ-JKFIT

    Orbital Energies [Eh]
    ---------------------

    Doubly Occupied:

       1A    -20.639539     2A    -20.513931     3A    -15.585740
       4A    -11.359560     5A    -11.318894     6A    -11.302543
       7A    -11.264455     8A    -11.257503     9A    -11.249774
      10A     -1.462591    11A     -1.368086    12A     -1.228264
      13A     -1.099997    14A     -1.032320    15A     -0.950667
      16A     -0.835888    17A     -0.812203    18A     -0.774246
      19A     -0.759311    20A     -0.672398    21A     -0.648944
      22A     -0.639106    23A     -0.617133    24A     -0.598897
      25A     -0.586823    26A     -0.572286    27A     -0.558342
      28A     -0.539773    29A     -0.530799    30A     -0.429950
      31A     -0.411090    32A     -0.389552    33A     -0.332205

  @DF-RHF Final Energy:  -435.57486648165508

   => Energetics <=

    Nuclear Repulsion Energy =            428.0698380575963711
    One-Electron Energy =               -1442.6037895310657859
    Two-Electron Energy =                 578.9590849918142794
    Total Energy =                       -435.5748664816551354
  Basis Set: (AUG-CC-PVTZ AUX)
    Blend: AUG-CC-PVTZ-RI
    Molecular point group: c1

    Geometry (in Angstrom), charge = 0, multiplicity = 1:

       Center              X                  Y                   Z               Mass
    ------------   -----------------  -----------------  -----------------  -----------------
         O            0.946663033762    -1.095745465379    -0.028788210303    15.994914619570
         O           -1.402718966238     1.600721534621    -0.028784210303    15.994914619570
         N           -1.729569966238    -0.679314465379    -0.028792210303    14.003074004430
         C            0.493571633762     0.199578434621     0.271206789697    12.000000000000
         C           -0.962525966238     0.446326534621    -0.028789210303    12.000000000000
         C            1.552802033762     1.070293534621    -0.028792210303    12.000000000000
         C            2.729026033762     0.270208534621    -0.028789210303    12.000000000000
         C            2.313925033762    -1.033147465379    -0.028785210303    12.000000000000
         C           -3.177732966238    -0.618139465379    -0.028788210303    12.000000000000
         H            1.471527033762     2.148145534621    -0.028798210303     1.007825032230
         H           -1.261411966238    -1.576058465379    -0.028797210303     1.007825032230
         H            3.755830033762     0.609718534621    -0.028785210303     1.007825032230
         H            2.824281033762    -1.984932465379    -0.028786210303     1.007825032230
         H           -3.453981966238     0.435900534621    -0.028788210303     1.007825032230
         H           -3.590535966238    -1.099347465379     0.862527789697     1.007825032230
         H           -3.590539966238    -1.099347465379    -0.920103210303     1.007825032230

  Basis Set: AUG-CC-PVTZ
    Blend: AUG-CC-PVTZ
  Basis Set: (AUG-CC-PVTZ AUX)
    Blend: AUG-CC-PVTZ-JKFIT
	 Reference Energy          =    -435.5748664816550786 [Eh]
	 Singles Energy            =      -0.0000000000000000 [Eh]
	 Same-Spin Energy          =      -0.4489354326311387 [Eh]
	 Opposite-Spin Energy      =      -1.3745840461246868 [Eh]
	 Correlation Energy        =      -1.8235194787558255 [Eh]
	 Total Energy              =    -437.3983859604109057 [Eh]

	 ================> DF-SCS-MP2 Energies <==================
	-----------------------------------------------------------
	 SCS Same-Spin Scale       =       0.3333333333333333 [-]
	 SCS Opposite-Spin Scale   =       1.2000000000000000 [-]
	 SCS Same-Spin Energy      =      -0.1496451442103796 [Eh]
	 SCS Opposite-Spin Energy  =      -1.6495008553496240 [Eh]
	 SCS Correlation Energy    =      -1.7991459995600034 [Eh]
	 SCS Total Energy          =    -437.3740124812150611 [Eh]
	-----------------------------------------------------------

  Dipole Moment: [D]
     X:     1.2178      Y:    -3.1855      Z:     0.0010     Total:     3.4103

*** Psi4 exiting successfully. Buy a developer a beer!
