                               Psi4 1.3.2 release

  ==> Input File <==

--------------------------------------------------------------------------
#psi4
#
memory 32 gb

molecule  {
0 1
  O        0.9755400    -1.0764940     0.0000010
  O       -1.3738420     1.6199730     0.0000050
  N       -1.7006930    -0.6600630    -0.0000030
  C        0.5224480     0.2188310    -0.0000040
  C       -0.9336490     0.4655780     0.0000000
  C        1.5816790     1.0895450    -0.0000030
  C        2.7579030     0.2894600     0.0000000
  C        2.3428020    -1.0138960     0.0000040
  C       -3.1488560    -0.5988880     0.0000010
  H        1.5004040     2.1673970    -0.0000090
  H       -1.2325350    -1.5568070    -0.0000080
  H        3.7847070     0.6289700     0.0000040
  H        2.8531581    -1.9656812    -0.1499970
  H       -3.4251050     0.4551520     0.0000010
  H       -3.5616590    -1.0800960     0.8913170
  H       -3.5616630    -1.0800960    -0.8913140
units angstrom
no_reorient  #important for SAPT in psi4, default
symmetry c1  #important for SAPT in psi4, default
}

set PROPERTIES_ORIGIN ["COM"]
properties('MP2/aug-cc-pvtz', properties = ['dipole'])
--------------------------------------------------------------------------

    Molecular point group: c1
  Charge       = 0
  Multiplicity = 1
  Basis Set: AUG-CC-PVTZ
    Blend: AUG-CC-PVTZ
  Basis Set: (AUG-CC-PVTZ AUX)
    Blend: AUG-CC-PVTZ-JKFIT

    Orbital Energies [Eh]
    ---------------------

    Doubly Occupied:

       1A    -20.643550     2A    -20.516044     3A    -15.589139
       4A    -11.360637     5A    -11.313188     6A    -11.301773
       7A    -11.259484     8A    -11.252632     9A    -11.248324
      10A     -1.474432    11A     -1.371190    12A     -1.231567
      13A     -1.101665    14A     -1.038774    15A     -0.953866
      16A     -0.840766    17A     -0.819126    18A     -0.775414
      19A     -0.764684    20A     -0.671030    21A     -0.657731
      22A     -0.641897    23A     -0.618771    24A     -0.600902
      25A     -0.586250    26A     -0.577257    27A     -0.561297
      28A     -0.542320    29A     -0.536361    30A     -0.434017
      31A     -0.414417    32A     -0.391902    33A     -0.331023

  @DF-RHF Final Energy:  -435.60089046255911

   => Energetics <=

    Nuclear Repulsion Energy =            429.4019740678648418
    One-Electron Energy =               -1445.1628699156347011
    Two-Electron Energy =                 580.1600053852107521
    Total Energy =                       -435.6008904625591640
  Basis Set: (AUG-CC-PVTZ AUX)
    Blend: AUG-CC-PVTZ-RI
    Molecular point group: c1

    Geometry (in Angstrom), charge = 0, multiplicity = 1:

       Center              X                  Y                   Z               Mass
    ------------   -----------------  -----------------  -----------------  -----------------
         O            0.946663090534    -1.095745569327     0.001209737686    15.994914619570
         O           -1.402718909466     1.600721430673     0.001213737686    15.994914619570
         N           -1.729569909466    -0.679314569327     0.001205737686    14.003074004430
         C            0.493571090534     0.199579430673     0.001204737686    12.000000000000
         C           -0.962525909466     0.446326430673     0.001208737686    12.000000000000
         C            1.552802090534     1.070293430673     0.001205737686    12.000000000000
         C            2.729026090534     0.270208430673     0.001208737686    12.000000000000
         C            2.313925090534    -1.033147569327     0.001212737686    12.000000000000
         C           -3.177732909466    -0.618139569327     0.001209737686    12.000000000000
         H            1.471527090534     2.148145430673     0.001199737686     1.007825032230
         H           -1.261411909466    -1.576058569327     0.001200737686     1.007825032230
         H            3.755830090534     0.609718430673     0.001212737686     1.007825032230
         H            2.824281190534    -1.984932769327    -0.148788262314     1.007825032230
         H           -3.453981909466     0.435900430673     0.001209737686     1.007825032230
         H           -3.590535909466    -1.099347569327     0.892525737686     1.007825032230
         H           -3.590539909466    -1.099347569327    -0.890105262314     1.007825032230

  Basis Set: AUG-CC-PVTZ
    Blend: AUG-CC-PVTZ
  Basis Set: (AUG-CC-PVTZ AUX)
    Blend: AUG-CC-PVTZ-JKFIT
	 Reference Energy          =    -435.6008904625591072 [Eh]
	 Singles Energy            =      -0.0000000000000000 [Eh]
	 Same-Spin Energy          =      -0.4479176092763467 [Eh]
	 Opposite-Spin Energy      =      -1.3716317320827693 [Eh]
	 Correlation Energy        =      -1.8195493413591159 [Eh]
	 Total Energy              =    -437.4204398039182138 [Eh]

	 ================> DF-SCS-MP2 Energies <==================
	-----------------------------------------------------------
	 SCS Same-Spin Scale       =       0.3333333333333333 [-]
	 SCS Opposite-Spin Scale   =       1.2000000000000000 [-]
	 SCS Same-Spin Energy      =      -0.1493058697587822 [Eh]
	 SCS Opposite-Spin Energy  =      -1.6459580784993231 [Eh]
	 SCS Correlation Energy    =      -1.7952639482581052 [Eh]
	 SCS Total Energy          =    -437.3961544108171893 [Eh]
	-----------------------------------------------------------

  Dipole Moment: [D]
     X:     1.0787      Y:    -3.2182      Z:    -0.1304     Total:     3.3967

*** Psi4 exiting successfully. Buy a developer a beer!
