                               Psi4 1.3.2 release

  ==> Input File <==

--------------------------------------------------------------------------
#psi4
#
memory 32 gb

molecule  {
0 1
  O        0.9755400    -1.0764940     0.0000010
  O       -1.3738420     1.6199730     0.0000050
  N       -1.7006930    -0.6600630    -0.0000030
  C        0.5224480     0.2188310    -0.0000040
  C       -0.9336490     0.4655780     0.0000000
  C        1.5816789     1.0895448    -0.1000030
  C        2.7579030     0.2894600     0.0000000
  C        2.3428020    -1.0138960     0.0000040
  C       -3.1488560    -0.5988880     0.0000010
  H        1.5004040     2.1673970    -0.0000090
  H       -1.2325350    -1.5568070    -0.0000080
  H        3.7847070     0.6289700     0.0000040
  H        2.8531580    -1.9656810     0.0000030
  H       -3.4251050     0.4551520     0.0000010
  H       -3.5616590    -1.0800960     0.8913170
  H       -3.5616630    -1.0800960    -0.8913140
units angstrom
no_reorient  #important for SAPT in psi4, default
symmetry c1  #important for SAPT in psi4, default
}

set PROPERTIES_ORIGIN ["COM"]
properties('MP2/aug-cc-pvtz', properties = ['dipole'])
--------------------------------------------------------------------------

    Molecular point group: c1
  Charge       = 0
  Multiplicity = 1
  Basis Set: AUG-CC-PVTZ
    Blend: AUG-CC-PVTZ
  Basis Set: (AUG-CC-PVTZ AUX)
    Blend: AUG-CC-PVTZ-JKFIT

    Orbital Energies [Eh]
    ---------------------

    Doubly Occupied:

       1A    -20.643915     2A    -20.516205     3A    -15.589287
       4A    -11.360765     5A    -11.312417     6A    -11.302767
       7A    -11.259573     8A    -11.253373     9A    -11.248415
      10A     -1.474653    11A     -1.371318    12A     -1.231702
      13A     -1.100605    14A     -1.039033    15A     -0.954026
      16A     -0.841169    17A     -0.819242    18A     -0.775258
      19A     -0.764310    20A     -0.671496    21A     -0.659034
      22A     -0.641901    23A     -0.618905    24A     -0.601078
      25A     -0.584177    26A     -0.577521    27A     -0.560826
      28A     -0.542370    29A     -0.536386    30A     -0.434141
      31A     -0.413963    32A     -0.391970    33A     -0.330793

  @DF-RHF Final Energy:  -435.59912605718159

   => Energetics <=

    Nuclear Repulsion Energy =            429.3247589135203270
    One-Electron Energy =               -1445.0025817800380992
    Two-Electron Energy =                 580.0786968093361793
    Total Energy =                       -435.5991260571815928
  Basis Set: (AUG-CC-PVTZ AUX)
    Blend: AUG-CC-PVTZ-RI
    Molecular point group: c1

    Geometry (in Angstrom), charge = 0, multiplicity = 1:

       Center              X                  Y                   Z               Mass
    ------------   -----------------  -----------------  -----------------  -----------------
         O            0.946663100937    -1.095745551746     0.009597148456    15.994914619570
         O           -1.402718899063     1.600721448254     0.009601148456    15.994914619570
         N           -1.729569899063    -0.679314551746     0.009593148456    14.003074004430
         C            0.493571100937     0.199579448254     0.009592148456    12.000000000000
         C           -0.962525899063     0.446326448254     0.009596148456    12.000000000000
         C            1.552802000937     1.070293248254    -0.090406851544    12.000000000000
         C            2.729026100937     0.270208448254     0.009596148456    12.000000000000
         C            2.313925100937    -1.033147551746     0.009600148456    12.000000000000
         C           -3.177732899063    -0.618139551746     0.009597148456    12.000000000000
         H            1.471527100937     2.148145448254     0.009587148456     1.007825032230
         H           -1.261411899063    -1.576058551746     0.009588148456     1.007825032230
         H            3.755830100937     0.609718448254     0.009600148456     1.007825032230
         H            2.824281100937    -1.984932551746     0.009599148456     1.007825032230
         H           -3.453981899063     0.435900448254     0.009597148456     1.007825032230
         H           -3.590535899063    -1.099347551746     0.900913148456     1.007825032230
         H           -3.590539899063    -1.099347551746    -0.881717851544     1.007825032230

  Basis Set: AUG-CC-PVTZ
    Blend: AUG-CC-PVTZ
  Basis Set: (AUG-CC-PVTZ AUX)
    Blend: AUG-CC-PVTZ-JKFIT
	 Reference Energy          =    -435.5991260571815928 [Eh]
	 Singles Energy            =      -0.0000000000000000 [Eh]
	 Same-Spin Energy          =      -0.4480034665254038 [Eh]
	 Opposite-Spin Energy      =      -1.3718345419139597 [Eh]
	 Correlation Energy        =      -1.8198380084393635 [Eh]
	 Total Energy              =    -437.4189640656209690 [Eh]

	 ================> DF-SCS-MP2 Energies <==================
	-----------------------------------------------------------
	 SCS Same-Spin Scale       =       0.3333333333333333 [-]
	 SCS Opposite-Spin Scale   =       1.2000000000000000 [-]
	 SCS Same-Spin Energy      =      -0.1493344888418013 [Eh]
	 SCS Opposite-Spin Energy  =      -1.6462014502967517 [Eh]
	 SCS Correlation Energy    =      -1.7955359391385530 [Eh]
	 SCS Total Energy          =    -437.3946619963201670 [Eh]
	-----------------------------------------------------------

  Dipole Moment: [D]
     X:     1.0768      Y:    -3.2554      Z:     0.0701     Total:     3.4295

*** Psi4 exiting successfully. Buy a developer a beer!
