                               Psi4 1.3.2 release

  ==> Input File <==

--------------------------------------------------------------------------
#psi4
#
memory 32 gb

molecule  {
0 1
  O        0.9755400    -1.0764940     0.0000010
  O       -1.3738420     1.6199730     0.0000050
  N       -1.7006930    -0.6600630    -0.0000030
  C        0.5224480     0.2188310    -0.0000040
  C       -0.9336490     0.4655780     0.0000000
  C        1.5816790     1.0895450    -0.0000030
  C        2.7579030     0.2894600     0.0000000
  C        2.3428020    -1.0138960     0.0000040
  C       -3.1488560    -0.5988880     0.0000010
  H        1.5004040     2.1673970    -0.0000090
  H       -1.2325350    -1.5568070    -0.0000080
  H        3.7847070     0.6289700     0.0000040
  H        2.8531581    -1.9656813    -0.1999970
  H       -3.4251050     0.4551520     0.0000010
  H       -3.5616590    -1.0800960     0.8913170
  H       -3.5616630    -1.0800960    -0.8913140
units angstrom
no_reorient  #important for SAPT in psi4, default
symmetry c1  #important for SAPT in psi4, default
}

set PROPERTIES_ORIGIN ["COM"]
properties('MP2/aug-cc-pvtz', properties = ['dipole'])
--------------------------------------------------------------------------

    Molecular point group: c1
  Charge       = 0
  Multiplicity = 1
  Basis Set: AUG-CC-PVTZ
    Blend: AUG-CC-PVTZ
  Basis Set: (AUG-CC-PVTZ AUX)
    Blend: AUG-CC-PVTZ-JKFIT

    Orbital Energies [Eh]
    ---------------------

    Doubly Occupied:

       1A    -20.643509     2A    -20.516178     3A    -15.589233
       4A    -11.360752     5A    -11.313650     6A    -11.302026
       7A    -11.259546     8A    -11.252716     9A    -11.248532
      10A     -1.474435    11A     -1.371309    12A     -1.231658
      13A     -1.101783    14A     -1.038616    15A     -0.953803
      16A     -0.840509    17A     -0.818744    18A     -0.775428
      19A     -0.764530    20A     -0.670649    21A     -0.656933
      22A     -0.641993    23A     -0.618850    24A     -0.600802
      25A     -0.586048    26A     -0.577102    27A     -0.560973
      28A     -0.542353    29A     -0.536379    30A     -0.434141
      31A     -0.414453    32A     -0.391979    33A     -0.331068

  @DF-RHF Final Energy:  -435.59985220252389

   => Energetics <=

    Nuclear Repulsion Energy =            429.3713496804485317
    One-Electron Energy =               -1445.1010475773402959
    Two-Electron Energy =                 580.1298456943679867
    Total Energy =                       -435.5998522025238344
  Basis Set: (AUG-CC-PVTZ AUX)
    Blend: AUG-CC-PVTZ-RI
    Molecular point group: c1

    Geometry (in Angstrom), charge = 0, multiplicity = 1:

       Center              X                  Y                   Z               Mass
    ------------   -----------------  -----------------  -----------------  -----------------
         O            0.946663090534    -1.095745568521     0.001612713993    15.994914619570
         O           -1.402718909466     1.600721431479     0.001616713993    15.994914619570
         N           -1.729569909466    -0.679314568521     0.001608713993    14.003074004430
         C            0.493571090534     0.199579431479     0.001607713993    12.000000000000
         C           -0.962525909466     0.446326431479     0.001611713993    12.000000000000
         C            1.552802090534     1.070293431479     0.001608713993    12.000000000000
         C            2.729026090534     0.270208431479     0.001611713993    12.000000000000
         C            2.313925090534    -1.033147568521     0.001615713993    12.000000000000
         C           -3.177732909466    -0.618139568521     0.001612713993    12.000000000000
         H            1.471527090534     2.148145431479     0.001602713993     1.007825032230
         H           -1.261411909466    -1.576058568521     0.001603713993     1.007825032230
         H            3.755830090534     0.609718431479     0.001615713993     1.007825032230
         H            2.824281190534    -1.984932868521    -0.198385286007     1.007825032230
         H           -3.453981909466     0.435900431479     0.001612713993     1.007825032230
         H           -3.590535909466    -1.099347568521     0.892928713993     1.007825032230
         H           -3.590539909466    -1.099347568521    -0.889702286007     1.007825032230

  Basis Set: AUG-CC-PVTZ
    Blend: AUG-CC-PVTZ
  Basis Set: (AUG-CC-PVTZ AUX)
    Blend: AUG-CC-PVTZ-JKFIT
	 Reference Energy          =    -435.5998522025238913 [Eh]
	 Singles Energy            =      -0.0000000000000000 [Eh]
	 Same-Spin Energy          =      -0.4479917189723495 [Eh]
	 Opposite-Spin Energy      =      -1.3718039997586828 [Eh]
	 Correlation Energy        =      -1.8197957187310323 [Eh]
	 Total Energy              =    -437.4196479212549207 [Eh]

	 ================> DF-SCS-MP2 Energies <==================
	-----------------------------------------------------------
	 SCS Same-Spin Scale       =       0.3333333333333333 [-]
	 SCS Opposite-Spin Scale   =       1.2000000000000000 [-]
	 SCS Same-Spin Energy      =      -0.1493305729907831 [Eh]
	 SCS Opposite-Spin Energy  =      -1.6461647997104194 [Eh]
	 SCS Correlation Energy    =      -1.7954953727012026 [Eh]
	 SCS Total Energy          =    -437.3953475752251165 [Eh]
	-----------------------------------------------------------

  Dipole Moment: [D]
     X:     1.0687      Y:    -3.2036      Z:    -0.1730     Total:     3.3816

*** Psi4 exiting successfully. Buy a developer a beer!
