                               Psi4 1.3.2 release

  ==> Input File <==

--------------------------------------------------------------------------
#psi4
#
memory 32 gb

molecule  {
0 1
  O        0.9755400    -1.0764940     0.0000010
  O       -1.3738420     1.6199730     0.0000050
  N       -1.7006930    -0.6600630    -0.0000030
  C        0.5224483     0.2188304     0.1499960
  C       -0.9336490     0.4655780     0.0000000
  C        1.5816790     1.0895450    -0.0000030
  C        2.7579030     0.2894600     0.0000000
  C        2.3428020    -1.0138960     0.0000040
  C       -3.1488560    -0.5988880     0.0000010
  H        1.5004040     2.1673970    -0.0000090
  H       -1.2325350    -1.5568070    -0.0000080
  H        3.7847070     0.6289700     0.0000040
  H        2.8531580    -1.9656810     0.0000030
  H       -3.4251050     0.4551520     0.0000010
  H       -3.5616590    -1.0800960     0.8913170
  H       -3.5616630    -1.0800960    -0.8913140
units angstrom
no_reorient  #important for SAPT in psi4, default
symmetry c1  #important for SAPT in psi4, default
}

set PROPERTIES_ORIGIN ["COM"]
properties('MP2/aug-cc-pvtz', properties = ['dipole'])
--------------------------------------------------------------------------

    Molecular point group: c1
  Charge       = 0
  Multiplicity = 1
  Basis Set: AUG-CC-PVTZ
    Blend: AUG-CC-PVTZ
  Basis Set: (AUG-CC-PVTZ AUX)
    Blend: AUG-CC-PVTZ-JKFIT

    Orbital Energies [Eh]
    ---------------------

    Doubly Occupied:

       1A    -20.642612     2A    -20.515353     3A    -15.588167
       4A    -11.360302     5A    -11.314120     6A    -11.301796
       7A    -11.258917     8A    -11.255565     9A    -11.248467
      10A     -1.471349    11A     -1.370269    12A     -1.230631
      13A     -1.101050    14A     -1.037308    15A     -0.953094
      16A     -0.839669    17A     -0.817603    18A     -0.775112
      19A     -0.763454    20A     -0.672200    21A     -0.655794
      22A     -0.641119    23A     -0.618305    24A     -0.600443
      25A     -0.586379    26A     -0.576178    27A     -0.561056
      28A     -0.541677    29A     -0.534890    30A     -0.432838
      31A     -0.413526    32A     -0.391236    33A     -0.331216

  @DF-RHF Final Energy:  -435.59525368267623

   => Energetics <=

    Nuclear Repulsion Energy =            429.0917767699463639
    One-Electron Energy =               -1444.5706752232799772
    Two-Electron Energy =                 579.8836447706573836
    Total Energy =                       -435.5952536826762298
  Basis Set: (AUG-CC-PVTZ AUX)
    Blend: AUG-CC-PVTZ-RI
    Molecular point group: c1

    Geometry (in Angstrom), charge = 0, multiplicity = 1:

       Center              X                  Y                   Z               Mass
    ------------   -----------------  -----------------  -----------------  -----------------
         O            0.946663062551    -1.095745513361    -0.014393700768    15.994914619570
         O           -1.402718937449     1.600721486639    -0.014389700768    15.994914619570
         N           -1.729569937449    -0.679314513361    -0.014397700768    14.003074004430
         C            0.493571362551     0.199578886639     0.135601299232    12.000000000000
         C           -0.962525937449     0.446326486639    -0.014394700768    12.000000000000
         C            1.552802062551     1.070293486639    -0.014397700768    12.000000000000
         C            2.729026062551     0.270208486639    -0.014394700768    12.000000000000
         C            2.313925062551    -1.033147513361    -0.014390700768    12.000000000000
         C           -3.177732937449    -0.618139513361    -0.014393700768    12.000000000000
         H            1.471527062551     2.148145486639    -0.014403700768     1.007825032230
         H           -1.261411937449    -1.576058513361    -0.014402700768     1.007825032230
         H            3.755830062551     0.609718486639    -0.014390700768     1.007825032230
         H            2.824281062551    -1.984932513361    -0.014391700768     1.007825032230
         H           -3.453981937449     0.435900486639    -0.014393700768     1.007825032230
         H           -3.590535937449    -1.099347513361     0.876922299232     1.007825032230
         H           -3.590539937449    -1.099347513361    -0.905708700768     1.007825032230

  Basis Set: AUG-CC-PVTZ
    Blend: AUG-CC-PVTZ
  Basis Set: (AUG-CC-PVTZ AUX)
    Blend: AUG-CC-PVTZ-JKFIT
	 Reference Energy          =    -435.5952536826762298 [Eh]
	 Singles Energy            =      -0.0000000000000000 [Eh]
	 Same-Spin Energy          =      -0.4481253425070249 [Eh]
	 Opposite-Spin Energy      =      -1.3721375328966845 [Eh]
	 Correlation Energy        =      -1.8202628754037093 [Eh]
	 Total Energy              =    -437.4155165580799576 [Eh]

	 ================> DF-SCS-MP2 Energies <==================
	-----------------------------------------------------------
	 SCS Same-Spin Scale       =       0.3333333333333333 [-]
	 SCS Opposite-Spin Scale   =       1.2000000000000000 [-]
	 SCS Same-Spin Energy      =      -0.1493751141690083 [Eh]
	 SCS Opposite-Spin Energy  =      -1.6465650394760214 [Eh]
	 SCS Correlation Energy    =      -1.7959401536450297 [Eh]
	 SCS Total Energy          =    -437.3911938363212357 [Eh]
	-----------------------------------------------------------

  Dipole Moment: [D]
     X:     1.1271      Y:    -3.2238      Z:     0.0062     Total:     3.4152

*** Psi4 exiting successfully. Buy a developer a beer!
