                               Psi4 1.3.2 release

  ==> Input File <==

--------------------------------------------------------------------------
#psi4
#
memory 32 gb

molecule  {
0 1
  O        0.9755400    -1.0764940     0.0000010
  O       -1.3738420     1.6199730     0.0000050
  N       -1.7006930    -0.6600630    -0.0000030
  C        0.5224480     0.2188310    -0.0000040
  C       -0.9336490     0.4655780     0.0000000
  C        1.5816790     1.0895450    -0.0000030
  C        2.7579030     0.2894600     0.0000000
  C        2.3428020    -1.0138960     0.0000040
  C       -3.1488560    -0.5988880     0.0000010
  H        1.5004040     2.1673970    -0.0000090
  H       -1.2325350    -1.5568070    -0.0000080
  H        3.7847067     0.6289702     0.1000040
  H        2.8531580    -1.9656810     0.0000030
  H       -3.4251050     0.4551520     0.0000010
  H       -3.5616590    -1.0800960     0.8913170
  H       -3.5616630    -1.0800960    -0.8913140
units angstrom
no_reorient  #important for SAPT in psi4, default
symmetry c1  #important for SAPT in psi4, default
}

set PROPERTIES_ORIGIN ["COM"]
properties('MP2/aug-cc-pvtz', properties = ['dipole'])
--------------------------------------------------------------------------

    Molecular point group: c1
  Charge       = 0
  Multiplicity = 1
  Basis Set: AUG-CC-PVTZ
    Blend: AUG-CC-PVTZ
  Basis Set: (AUG-CC-PVTZ AUX)
    Blend: AUG-CC-PVTZ-JKFIT

    Orbital Energies [Eh]
    ---------------------

    Doubly Occupied:

       1A    -20.643697     2A    -20.515892     3A    -15.589044
       4A    -11.360513     5A    -11.312761     6A    -11.301473
       7A    -11.259423     8A    -11.252553     9A    -11.248412
      10A     -1.474522    11A     -1.371058    12A     -1.231477
      13A     -1.101485    14A     -1.039020    15A     -0.953966
      16A     -0.841179    17A     -0.819304    18A     -0.775387
      19A     -0.764578    20A     -0.671641    21A     -0.658887
      22A     -0.641600    23A     -0.618715    24A     -0.600638
      25A     -0.586524    26A     -0.577059    27A     -0.561603
      28A     -0.542297    29A     -0.536352    30A     -0.433881
      31A     -0.414262    32A     -0.391823    33A     -0.331015

  @DF-RHF Final Energy:  -435.60155203634957

   => Energetics <=

    Nuclear Repulsion Energy =            429.4249555284988560
    One-Electron Energy =               -1445.2089390689507127
    Two-Electron Energy =                 580.1824315041022828
    Total Energy =                       -435.6015520363495170
  Basis Set: (AUG-CC-PVTZ AUX)
    Blend: AUG-CC-PVTZ-RI
    Molecular point group: c1

    Geometry (in Angstrom), charge = 0, multiplicity = 1:

       Center              X                  Y                   Z               Mass
    ------------   -----------------  -----------------  -----------------  -----------------
         O            0.946663093758    -1.095745572551    -0.000805143847    15.994914619570
         O           -1.402718906242     1.600721427449    -0.000801143847    15.994914619570
         N           -1.729569906242    -0.679314572551    -0.000809143847    14.003074004430
         C            0.493571093758     0.199579427449    -0.000810143847    12.000000000000
         C           -0.962525906242     0.446326427449    -0.000806143847    12.000000000000
         C            1.552802093758     1.070293427449    -0.000809143847    12.000000000000
         C            2.729026093758     0.270208427449    -0.000806143847    12.000000000000
         C            2.313925093758    -1.033147572551    -0.000802143847    12.000000000000
         C           -3.177732906242    -0.618139572551    -0.000805143847    12.000000000000
         H            1.471527093758     2.148145427449    -0.000815143847     1.007825032230
         H           -1.261411906242    -1.576058572551    -0.000814143847     1.007825032230
         H            3.755829793758     0.609718627449     0.099197856153     1.007825032230
         H            2.824281093758    -1.984932572551    -0.000803143847     1.007825032230
         H           -3.453981906242     0.435900427449    -0.000805143847     1.007825032230
         H           -3.590535906242    -1.099347572551     0.890510856153     1.007825032230
         H           -3.590539906242    -1.099347572551    -0.892120143847     1.007825032230

  Basis Set: AUG-CC-PVTZ
    Blend: AUG-CC-PVTZ
  Basis Set: (AUG-CC-PVTZ AUX)
    Blend: AUG-CC-PVTZ-JKFIT
	 Reference Energy          =    -435.6015520363495739 [Eh]
	 Singles Energy            =      -0.0000000000000000 [Eh]
	 Same-Spin Energy          =      -0.4478475422370673 [Eh]
	 Opposite-Spin Energy      =      -1.3714774538231782 [Eh]
	 Correlation Energy        =      -1.8193249960602456 [Eh]
	 Total Energy              =    -437.4208770324098055 [Eh]

	 ================> DF-SCS-MP2 Energies <==================
	-----------------------------------------------------------
	 SCS Same-Spin Scale       =       0.3333333333333333 [-]
	 SCS Opposite-Spin Scale   =       1.2000000000000000 [-]
	 SCS Same-Spin Energy      =      -0.1492825140790224 [Eh]
	 SCS Opposite-Spin Energy  =      -1.6457729445878138 [Eh]
	 SCS Correlation Energy    =      -1.7950554586668361 [Eh]
	 SCS Total Energy          =    -437.3966074950163829 [Eh]
	-----------------------------------------------------------

  Dipole Moment: [D]
     X:     1.0835      Y:    -3.2402      Z:     0.0770     Total:     3.4175

*** Psi4 exiting successfully. Buy a developer a beer!
