                               Psi4 1.3.2 release

  ==> Input File <==

--------------------------------------------------------------------------
#psi4
#
memory 32 gb

molecule  {
0 1
  O        0.9755400    -1.0764940     0.0000010
  O       -1.3738420     1.6199730     0.0000050
  N       -1.7006930    -0.6600630    -0.0000030
  C        0.5224481     0.2188308     0.0499960
  C       -0.9336490     0.4655780     0.0000000
  C        1.5816790     1.0895450    -0.0000030
  C        2.7579030     0.2894600     0.0000000
  C        2.3428020    -1.0138960     0.0000040
  C       -3.1488560    -0.5988880     0.0000010
  H        1.5004040     2.1673970    -0.0000090
  H       -1.2325350    -1.5568070    -0.0000080
  H        3.7847070     0.6289700     0.0000040
  H        2.8531580    -1.9656810     0.0000030
  H       -3.4251050     0.4551520     0.0000010
  H       -3.5616590    -1.0800960     0.8913170
  H       -3.5616630    -1.0800960    -0.8913140
units angstrom
no_reorient  #important for SAPT in psi4, default
symmetry c1  #important for SAPT in psi4, default
}

set PROPERTIES_ORIGIN ["COM"]
properties('MP2/aug-cc-pvtz', properties = ['dipole'])
--------------------------------------------------------------------------

    Molecular point group: c1
  Charge       = 0
  Multiplicity = 1
  Basis Set: AUG-CC-PVTZ
    Blend: AUG-CC-PVTZ
  Basis Set: (AUG-CC-PVTZ AUX)
    Blend: AUG-CC-PVTZ-JKFIT

    Orbital Energies [Eh]
    ---------------------

    Doubly Occupied:

       1A    -20.643499     2A    -20.515811     3A    -15.588921
       4A    -11.360469     5A    -11.312756     6A    -11.301485
       7A    -11.259349     8A    -11.252861     9A    -11.248099
      10A     -1.474085    11A     -1.370949    12A     -1.231358
      13A     -1.101458    14A     -1.038804    15A     -0.953858
      16A     -0.840972    17A     -0.819397    18A     -0.775368
      19A     -0.764728    20A     -0.671665    21A     -0.658400
      22A     -0.641699    23A     -0.618629    24A     -0.600973
      25A     -0.586498    26A     -0.577313    27A     -0.561606
      28A     -0.542208    29A     -0.536169    30A     -0.433740
      31A     -0.414278    32A     -0.391739    33A     -0.330993

  @DF-RHF Final Energy:  -435.60136819724414

   => Energetics <=

    Nuclear Repulsion Energy =            429.4029413700112059
    One-Electron Energy =               -1445.1683509709155260
    Two-Electron Energy =                 580.1640414036602351
    Total Energy =                       -435.6013681972441418
  Basis Set: (AUG-CC-PVTZ AUX)
    Blend: AUG-CC-PVTZ-RI
    Molecular point group: c1

    Geometry (in Angstrom), charge = 0, multiplicity = 1:

       Center              X                  Y                   Z               Mass
    ------------   -----------------  -----------------  -----------------  -----------------
         O            0.946663081744    -1.095745551746    -0.004797361078    15.994914619570
         O           -1.402718918256     1.600721448254    -0.004793361078    15.994914619570
         N           -1.729569918256    -0.679314551746    -0.004801361078    14.003074004430
         C            0.493571181744     0.199579248254     0.045197638922    12.000000000000
         C           -0.962525918256     0.446326448254    -0.004798361078    12.000000000000
         C            1.552802081744     1.070293448254    -0.004801361078    12.000000000000
         C            2.729026081744     0.270208448254    -0.004798361078    12.000000000000
         C            2.313925081744    -1.033147551746    -0.004794361078    12.000000000000
         C           -3.177732918256    -0.618139551746    -0.004797361078    12.000000000000
         H            1.471527081744     2.148145448254    -0.004807361078     1.007825032230
         H           -1.261411918256    -1.576058551746    -0.004806361078     1.007825032230
         H            3.755830081744     0.609718448254    -0.004794361078     1.007825032230
         H            2.824281081744    -1.984932551746    -0.004795361078     1.007825032230
         H           -3.453981918256     0.435900448254    -0.004797361078     1.007825032230
         H           -3.590535918256    -1.099347551746     0.886518638922     1.007825032230
         H           -3.590539918256    -1.099347551746    -0.896112361078     1.007825032230

  Basis Set: AUG-CC-PVTZ
    Blend: AUG-CC-PVTZ
  Basis Set: (AUG-CC-PVTZ AUX)
    Blend: AUG-CC-PVTZ-JKFIT
	 Reference Energy          =    -435.6013681972441418 [Eh]
	 Singles Energy            =      -0.0000000000000000 [Eh]
	 Same-Spin Energy          =      -0.4478556994319206 [Eh]
	 Opposite-Spin Energy      =      -1.3714848286032719 [Eh]
	 Correlation Energy        =      -1.8193405280351924 [Eh]
	 Total Energy              =    -437.4207087252793258 [Eh]

	 ================> DF-SCS-MP2 Energies <==================
	-----------------------------------------------------------
	 SCS Same-Spin Scale       =       0.3333333333333333 [-]
	 SCS Opposite-Spin Scale   =       1.2000000000000000 [-]
	 SCS Same-Spin Energy      =      -0.1492852331439735 [Eh]
	 SCS Opposite-Spin Energy  =      -1.6457817943239264 [Eh]
	 SCS Correlation Energy    =      -1.7950670274678999 [Eh]
	 SCS Total Energy          =    -437.3964352247120360 [Eh]
	-----------------------------------------------------------

  Dipole Moment: [D]
     X:     1.0959      Y:    -3.2358      Z:     0.0028     Total:     3.4163

*** Psi4 exiting successfully. Buy a developer a beer!
