                               Psi4 1.3.2 release

  ==> Input File <==

--------------------------------------------------------------------------
#psi4
#
memory 32 gb

molecule  {
0 1
  O        0.9755400    -1.0764940     0.0000010
  O       -1.3738420     1.6199730     0.0000050
  N       -1.7006930    -0.6600630    -0.0000030
  C        0.5224480     0.2188310    -0.0000040
  C       -0.9336490     0.4655780     0.0000000
  C        1.5816788     1.0895446    -0.2500030
  C        2.7579030     0.2894600     0.0000000
  C        2.3428020    -1.0138960     0.0000040
  C       -3.1488560    -0.5988880     0.0000010
  H        1.5004040     2.1673970    -0.0000090
  H       -1.2325350    -1.5568070    -0.0000080
  H        3.7847070     0.6289700     0.0000040
  H        2.8531580    -1.9656810     0.0000030
  H       -3.4251050     0.4551520     0.0000010
  H       -3.5616590    -1.0800960     0.8913170
  H       -3.5616630    -1.0800960    -0.8913140
units angstrom
no_reorient  #important for SAPT in psi4, default
symmetry c1  #important for SAPT in psi4, default
}

set PROPERTIES_ORIGIN ["COM"]
properties('MP2/aug-cc-pvtz', properties = ['dipole'])
--------------------------------------------------------------------------

    Molecular point group: c1
  Charge       = 0
  Multiplicity = 1
  Basis Set: AUG-CC-PVTZ
    Blend: AUG-CC-PVTZ
  Basis Set: (AUG-CC-PVTZ AUX)
    Blend: AUG-CC-PVTZ-JKFIT

    Orbital Energies [Eh]
    ---------------------

    Doubly Occupied:

       1A    -20.645592     2A    -20.518002     3A    -15.590733
       4A    -11.362248     5A    -11.311635     6A    -11.309628
       7A    -11.260481     8A    -11.257697     9A    -11.250215
      10A     -1.475888    11A     -1.372834    12A     -1.233050
      13A     -1.095902    14A     -1.039329    15A     -0.954407
      16A     -0.841407    17A     -0.817403    18A     -0.775109
      19A     -0.761173    20A     -0.671380    21A     -0.660112
      22A     -0.642652    23A     -0.620066    24A     -0.601448
      25A     -0.578290    26A     -0.572285    27A     -0.556362
      28A     -0.542805    29A     -0.536364    30A     -0.435660
      31A     -0.412011    32A     -0.392857    33A     -0.330030

  @DF-RHF Final Energy:  -435.58306677495113

   => Energetics <=

    Nuclear Repulsion Energy =            428.7211714050194473
    One-Electron Energy =               -1443.7583687554613334
    Two-Electron Energy =                 579.4541305754906944
    Total Energy =                       -435.5830667749511349
  Basis Set: (AUG-CC-PVTZ AUX)
    Blend: AUG-CC-PVTZ-RI
    Molecular point group: c1

    Geometry (in Angstrom), charge = 0, multiplicity = 1:

       Center              X                  Y                   Z               Mass
    ------------   -----------------  -----------------  -----------------  -----------------
         O            0.946663110533    -1.095745532553     0.023991657991    15.994914619570
         O           -1.402718889467     1.600721467447     0.023995657991    15.994914619570
         N           -1.729569889467    -0.679314532553     0.023987657991    14.003074004430
         C            0.493571110533     0.199579467447     0.023986657991    12.000000000000
         C           -0.962525889467     0.446326467447     0.023990657991    12.000000000000
         C            1.552801910533     1.070293067447    -0.226012342009    12.000000000000
         C            2.729026110533     0.270208467447     0.023990657991    12.000000000000
         C            2.313925110533    -1.033147532553     0.023994657991    12.000000000000
         C           -3.177732889467    -0.618139532553     0.023991657991    12.000000000000
         H            1.471527110533     2.148145467447     0.023981657991     1.007825032230
         H           -1.261411889467    -1.576058532553     0.023982657991     1.007825032230
         H            3.755830110533     0.609718467447     0.023994657991     1.007825032230
         H            2.824281110533    -1.984932532553     0.023993657991     1.007825032230
         H           -3.453981889467     0.435900467447     0.023991657991     1.007825032230
         H           -3.590535889467    -1.099347532553     0.915307657991     1.007825032230
         H           -3.590539889467    -1.099347532553    -0.867323342009     1.007825032230

  Basis Set: AUG-CC-PVTZ
    Blend: AUG-CC-PVTZ
  Basis Set: (AUG-CC-PVTZ AUX)
    Blend: AUG-CC-PVTZ-JKFIT
	 Reference Energy          =    -435.5830667749511349 [Eh]
	 Singles Energy            =      -0.0000000000000000 [Eh]
	 Same-Spin Energy          =      -0.4489394414418478 [Eh]
	 Opposite-Spin Energy      =      -1.3744048941998268 [Eh]
	 Correlation Energy        =      -1.8233443356416745 [Eh]
	 Total Energy              =    -437.4064111105927850 [Eh]

	 ================> DF-SCS-MP2 Energies <==================
	-----------------------------------------------------------
	 SCS Same-Spin Scale       =       0.3333333333333333 [-]
	 SCS Opposite-Spin Scale   =       1.2000000000000000 [-]
	 SCS Same-Spin Energy      =      -0.1496464804806159 [Eh]
	 SCS Opposite-Spin Energy  =      -1.6492858730397921 [Eh]
	 SCS Correlation Energy    =      -1.7989323535204080 [Eh]
	 SCS Total Energy          =    -437.3819991284715343 [Eh]
	-----------------------------------------------------------

  Dipole Moment: [D]
     X:     1.0027      Y:    -3.3472      Z:     0.1830     Total:     3.4990

*** Psi4 exiting successfully. Buy a developer a beer!
