                               Psi4 1.3.2 release

  ==> Input File <==

--------------------------------------------------------------------------
#psi4
#
memory 32 gb

molecule  {
0 1
  O        0.9755400    -1.0764940     0.0000010
  O       -1.3738420     1.6199730     0.0000050
  N       -1.7006930    -0.6600630    -0.0000030
  C        0.5224480     0.2188310    -0.0000040
  C       -0.9336490     0.4655780     0.0000000
  C        1.5816788     1.0895445    -0.3000030
  C        2.7579030     0.2894600     0.0000000
  C        2.3428020    -1.0138960     0.0000040
  C       -3.1488560    -0.5988880     0.0000010
  H        1.5004040     2.1673970    -0.0000090
  H       -1.2325350    -1.5568070    -0.0000080
  H        3.7847070     0.6289700     0.0000040
  H        2.8531580    -1.9656810     0.0000030
  H       -3.4251050     0.4551520     0.0000010
  H       -3.5616590    -1.0800960     0.8913170
  H       -3.5616630    -1.0800960    -0.8913140
units angstrom
no_reorient  #important for SAPT in psi4, default
symmetry c1  #important for SAPT in psi4, default
}

set PROPERTIES_ORIGIN ["COM"]
properties('MP2/aug-cc-pvtz', properties = ['dipole'])
--------------------------------------------------------------------------

    Molecular point group: c1
  Charge       = 0
  Multiplicity = 1
  Basis Set: AUG-CC-PVTZ
    Blend: AUG-CC-PVTZ
  Basis Set: (AUG-CC-PVTZ AUX)
    Blend: AUG-CC-PVTZ-JKFIT

    Orbital Energies [Eh]
    ---------------------

    Doubly Occupied:

       1A    -20.646498     2A    -20.518959     3A    -15.591498
       4A    -11.363031     5A    -11.313144     6A    -11.311277
       7A    -11.260960     8A    -11.259847     9A    -11.251071
      10A     -1.476563    11A     -1.373639    12A     -1.233764
      13A     -1.093471    14A     -1.039520    15A     -0.954605
      16A     -0.841571    17A     -0.816538    18A     -0.775271
      19A     -0.759576    20A     -0.671466    21A     -0.660475
      22A     -0.643082    23A     -0.620643    24A     -0.601733
      25A     -0.578527    26A     -0.566851    27A     -0.553944
      28A     -0.542982    29A     -0.536028    30A     -0.436454
      31A     -0.411110    32A     -0.393317    33A     -0.329712

  @DF-RHF Final Energy:  -435.57451827396437

   => Energetics <=

    Nuclear Repulsion Energy =            428.4130703504306439
    One-Electron Energy =               -1443.1209258191850040
    Two-Electron Energy =                 579.1333371947899877
    Total Energy =                       -435.5745182739643724
  Basis Set: (AUG-CC-PVTZ AUX)
    Blend: AUG-CC-PVTZ-RI
    Molecular point group: c1

    Geometry (in Angstrom), charge = 0, multiplicity = 1:

       Center              X                  Y                   Z               Mass
    ------------   -----------------  -----------------  -----------------  -----------------
         O            0.946663110533    -1.095745522957     0.028789827836    15.994914619570
         O           -1.402718889467     1.600721477043     0.028793827836    15.994914619570
         N           -1.729569889467    -0.679314522957     0.028785827836    14.003074004430
         C            0.493571110533     0.199579477043     0.028784827836    12.000000000000
         C           -0.962525889467     0.446326477043     0.028788827836    12.000000000000
         C            1.552801910533     1.070292977043    -0.271214172164    12.000000000000
         C            2.729026110533     0.270208477043     0.028788827836    12.000000000000
         C            2.313925110533    -1.033147522957     0.028792827836    12.000000000000
         C           -3.177732889467    -0.618139522957     0.028789827836    12.000000000000
         H            1.471527110533     2.148145477043     0.028779827836     1.007825032230
         H           -1.261411889467    -1.576058522957     0.028780827836     1.007825032230
         H            3.755830110533     0.609718477043     0.028792827836     1.007825032230
         H            2.824281110533    -1.984932522957     0.028791827836     1.007825032230
         H           -3.453981889467     0.435900477043     0.028789827836     1.007825032230
         H           -3.590535889467    -1.099347522957     0.920105827836     1.007825032230
         H           -3.590539889467    -1.099347522957    -0.862525172164     1.007825032230

  Basis Set: AUG-CC-PVTZ
    Blend: AUG-CC-PVTZ
  Basis Set: (AUG-CC-PVTZ AUX)
    Blend: AUG-CC-PVTZ-JKFIT
	 Reference Energy          =    -435.5745182739643724 [Eh]
	 Singles Energy            =      -0.0000000000000000 [Eh]
	 Same-Spin Energy          =      -0.4494147111910838 [Eh]
	 Opposite-Spin Energy      =      -1.3758004794028349 [Eh]
	 Correlation Energy        =      -1.8252151905939187 [Eh]
	 Total Energy              =    -437.3997334645582669 [Eh]

	 ================> DF-SCS-MP2 Energies <==================
	-----------------------------------------------------------
	 SCS Same-Spin Scale       =       0.3333333333333333 [-]
	 SCS Opposite-Spin Scale   =       1.2000000000000000 [-]
	 SCS Same-Spin Energy      =      -0.1498049037303613 [Eh]
	 SCS Opposite-Spin Energy  =      -1.6509605752834018 [Eh]
	 SCS Correlation Energy    =      -1.8007654790137630 [Eh]
	 SCS Total Energy          =    -437.3752837529781345 [Eh]
	-----------------------------------------------------------

  Dipole Moment: [D]
     X:     0.9673      Y:    -3.3938      Z:     0.2229     Total:     3.5359

*** Psi4 exiting successfully. Buy a developer a beer!
