                               Psi4 1.3.2 release

  ==> Input File <==

--------------------------------------------------------------------------
#psi4
#
memory 32 gb

molecule  {
0 1
  O        0.9755400    -1.0764940     0.0000010
  O       -1.3738420     1.6199730     0.0000050
  N       -1.7006930    -0.6600630    -0.0000030
  C        0.5224480     0.2188310    -0.0000040
  C       -0.9336490     0.4655780     0.0000000
  C        1.5816790     1.0895450    -0.0000030
  C        2.7579030     0.2894600     0.0000000
  C        2.3428020    -1.0138960     0.0000040
  C       -3.1488560    -0.5988880     0.0000010
  H        1.5004037     2.1673975     0.1499910
  H       -1.2325350    -1.5568070    -0.0000080
  H        3.7847070     0.6289700     0.0000040
  H        2.8531580    -1.9656810     0.0000030
  H       -3.4251050     0.4551520     0.0000010
  H       -3.5616590    -1.0800960     0.8913170
  H       -3.5616630    -1.0800960    -0.8913140
units angstrom
no_reorient  #important for SAPT in psi4, default
symmetry c1  #important for SAPT in psi4, default
}

set PROPERTIES_ORIGIN ["COM"]
properties('MP2/aug-cc-pvtz', properties = ['dipole'])
--------------------------------------------------------------------------

    Molecular point group: c1
  Charge       = 0
  Multiplicity = 1
  Basis Set: AUG-CC-PVTZ
    Blend: AUG-CC-PVTZ
  Basis Set: (AUG-CC-PVTZ AUX)
    Blend: AUG-CC-PVTZ-JKFIT

    Orbital Energies [Eh]
    ---------------------

    Doubly Occupied:

       1A    -20.643758     2A    -20.515966     3A    -15.589110
       4A    -11.360581     5A    -11.312584     6A    -11.301776
       7A    -11.259465     8A    -11.253285     9A    -11.248061
      10A     -1.474579    11A     -1.371115    12A     -1.231537
      13A     -1.101398    14A     -1.039048    15A     -0.953976
      16A     -0.841020    17A     -0.819229    18A     -0.775185
      19A     -0.764177    20A     -0.671488    21A     -0.658946
      22A     -0.641812    23A     -0.618758    24A     -0.601085
      25A     -0.584222    26A     -0.577481    27A     -0.561597
      28A     -0.542334    29A     -0.536385    30A     -0.433943
      31A     -0.414087    32A     -0.391853    33A     -0.331017

  @DF-RHF Final Energy:  -435.60072559239376

   => Energetics <=

    Nuclear Repulsion Energy =            429.4008441674664596
    One-Electron Energy =               -1445.1614264186173386
    Two-Electron Energy =                 580.1598566587571213
    Total Energy =                       -435.6007255923938146
  Basis Set: (AUG-CC-PVTZ AUX)
    Blend: AUG-CC-PVTZ-RI
    Molecular point group: c1

    Geometry (in Angstrom), charge = 0, multiplicity = 1:

       Center              X                  Y                   Z               Mass
    ------------   -----------------  -----------------  -----------------  -----------------
         O            0.946663093758    -1.095745574968    -0.001208120153    15.994914619570
         O           -1.402718906242     1.600721425032    -0.001204120153    15.994914619570
         N           -1.729569906242    -0.679314574968    -0.001212120153    14.003074004430
         C            0.493571093758     0.199579425032    -0.001213120153    12.000000000000
         C           -0.962525906242     0.446326425032    -0.001209120153    12.000000000000
         C            1.552802093758     1.070293425032    -0.001212120153    12.000000000000
         C            2.729026093758     0.270208425032    -0.001209120153    12.000000000000
         C            2.313925093758    -1.033147574968    -0.001205120153    12.000000000000
         C           -3.177732906242    -0.618139574968    -0.001208120153    12.000000000000
         H            1.471526793758     2.148145925032     0.148781879847     1.007825032230
         H           -1.261411906242    -1.576058574968    -0.001217120153     1.007825032230
         H            3.755830093758     0.609718425032    -0.001205120153     1.007825032230
         H            2.824281093758    -1.984932574968    -0.001206120153     1.007825032230
         H           -3.453981906242     0.435900425032    -0.001208120153     1.007825032230
         H           -3.590535906242    -1.099347574968     0.890107879847     1.007825032230
         H           -3.590539906242    -1.099347574968    -0.892523120153     1.007825032230

  Basis Set: AUG-CC-PVTZ
    Blend: AUG-CC-PVTZ
  Basis Set: (AUG-CC-PVTZ AUX)
    Blend: AUG-CC-PVTZ-JKFIT
	 Reference Energy          =    -435.6007255923937578 [Eh]
	 Singles Energy            =      -0.0000000000000000 [Eh]
	 Same-Spin Energy          =      -0.4479087026792679 [Eh]
	 Opposite-Spin Energy      =      -1.3716167427015471 [Eh]
	 Correlation Energy        =      -1.8195254453808150 [Eh]
	 Total Energy              =    -437.4202510377745625 [Eh]

	 ================> DF-SCS-MP2 Energies <==================
	-----------------------------------------------------------
	 SCS Same-Spin Scale       =       0.3333333333333333 [-]
	 SCS Opposite-Spin Scale   =       1.2000000000000000 [-]
	 SCS Same-Spin Energy      =      -0.1493029008930893 [Eh]
	 SCS Opposite-Spin Energy  =      -1.6459400912418565 [Eh]
	 SCS Correlation Energy    =      -1.7952429921349458 [Eh]
	 SCS Total Energy          =    -437.3959685845287026 [Eh]
	-----------------------------------------------------------

  Dipole Moment: [D]
     X:     1.0882      Y:    -3.2508      Z:     0.1158     Total:     3.4301

*** Psi4 exiting successfully. Buy a developer a beer!
