                               Psi4 1.3.2 release

  ==> Input File <==

--------------------------------------------------------------------------
#psi4
#
memory 32 gb

molecule  {
0 1
  O        0.9755400    -1.0764940     0.0000010
  O       -1.3738420     1.6199730     0.0000050
  N       -1.7006930    -0.6600630    -0.0000030
  C        0.5224480     0.2188310    -0.0000040
  C       -0.9336490     0.4655780     0.0000000
  C        1.5816790     1.0895450    -0.0000030
  C        2.7579030     0.2894600     0.0000000
  C        2.3428020    -1.0138960     0.0000040
  C       -3.1488560    -0.5988880     0.0000010
  H        1.5004040     2.1673970    -0.0000090
  H       -1.2325350    -1.5568070    -0.0000080
  H        3.7847063     0.6289706     0.2500040
  H        2.8531580    -1.9656810     0.0000030
  H       -3.4251050     0.4551520     0.0000010
  H       -3.5616590    -1.0800960     0.8913170
  H       -3.5616630    -1.0800960    -0.8913140
units angstrom
no_reorient  #important for SAPT in psi4, default
symmetry c1  #important for SAPT in psi4, default
}

set PROPERTIES_ORIGIN ["COM"]
properties('MP2/aug-cc-pvtz', properties = ['dipole'])
--------------------------------------------------------------------------

    Molecular point group: c1
  Charge       = 0
  Multiplicity = 1
  Basis Set: AUG-CC-PVTZ
    Blend: AUG-CC-PVTZ
  Basis Set: (AUG-CC-PVTZ AUX)
    Blend: AUG-CC-PVTZ-JKFIT

    Orbital Energies [Eh]
    ---------------------

    Doubly Occupied:

       1A    -20.644154     2A    -20.516011     3A    -15.589188
       4A    -11.360645     5A    -11.313650     6A    -11.301637
       7A    -11.259524     8A    -11.252741     9A    -11.250240
      10A     -1.474990    11A     -1.371181    12A     -1.231615
      13A     -1.101357    14A     -1.039179    15A     -0.954029
      16A     -0.841377    17A     -0.817801    18A     -0.775355
      19A     -0.762968    20A     -0.672018    21A     -0.659487
      22A     -0.640838    23A     -0.618936    24A     -0.598837
      25A     -0.586560    26A     -0.574809    27A     -0.561106
      28A     -0.542423    29A     -0.536457    30A     -0.434023
      31A     -0.413706    32A     -0.391931    33A     -0.331263

  @DF-RHF Final Energy:  -435.59818568097279

   => Energetics <=

    Nuclear Repulsion Energy =            429.3375849288181030
    One-Electron Energy =               -1445.0314714062703843
    Two-Electron Energy =                 580.0957007964794911
    Total Energy =                       -435.5981856809727333
  Basis Set: (AUG-CC-PVTZ AUX)
    Blend: AUG-CC-PVTZ-RI
    Molecular point group: c1

    Geometry (in Angstrom), charge = 0, multiplicity = 1:

       Center              X                  Y                   Z               Mass
    ------------   -----------------  -----------------  -----------------  -----------------
         O            0.946663096982    -1.095745575774    -0.002014072766    15.994914619570
         O           -1.402718903018     1.600721424226    -0.002010072766    15.994914619570
         N           -1.729569903018    -0.679314575774    -0.002018072766    14.003074004430
         C            0.493571096982     0.199579424226    -0.002019072766    12.000000000000
         C           -0.962525903018     0.446326424226    -0.002015072766    12.000000000000
         C            1.552802096982     1.070293424226    -0.002018072766    12.000000000000
         C            2.729026096982     0.270208424226    -0.002015072766    12.000000000000
         C            2.313925096982    -1.033147575774    -0.002011072766    12.000000000000
         C           -3.177732903018    -0.618139575774    -0.002014072766    12.000000000000
         H            1.471527096982     2.148145424226    -0.002024072766     1.007825032230
         H           -1.261411903018    -1.576058575774    -0.002023072766     1.007825032230
         H            3.755829396982     0.609719024226     0.247988927234     1.007825032230
         H            2.824281096982    -1.984932575774    -0.002012072766     1.007825032230
         H           -3.453981903018     0.435900424226    -0.002014072766     1.007825032230
         H           -3.590535903018    -1.099347575774     0.889301927234     1.007825032230
         H           -3.590539903018    -1.099347575774    -0.893329072766     1.007825032230

  Basis Set: AUG-CC-PVTZ
    Blend: AUG-CC-PVTZ
  Basis Set: (AUG-CC-PVTZ AUX)
    Blend: AUG-CC-PVTZ-JKFIT
	 Reference Energy          =    -435.5981856809727901 [Eh]
	 Singles Energy            =      -0.0000000000000000 [Eh]
	 Same-Spin Energy          =      -0.4479847478209144 [Eh]
	 Opposite-Spin Energy      =      -1.3718272988728533 [Eh]
	 Correlation Energy        =      -1.8198120466937677 [Eh]
	 Total Energy              =    -437.4179977276665454 [Eh]

	 ================> DF-SCS-MP2 Energies <==================
	-----------------------------------------------------------
	 SCS Same-Spin Scale       =       0.3333333333333333 [-]
	 SCS Opposite-Spin Scale   =       1.2000000000000000 [-]
	 SCS Same-Spin Energy      =      -0.1493282492736381 [Eh]
	 SCS Opposite-Spin Energy  =      -1.6461927586474239 [Eh]
	 SCS Correlation Energy    =      -1.7955210079210620 [Eh]
	 SCS Total Energy          =    -437.3937066888938716 [Eh]
	-----------------------------------------------------------

  Dipole Moment: [D]
     X:     1.0408      Y:    -3.2551      Z:     0.1905     Total:     3.4227

*** Psi4 exiting successfully. Buy a developer a beer!
