                               Psi4 1.3.2 release

  ==> Input File <==

--------------------------------------------------------------------------
#psi4
#
memory 32 gb

molecule  {
0 1
  O        0.9755400    -1.0764940     0.0000010
  O       -1.3738420     1.6199730     0.0000050
  N       -1.7006930    -0.6600630    -0.0000030
  C        0.5224480     0.2188310    -0.0000040
  C       -0.9336490     0.4655780     0.0000000
  C        1.5816790     1.0895450    -0.0000030
  C        2.7579030     0.2894600     0.0000000
  C        2.3428020    -1.0138960     0.0000040
  C       -3.1488560    -0.5988880     0.0000010
  H        1.5004035     2.1673979     0.2499910
  H       -1.2325350    -1.5568070    -0.0000080
  H        3.7847070     0.6289700     0.0000040
  H        2.8531580    -1.9656810     0.0000030
  H       -3.4251050     0.4551520     0.0000010
  H       -3.5616590    -1.0800960     0.8913170
  H       -3.5616630    -1.0800960    -0.8913140
units angstrom
no_reorient  #important for SAPT in psi4, default
symmetry c1  #important for SAPT in psi4, default
}

set PROPERTIES_ORIGIN ["COM"]
properties('MP2/aug-cc-pvtz', properties = ['dipole'])
--------------------------------------------------------------------------

    Molecular point group: c1
  Charge       = 0
  Multiplicity = 1
  Basis Set: AUG-CC-PVTZ
    Blend: AUG-CC-PVTZ
  Basis Set: (AUG-CC-PVTZ AUX)
    Blend: AUG-CC-PVTZ-JKFIT

    Orbital Energies [Eh]
    ---------------------

    Doubly Occupied:

       1A    -20.644020     2A    -20.516132     3A    -15.589273
       4A    -11.360742     5A    -11.312584     6A    -11.302360
       7A    -11.259573     8A    -11.254617     9A    -11.248081
      10A     -1.474839    11A     -1.371253    12A     -1.231687
      13A     -1.101211    14A     -1.039154    15A     -0.954017
      16A     -0.840854    17A     -0.818594    18A     -0.774907
      19A     -0.762885    20A     -0.671354    21A     -0.659260
      22A     -0.641886    23A     -0.618909    24A     -0.601171
      25A     -0.580391    26A     -0.577386    27A     -0.561409
      28A     -0.542439    29A     -0.536474    30A     -0.434097
      31A     -0.413596    32A     -0.391941    33A     -0.331108

  @DF-RHF Final Energy:  -435.59799025273378

   => Energetics <=

    Nuclear Repulsion Energy =            429.3295466399935094
    One-Electron Energy =               -1445.0186615512748176
    Two-Electron Energy =                 580.0911246585475283
    Total Energy =                       -435.5979902527337799
  Basis Set: (AUG-CC-PVTZ AUX)
    Blend: AUG-CC-PVTZ-RI
    Molecular point group: c1

    Geometry (in Angstrom), charge = 0, multiplicity = 1:

       Center              X                  Y                   Z               Mass
    ------------   -----------------  -----------------  -----------------  -----------------
         O            0.946663095370    -1.095745578192    -0.002014072766    15.994914619570
         O           -1.402718904630     1.600721421808    -0.002010072766    15.994914619570
         N           -1.729569904630    -0.679314578192    -0.002018072766    14.003074004430
         C            0.493571095370     0.199579421808    -0.002019072766    12.000000000000
         C           -0.962525904630     0.446326421808    -0.002015072766    12.000000000000
         C            1.552802095370     1.070293421808    -0.002018072766    12.000000000000
         C            2.729026095370     0.270208421808    -0.002015072766    12.000000000000
         C            2.313925095370    -1.033147578192    -0.002011072766    12.000000000000
         C           -3.177732904630    -0.618139578192    -0.002014072766    12.000000000000
         H            1.471526595370     2.148146321808     0.247975927234     1.007825032230
         H           -1.261411904630    -1.576058578192    -0.002023072766     1.007825032230
         H            3.755830095370     0.609718421808    -0.002011072766     1.007825032230
         H            2.824281095370    -1.984932578192    -0.002012072766     1.007825032230
         H           -3.453981904630     0.435900421808    -0.002014072766     1.007825032230
         H           -3.590535904630    -1.099347578192     0.889301927234     1.007825032230
         H           -3.590539904630    -1.099347578192    -0.893329072766     1.007825032230

  Basis Set: AUG-CC-PVTZ
    Blend: AUG-CC-PVTZ
  Basis Set: (AUG-CC-PVTZ AUX)
    Blend: AUG-CC-PVTZ-JKFIT
	 Reference Energy          =    -435.5979902527337799 [Eh]
	 Singles Energy            =      -0.0000000000000000 [Eh]
	 Same-Spin Energy          =      -0.4480612397308514 [Eh]
	 Opposite-Spin Energy      =      -1.3719867551013936 [Eh]
	 Correlation Energy        =      -1.8200479948322450 [Eh]
	 Total Energy              =    -437.4180382475660167 [Eh]

	 ================> DF-SCS-MP2 Energies <==================
	-----------------------------------------------------------
	 SCS Same-Spin Scale       =       0.3333333333333333 [-]
	 SCS Opposite-Spin Scale   =       1.2000000000000000 [-]
	 SCS Same-Spin Energy      =      -0.1493537465769505 [Eh]
	 SCS Opposite-Spin Energy  =      -1.6463841061216722 [Eh]
	 SCS Correlation Energy    =      -1.7957378526986227 [Eh]
	 SCS Total Energy          =    -437.3937281054323876 [Eh]
	-----------------------------------------------------------

  Dipole Moment: [D]
     X:     1.0821      Y:    -3.2743      Z:     0.1918     Total:     3.4538

*** Psi4 exiting successfully. Buy a developer a beer!
