                               Psi4 1.3.2 release

  ==> Input File <==

--------------------------------------------------------------------------
#psi4
#
memory 32 gb

molecule  {
0 1
  O        0.9755400    -1.0764940     0.0000010
  O       -1.3738420     1.6199730     0.0000050
  N       -1.7006930    -0.6600630    -0.0000030
  C        0.5224480     0.2188310    -0.0000040
  C       -0.9336490     0.4655780     0.0000000
  C        1.5816790     1.0895450    -0.0000030
  C        2.7579030     0.2894600     0.0000000
  C        2.3428020    -1.0138960     0.0000040
  C       -3.1488560    -0.5988880     0.0000010
  H        1.5004040     2.1673970    -0.0000090
  H       -1.2325350    -1.5568070    -0.0000080
  H        3.7847069     0.6289701     0.0500040
  H        2.8531580    -1.9656810     0.0000030
  H       -3.4251050     0.4551520     0.0000010
  H       -3.5616590    -1.0800960     0.8913170
  H       -3.5616630    -1.0800960    -0.8913140
units angstrom
no_reorient  #important for SAPT in psi4, default
symmetry c1  #important for SAPT in psi4, default
}

set PROPERTIES_ORIGIN ["COM"]
properties('MP2/aug-cc-pvtz', properties = ['dipole'])
--------------------------------------------------------------------------

    Molecular point group: c1
  Charge       = 0
  Multiplicity = 1
  Basis Set: AUG-CC-PVTZ
    Blend: AUG-CC-PVTZ
  Basis Set: (AUG-CC-PVTZ AUX)
    Blend: AUG-CC-PVTZ-JKFIT

    Orbital Energies [Eh]
    ---------------------

    Doubly Occupied:

       1A    -20.643632     2A    -20.515875     3A    -15.589023
       4A    -11.360494     5A    -11.312631     6A    -11.301451
       7A    -11.259408     8A    -11.252531     9A    -11.248143
      10A     -1.474455    11A     -1.371041    12A     -1.231457
      13A     -1.101506    14A     -1.038999    15A     -0.953958
      16A     -0.841151    17A     -0.819546    18A     -0.775397
      19A     -0.764811    20A     -0.671586    21A     -0.658791
      22A     -0.641728    23A     -0.618680    24A     -0.600940
      25A     -0.586523    26A     -0.577356    27A     -0.561651
      28A     -0.542279    29A     -0.536337    30A     -0.433861
      31A     -0.414345    32A     -0.391807    33A     -0.330979

  @DF-RHF Final Energy:  -435.60199075705248

   => Energetics <=

    Nuclear Repulsion Energy =            429.4378052088030699
    One-Electron Energy =               -1445.2348465625800600
    Two-Electron Energy =                 580.1950505967245135
    Total Energy =                       -435.6019907570524765
  Basis Set: (AUG-CC-PVTZ AUX)
    Blend: AUG-CC-PVTZ-RI
    Molecular point group: c1

    Geometry (in Angstrom), charge = 0, multiplicity = 1:

       Center              X                  Y                   Z               Mass
    ------------   -----------------  -----------------  -----------------  -----------------
         O            0.946663092146    -1.095745571745    -0.000402167540    15.994914619570
         O           -1.402718907854     1.600721428255    -0.000398167540    15.994914619570
         N           -1.729569907854    -0.679314571745    -0.000406167540    14.003074004430
         C            0.493571092146     0.199579428255    -0.000407167540    12.000000000000
         C           -0.962525907854     0.446326428255    -0.000403167540    12.000000000000
         C            1.552802092146     1.070293428255    -0.000406167540    12.000000000000
         C            2.729026092146     0.270208428255    -0.000403167540    12.000000000000
         C            2.313925092146    -1.033147571745    -0.000399167540    12.000000000000
         C           -3.177732907854    -0.618139571745    -0.000402167540    12.000000000000
         H            1.471527092146     2.148145428255    -0.000412167540     1.007825032230
         H           -1.261411907854    -1.576058571745    -0.000411167540     1.007825032230
         H            3.755829992146     0.609718528255     0.049600832460     1.007825032230
         H            2.824281092146    -1.984932571745    -0.000400167540     1.007825032230
         H           -3.453981907854     0.435900428255    -0.000402167540     1.007825032230
         H           -3.590535907854    -1.099347571745     0.890913832460     1.007825032230
         H           -3.590539907854    -1.099347571745    -0.891717167540     1.007825032230

  Basis Set: AUG-CC-PVTZ
    Blend: AUG-CC-PVTZ
  Basis Set: (AUG-CC-PVTZ AUX)
    Blend: AUG-CC-PVTZ-JKFIT
	 Reference Energy          =    -435.6019907570524765 [Eh]
	 Singles Energy            =      -0.0000000000000000 [Eh]
	 Same-Spin Energy          =      -0.4478278595025816 [Eh]
	 Opposite-Spin Energy      =      -1.3714343103100475 [Eh]
	 Correlation Energy        =      -1.8192621698126290 [Eh]
	 Total Energy              =    -437.4212529268651224 [Eh]

	 ================> DF-SCS-MP2 Energies <==================
	-----------------------------------------------------------
	 SCS Same-Spin Scale       =       0.3333333333333333 [-]
	 SCS Opposite-Spin Scale   =       1.2000000000000000 [-]
	 SCS Same-Spin Energy      =      -0.1492759531675272 [Eh]
	 SCS Opposite-Spin Energy  =      -1.6457211723720568 [Eh]
	 SCS Correlation Energy    =      -1.7949971255395840 [Eh]
	 SCS Total Energy          =    -437.3969878825920432 [Eh]
	-----------------------------------------------------------

  Dipole Moment: [D]
     X:     1.0898      Y:    -3.2380      Z:     0.0385     Total:     3.4167

*** Psi4 exiting successfully. Buy a developer a beer!
