                               Psi4 1.3.2 release

  ==> Input File <==

--------------------------------------------------------------------------
#psi4
#
memory 32 gb

molecule  {
0 1
  O        0.9755400    -1.0764940     0.0000010
  O       -1.3738420     1.6199730     0.0000050
  N       -1.7006930    -0.6600630    -0.0000030
  C        0.5224480     0.2188310    -0.0000040
  C       -0.9336490     0.4655780     0.0000000
  C        1.5816788     1.0895447    -0.2000030
  C        2.7579030     0.2894600     0.0000000
  C        2.3428020    -1.0138960     0.0000040
  C       -3.1488560    -0.5988880     0.0000010
  H        1.5004040     2.1673970    -0.0000090
  H       -1.2325350    -1.5568070    -0.0000080
  H        3.7847070     0.6289700     0.0000040
  H        2.8531580    -1.9656810     0.0000030
  H       -3.4251050     0.4551520     0.0000010
  H       -3.5616590    -1.0800960     0.8913170
  H       -3.5616630    -1.0800960    -0.8913140
units angstrom
no_reorient  #important for SAPT in psi4, default
symmetry c1  #important for SAPT in psi4, default
}

set PROPERTIES_ORIGIN ["COM"]
properties('MP2/aug-cc-pvtz', properties = ['dipole'])
--------------------------------------------------------------------------

    Molecular point group: c1
  Charge       = 0
  Multiplicity = 1
  Basis Set: AUG-CC-PVTZ
    Blend: AUG-CC-PVTZ
  Basis Set: (AUG-CC-PVTZ AUX)
    Blend: AUG-CC-PVTZ-JKFIT

    Orbital Energies [Eh]
    ---------------------

    Doubly Occupied:

       1A    -20.644863     2A    -20.517227     3A    -15.590110
       4A    -11.361610     5A    -11.311952     6A    -11.306710
       7A    -11.260090     8A    -11.255878     9A    -11.249471
      10A     -1.475348    11A     -1.372180    12A     -1.232469
      13A     -1.097908    14A     -1.039190    15A     -0.954244
      16A     -0.841291    17A     -0.818159    18A     -0.775077
      19A     -0.762520    20A     -0.671381    21A     -0.659719
      22A     -0.642318    23A     -0.619581    24A     -0.601257
      25A     -0.578485    26A     -0.576689    27A     -0.558288
      28A     -0.542635    29A     -0.536450    30A     -0.435009
      31A     -0.412810    32A     -0.392477    33A     -0.330330

  @DF-RHF Final Energy:  -435.58999783379079

   => Energetics <=

    Nuclear Repulsion Energy =            428.9773227772093946
    One-Electron Energy =               -1444.2871928222014049
    Two-Electron Energy =                 579.7198722112012774
    Total Energy =                       -435.5899978337907896
  Basis Set: (AUG-CC-PVTZ AUX)
    Blend: AUG-CC-PVTZ-RI
    Molecular point group: c1

    Geometry (in Angstrom), charge = 0, multiplicity = 1:

       Center              X                  Y                   Z               Mass
    ------------   -----------------  -----------------  -----------------  -----------------
         O            0.946663110533    -1.095745542150     0.019193488146    15.994914619570
         O           -1.402718889467     1.600721457850     0.019197488146    15.994914619570
         N           -1.729569889467    -0.679314542150     0.019189488146    14.003074004430
         C            0.493571110533     0.199579457850     0.019188488146    12.000000000000
         C           -0.962525889467     0.446326457850     0.019192488146    12.000000000000
         C            1.552801910533     1.070293157850    -0.180810511854    12.000000000000
         C            2.729026110533     0.270208457850     0.019192488146    12.000000000000
         C            2.313925110533    -1.033147542150     0.019196488146    12.000000000000
         C           -3.177732889467    -0.618139542150     0.019193488146    12.000000000000
         H            1.471527110533     2.148145457850     0.019183488146     1.007825032230
         H           -1.261411889467    -1.576058542150     0.019184488146     1.007825032230
         H            3.755830110533     0.609718457850     0.019196488146     1.007825032230
         H            2.824281110533    -1.984932542150     0.019195488146     1.007825032230
         H           -3.453981889467     0.435900457850     0.019193488146     1.007825032230
         H           -3.590535889467    -1.099347542150     0.910509488146     1.007825032230
         H           -3.590539889467    -1.099347542150    -0.872121511854     1.007825032230

  Basis Set: AUG-CC-PVTZ
    Blend: AUG-CC-PVTZ
  Basis Set: (AUG-CC-PVTZ AUX)
    Blend: AUG-CC-PVTZ-JKFIT
	 Reference Energy          =    -435.5899978337907896 [Eh]
	 Singles Energy            =      -0.0000000000000000 [Eh]
	 Same-Spin Energy          =      -0.4485428717995410 [Eh]
	 Opposite-Spin Energy      =      -1.3732728373214920 [Eh]
	 Correlation Energy        =      -1.8218157091210330 [Eh]
	 Total Energy              =    -437.4118135429118297 [Eh]

	 ================> DF-SCS-MP2 Energies <==================
	-----------------------------------------------------------
	 SCS Same-Spin Scale       =       0.3333333333333333 [-]
	 SCS Opposite-Spin Scale   =       1.2000000000000000 [-]
	 SCS Same-Spin Energy      =      -0.1495142905998470 [Eh]
	 SCS Opposite-Spin Energy  =      -1.6479274047857904 [Eh]
	 SCS Correlation Energy    =      -1.7974416953856374 [Eh]
	 SCS Total Energy          =    -437.3874395291764472 [Eh]
	-----------------------------------------------------------

  Dipole Moment: [D]
     X:     1.0334      Y:    -3.3084      Z:     0.1441     Total:     3.4690

*** Psi4 exiting successfully. Buy a developer a beer!
