                               Psi4 1.3.2 release

  ==> Input File <==

--------------------------------------------------------------------------
#psi4
#
memory 32 gb

molecule  {
0 1
  O        0.9755400    -1.0764940     0.0000010
  O       -1.3738420     1.6199730     0.0000050
  N       -1.7006930    -0.6600630    -0.0000030
  C        0.5224480     0.2188310    -0.0000040
  C       -0.9336490     0.4655780     0.0000000
  C        1.5816790     1.0895450    -0.0000030
  C        2.7579030     0.2894600     0.0000000
  C        2.3428020    -1.0138960     0.0000040
  C       -3.1488560    -0.5988880     0.0000010
  H        1.5004038     2.1673974     0.0999910
  H       -1.2325350    -1.5568070    -0.0000080
  H        3.7847070     0.6289700     0.0000040
  H        2.8531580    -1.9656810     0.0000030
  H       -3.4251050     0.4551520     0.0000010
  H       -3.5616590    -1.0800960     0.8913170
  H       -3.5616630    -1.0800960    -0.8913140
units angstrom
no_reorient  #important for SAPT in psi4, default
symmetry c1  #important for SAPT in psi4, default
}

set PROPERTIES_ORIGIN ["COM"]
properties('MP2/aug-cc-pvtz', properties = ['dipole'])
--------------------------------------------------------------------------

    Molecular point group: c1
  Charge       = 0
  Multiplicity = 1
  Basis Set: AUG-CC-PVTZ
    Blend: AUG-CC-PVTZ
  Basis Set: (AUG-CC-PVTZ AUX)
    Blend: AUG-CC-PVTZ-JKFIT

    Orbital Energies [Eh]
    ---------------------

    Doubly Occupied:

       1A    -20.643676     2A    -20.515913     3A    -15.589058
       4A    -11.360529     5A    -11.312586     6A    -11.301592
       7A    -11.259431     8A    -11.252863     9A    -11.248056
      10A     -1.474497    11A     -1.371071    12A     -1.231489
      13A     -1.101461    14A     -1.039016    15A     -0.953964
      16A     -0.841084    17A     -0.819447    18A     -0.775299
      19A     -0.764575    20A     -0.671532    21A     -0.658843
      22A     -0.641789    23A     -0.618709    24A     -0.601061
      25A     -0.585493    26A     -0.577468    27A     -0.561638
      28A     -0.542300    29A     -0.536356    30A     -0.433894
      31A     -0.414245    32A     -0.391825    33A     -0.330989

  @DF-RHF Final Energy:  -435.60152080468123

   => Energetics <=

    Nuclear Repulsion Energy =            429.4236628328193888
    One-Electron Energy =               -1445.2068706354332335
    Two-Electron Energy =                 580.1816869979326157
    Total Energy =                       -435.6015208046811722
  Basis Set: (AUG-CC-PVTZ AUX)
    Blend: AUG-CC-PVTZ-RI
    Molecular point group: c1

    Geometry (in Angstrom), charge = 0, multiplicity = 1:

       Center              X                  Y                   Z               Mass
    ------------   -----------------  -----------------  -----------------  -----------------
         O            0.946663092952    -1.095745574162    -0.000805143847    15.994914619570
         O           -1.402718907048     1.600721425838    -0.000801143847    15.994914619570
         N           -1.729569907048    -0.679314574162    -0.000809143847    14.003074004430
         C            0.493571092952     0.199579425838    -0.000810143847    12.000000000000
         C           -0.962525907048     0.446326425838    -0.000806143847    12.000000000000
         C            1.552802092952     1.070293425838    -0.000809143847    12.000000000000
         C            2.729026092952     0.270208425838    -0.000806143847    12.000000000000
         C            2.313925092952    -1.033147574162    -0.000802143847    12.000000000000
         C           -3.177732907048    -0.618139574162    -0.000805143847    12.000000000000
         H            1.471526892952     2.148145825838     0.099184856153     1.007825032230
         H           -1.261411907048    -1.576058574162    -0.000814143847     1.007825032230
         H            3.755830092952     0.609718425838    -0.000802143847     1.007825032230
         H            2.824281092952    -1.984932574162    -0.000803143847     1.007825032230
         H           -3.453981907048     0.435900425838    -0.000805143847     1.007825032230
         H           -3.590535907048    -1.099347574162     0.890510856153     1.007825032230
         H           -3.590539907048    -1.099347574162    -0.892120143847     1.007825032230

  Basis Set: AUG-CC-PVTZ
    Blend: AUG-CC-PVTZ
  Basis Set: (AUG-CC-PVTZ AUX)
    Blend: AUG-CC-PVTZ-JKFIT
	 Reference Energy          =    -435.6015208046812290 [Eh]
	 Singles Energy            =      -0.0000000000000000 [Eh]
	 Same-Spin Energy          =      -0.4478602605985573 [Eh]
	 Opposite-Spin Energy      =      -1.3715061545585350 [Eh]
	 Correlation Energy        =      -1.8193664151570923 [Eh]
	 Total Energy              =    -437.4208872198383347 [Eh]

	 ================> DF-SCS-MP2 Energies <==================
	-----------------------------------------------------------
	 SCS Same-Spin Scale       =       0.3333333333333333 [-]
	 SCS Opposite-Spin Scale   =       1.2000000000000000 [-]
	 SCS Same-Spin Energy      =      -0.1492867535328524 [Eh]
	 SCS Opposite-Spin Energy  =      -1.6458073854702420 [Eh]
	 SCS Correlation Energy    =      -1.7950941390030943 [Eh]
	 SCS Total Energy          =    -437.3966149436843125 [Eh]
	-----------------------------------------------------------

  Dipole Moment: [D]
     X:     1.0902      Y:    -3.2433      Z:     0.0774     Total:     3.4225

*** Psi4 exiting successfully. Buy a developer a beer!
