                               Psi4 1.3.2 release

  ==> Input File <==

--------------------------------------------------------------------------
#psi4
#
memory 32 gb

molecule  {
0 1
  O       -1.4697740     2.5644010     0.0803940
  N        1.9191590    -0.5831280    -0.0556370
  N       -1.9102790     0.3061000     0.0485010
  N       -0.3427170    -1.4672350    -0.0387560
  N        1.5166440     1.6409000    -0.0105650
  N       -2.6294290    -1.9169300     0.1110730
  C        0.5576980    -0.4369160    -0.0295360
  C        0.3337570     0.9396730    -0.0094060
  C       -1.0221650     1.4237120     0.0351730
  C        2.4012452     0.5969231    -0.0688876
  C       -1.5730580    -1.0260450     0.0187980
  C        2.6353690    -1.8453210    -0.0655260
  H        3.5092610     0.8590810    -0.0866130
  H        2.3729340    -2.4304260     0.8177420
  H        2.3794720    -2.4140780    -0.9605130
  H        3.7041390    -1.6305860    -0.0592400
  H       -2.8879820     0.5691470     0.1693100
  H       -2.3258040    -2.8676930    -0.0642460
  H       -3.4596940    -1.6726380    -0.4173570
units angstrom
no_reorient  #important for SAPT in psi4, default
symmetry c1  #important for SAPT in psi4, default
}

set PROPERTIES_ORIGIN ["COM"]
properties('MP2/aug-cc-pvtz', properties = ['dipole'])
--------------------------------------------------------------------------

    Molecular point group: c1
  Charge       = 0
  Multiplicity = 1
  Basis Set: AUG-CC-PVTZ
    Blend: AUG-CC-PVTZ
  Basis Set: (AUG-CC-PVTZ AUX)
    Blend: AUG-CC-PVTZ-JKFIT

    Orbital Energies [Eh]
    ---------------------

    Doubly Occupied:

       1A    -20.522393     2A    -15.641913     3A    -15.628867
       4A    -15.608387     5A    -15.570273     6A    -15.553355
       7A    -11.392400     8A    -11.364531     9A    -11.314034
      10A    -11.307022    11A    -11.296545    12A    -11.249144
      13A     -1.397828    14A     -1.377157    15A     -1.335983
      16A     -1.218391    17A     -1.212108    18A     -1.192322
      19A     -1.024811    20A     -1.001950    21A     -0.914201
      22A     -0.878269    23A     -0.803080    24A     -0.770832
      25A     -0.743584    26A     -0.724182    27A     -0.692470
      28A     -0.682514    29A     -0.659703    30A     -0.642171
      31A     -0.628254    32A     -0.614065    33A     -0.584923
      34A     -0.566871    35A     -0.561548    36A     -0.542898
      37A     -0.495188    38A     -0.457696    39A     -0.440149
      40A     -0.430075    41A     -0.428063    42A     -0.398686
      43A     -0.290507

  @DF-RHF Final Energy:  -578.61441266562463

   => Energetics <=

    Nuclear Repulsion Energy =            695.2053820049187607
    One-Electron Energy =               -2167.3209027530924686
    Two-Electron Energy =                 893.5011080825491945
    Total Energy =                       -578.6144126656246272
  Basis Set: (AUG-CC-PVTZ AUX)
    Blend: AUG-CC-PVTZ-RI
    Molecular point group: c1

    Geometry (in Angstrom), charge = 0, multiplicity = 1:

       Center              X                  Y                   Z               Mass
    ------------   -----------------  -----------------  -----------------  -----------------
         O           -1.467024650102     2.571130693367     0.080318559075    15.994914619570
         N            1.921908349898    -0.576398306633    -0.055712440925    14.003074004430
         N           -1.907529650102     0.312829693367     0.048425559075    14.003074004430
         N           -0.339967650102    -1.460505306633    -0.038831440925    14.003074004430
         N            1.519393349898     1.647629693367    -0.010640440925    14.003074004430
         N           -2.626679650102    -1.910200306633     0.110997559075    14.003074004430
         C            0.560447349898    -0.430186306633    -0.029611440925    12.000000000000
         C            0.336506349898     0.946402693367    -0.009481440925    12.000000000000
         C           -1.019415650102     1.430441693367     0.035097559075    12.000000000000
         C            2.403994549898     0.603652793367    -0.068963040925    12.000000000000
         C           -1.570308650102    -1.019315306633     0.018722559075    12.000000000000
         C            2.638118349898    -1.838591306633    -0.065601440925    12.000000000000
         H            3.512010349898     0.865810693367    -0.086688440925     1.007825032230
         H            2.375683349898    -2.423696306633     0.817666559075     1.007825032230
         H            2.382221349898    -2.407348306633    -0.960588440925     1.007825032230
         H            3.706888349898    -1.623856306633    -0.059315440925     1.007825032230
         H           -2.885232650102     0.575876693367     0.169234559075     1.007825032230
         H           -2.323054650102    -2.860963306633    -0.064321440925     1.007825032230
         H           -3.456944650102    -1.665908306633    -0.417432440925     1.007825032230

  Basis Set: AUG-CC-PVTZ
    Blend: AUG-CC-PVTZ
  Basis Set: (AUG-CC-PVTZ AUX)
    Blend: AUG-CC-PVTZ-JKFIT
	 Reference Energy          =    -578.6144126656246272 [Eh]
	 Singles Energy            =      -0.0000000000000000 [Eh]
	 Same-Spin Energy          =      -0.6177944917173337 [Eh]
	 Opposite-Spin Energy      =      -1.8220274595320505 [Eh]
	 Correlation Energy        =      -2.4398219512493844 [Eh]
	 Total Energy              =    -581.0542346168740551 [Eh]

	 ================> DF-SCS-MP2 Energies <==================
	-----------------------------------------------------------
	 SCS Same-Spin Scale       =       0.3333333333333333 [-]
	 SCS Opposite-Spin Scale   =       1.2000000000000000 [-]
	 SCS Same-Spin Energy      =      -0.2059314972391112 [Eh]
	 SCS Opposite-Spin Energy  =      -2.1864329514384604 [Eh]
	 SCS Correlation Energy    =      -2.3923644486775717 [Eh]
	 SCS Total Energy          =    -581.0067771143021673 [Eh]
	-----------------------------------------------------------

  Dipole Moment: [D]
     X:     0.0639      Y:    -7.0556      Z:    -0.9422     Total:     7.1185

*** Psi4 exiting successfully. Buy a developer a beer!
