                               Psi4 1.3.2 release

  ==> Input File <==

--------------------------------------------------------------------------
#psi4
#
memory 32 gb

molecule  {
0 1
  O       -1.4697740     2.5644010     0.0803940
  N        1.9191590    -0.5831280    -0.0556370
  N       -1.9102790     0.3061000     0.0485010
  N       -0.3427170    -1.4672350    -0.0387560
  N        1.5504585     1.6725232    -0.0100159
  N       -2.6294290    -1.9169300     0.1110730
  C        0.5576980    -0.4369160    -0.0295360
  C        0.3337570     0.9396730    -0.0094060
  C       -1.0221650     1.4237120     0.0351730
  C        2.4390620     0.6894910    -0.0699270
  C       -1.5730580    -1.0260450     0.0187980
  C        2.6353690    -1.8453210    -0.0655260
  H        3.5027207     0.8962995    -0.0849433
  H        2.3729340    -2.4304260     0.8177420
  H        2.3794720    -2.4140780    -0.9605130
  H        3.7041390    -1.6305860    -0.0592400
  H       -2.8879820     0.5691470     0.1693100
  H       -2.3258040    -2.8676930    -0.0642460
  H       -3.4596940    -1.6726380    -0.4173570
units angstrom
no_reorient  #important for SAPT in psi4, default
symmetry c1  #important for SAPT in psi4, default
}

set PROPERTIES_ORIGIN ["COM"]
properties('MP2/aug-cc-pvtz', properties = ['dipole'])
--------------------------------------------------------------------------

    Molecular point group: c1
  Charge       = 0
  Multiplicity = 1
  Basis Set: AUG-CC-PVTZ
    Blend: AUG-CC-PVTZ
  Basis Set: (AUG-CC-PVTZ AUX)
    Blend: AUG-CC-PVTZ-JKFIT

    Orbital Energies [Eh]
    ---------------------

    Doubly Occupied:

       1A    -20.519858     2A    -15.633406     3A    -15.629633
       4A    -15.611613     5A    -15.572238     6A    -15.564187
       7A    -11.397469     8A    -11.363895     9A    -11.322482
      10A    -11.308846    11A    -11.289889    12A    -11.249170
      13A     -1.389948    14A     -1.358845    15A     -1.333513
      16A     -1.219652    17A     -1.215300    18A     -1.186292
      19A     -1.031534    20A     -0.984917    21A     -0.900339
      22A     -0.883066    23A     -0.806772    24A     -0.766532
      25A     -0.738900    26A     -0.729603    27A     -0.692350
      28A     -0.671127    29A     -0.650419    30A     -0.643116
      31A     -0.627106    32A     -0.610148    33A     -0.582126
      34A     -0.578677    35A     -0.559197    36A     -0.541663
      37A     -0.494891    38A     -0.459814    39A     -0.440205
      40A     -0.431881    41A     -0.429523    42A     -0.389539
      43A     -0.302042

  @DF-RHF Final Energy:  -578.62780528444250

   => Energetics <=

    Nuclear Repulsion Energy =            692.1042840552743201
    One-Electron Energy =               -2161.2407301689972883
    Two-Electron Energy =                 890.5086408292804663
    Total Energy =                       -578.6278052844425019
  Basis Set: (AUG-CC-PVTZ AUX)
    Blend: AUG-CC-PVTZ-RI
    Molecular point group: c1

    Geometry (in Angstrom), charge = 0, multiplicity = 1:

       Center              X                  Y                   Z               Mass
    ------------   -----------------  -----------------  -----------------  -----------------
         O           -1.472602554164     2.561491181849     0.080337345283    15.994914619570
         N            1.916330445836    -0.586037818151    -0.055693654717    14.003074004430
         N           -1.913107554164     0.303190181849     0.048444345283    14.003074004430
         N           -0.345545554164    -1.470144818151    -0.038812654717    14.003074004430
         N            1.547629945836     1.669613381849    -0.010072554717    14.003074004430
         N           -2.632257554164    -1.919839818151     0.111016345283    14.003074004430
         C            0.554869445836    -0.439825818151    -0.029592654717    12.000000000000
         C            0.330928445836     0.936763181849    -0.009462654717    12.000000000000
         C           -1.024993554164     1.420802181849     0.035116345283    12.000000000000
         C            2.436233445836     0.686581181849    -0.069983654717    12.000000000000
         C           -1.575886554164    -1.028954818151     0.018741345283    12.000000000000
         C            2.632540445836    -1.848230818151    -0.065582654717    12.000000000000
         H            3.499892145836     0.893389681849    -0.084999954717     1.007825032230
         H            2.370105445836    -2.433335818151     0.817685345283     1.007825032230
         H            2.376643445836    -2.416987818151    -0.960569654717     1.007825032230
         H            3.701310445836    -1.633495818151    -0.059296654717     1.007825032230
         H           -2.890810554164     0.566237181849     0.169253345283     1.007825032230
         H           -2.328632554164    -2.870602818151    -0.064302654717     1.007825032230
         H           -3.462522554164    -1.675547818151    -0.417413654717     1.007825032230

  Basis Set: AUG-CC-PVTZ
    Blend: AUG-CC-PVTZ
  Basis Set: (AUG-CC-PVTZ AUX)
    Blend: AUG-CC-PVTZ-JKFIT
	 Reference Energy          =    -578.6278052844425019 [Eh]
	 Singles Energy            =      -0.0000000000000000 [Eh]
	 Same-Spin Energy          =      -0.6156594948500780 [Eh]
	 Opposite-Spin Energy      =      -1.8202807823937897 [Eh]
	 Correlation Energy        =      -2.4359402772438674 [Eh]
	 Total Energy              =    -581.0637455616863463 [Eh]

	 ================> DF-SCS-MP2 Energies <==================
	-----------------------------------------------------------
	 SCS Same-Spin Scale       =       0.3333333333333333 [-]
	 SCS Opposite-Spin Scale   =       1.2000000000000000 [-]
	 SCS Same-Spin Energy      =      -0.2052198316166927 [Eh]
	 SCS Opposite-Spin Energy  =      -2.1843369388725473 [Eh]
	 SCS Correlation Energy    =      -2.3895567704892402 [Eh]
	 SCS Total Energy          =    -581.0173620549317093 [Eh]
	-----------------------------------------------------------

  Dipole Moment: [D]
     X:    -0.0739      Y:    -6.8522      Z:    -0.9364     Total:     6.9163

*** Psi4 exiting successfully. Buy a developer a beer!
