                               Psi4 1.3.2 release

  ==> Input File <==

--------------------------------------------------------------------------
#psi4
#
memory 32 gb

molecule  {
0 1
  O       -1.4697740     2.5644010     0.0803940
  N        1.9191590    -0.5831280    -0.0556370
  N       -1.9102790     0.3061000     0.0485010
  N       -0.3781266    -1.4351885    -0.0381221
  N        1.5166440     1.6409000    -0.0105650
  N       -2.6294290    -1.9169300     0.1110730
  C        0.5576980    -0.4369160    -0.0295360
  C        0.2858468     0.9310160    -0.0092626
  C       -1.0221650     1.4237120     0.0351730
  C        2.4390620     0.6894910    -0.0699270
  C       -1.5730580    -1.0260450     0.0187980
  C        2.6353690    -1.8453210    -0.0655260
  H        3.5092610     0.8590810    -0.0866130
  H        2.3729340    -2.4304260     0.8177420
  H        2.3794720    -2.4140780    -0.9605130
  H        3.7041390    -1.6305860    -0.0592400
  H       -2.8879820     0.5691470     0.1693100
  H       -2.3258040    -2.8676930    -0.0642460
  H       -3.4596940    -1.6726380    -0.4173570
units angstrom
no_reorient  #important for SAPT in psi4, default
symmetry c1  #important for SAPT in psi4, default
}

set PROPERTIES_ORIGIN ["COM"]
properties('MP2/aug-cc-pvtz', properties = ['dipole'])
--------------------------------------------------------------------------

    Molecular point group: c1
  Charge       = 0
  Multiplicity = 1
  Basis Set: AUG-CC-PVTZ
    Blend: AUG-CC-PVTZ
  Basis Set: (AUG-CC-PVTZ AUX)
    Blend: AUG-CC-PVTZ-JKFIT

    Orbital Energies [Eh]
    ---------------------

    Doubly Occupied:

       1A    -20.516859     2A    -15.636627     3A    -15.622890
       4A    -15.606632     5A    -15.566195     6A    -15.562685
       7A    -11.387571     8A    -11.359393     9A    -11.326788
      10A    -11.310832    11A    -11.292384    12A    -11.246563
      13A     -1.391802    14A     -1.359576    15A     -1.336708
      16A     -1.218552    17A     -1.216129    18A     -1.186693
      19A     -1.038131    20A     -0.989484    21A     -0.908289
      22A     -0.879463    23A     -0.812181    24A     -0.768610
      25A     -0.738050    26A     -0.730394    27A     -0.690988
      28A     -0.673714    29A     -0.652843    30A     -0.646804
      31A     -0.630257    32A     -0.610886    33A     -0.590979
      34A     -0.582565    35A     -0.560769    36A     -0.542746
      37A     -0.489209    38A     -0.458900    39A     -0.434399
      40A     -0.429372    41A     -0.426386    42A     -0.390383
      43A     -0.306924

  @DF-RHF Final Energy:  -578.62755296621492

   => Energetics <=

    Nuclear Repulsion Energy =            694.5306507802499709
    One-Electron Energy =               -2166.0611909850013035
    Two-Electron Energy =                 892.9029872385364115
    Total Energy =                       -578.6275529662149211
  Basis Set: (AUG-CC-PVTZ AUX)
    Blend: AUG-CC-PVTZ-RI
    Molecular point group: c1

    Geometry (in Angstrom), charge = 0, multiplicity = 1:

       Center              X                  Y                   Z               Mass
    ------------   -----------------  -----------------  -----------------  -----------------
         O           -1.463286947831     2.562311865735     0.080329920967    15.994914619570
         N            1.925646052169    -0.585217134265    -0.055701079033    14.003074004430
         N           -1.903791947831     0.304010865735     0.048436920967    14.003074004430
         N           -0.371639547831    -1.437277634265    -0.038186179033    14.003074004430
         N            1.523131052169     1.638810865735    -0.010629079033    14.003074004430
         N           -2.622941947831    -1.919019134265     0.111008920967    14.003074004430
         C            0.564185052169    -0.439005134265    -0.029600079033    12.000000000000
         C            0.292333852169     0.928926865735    -0.009326679033    12.000000000000
         C           -1.015677947831     1.421622865735     0.035108920967    12.000000000000
         C            2.445549052169     0.687401865735    -0.069991079033    12.000000000000
         C           -1.566570947831    -1.028134134265     0.018733920967    12.000000000000
         C            2.641856052169    -1.847410134265    -0.065590079033    12.000000000000
         H            3.515748052169     0.856991865735    -0.086677079033     1.007825032230
         H            2.379421052169    -2.432515134265     0.817677920967     1.007825032230
         H            2.385959052169    -2.416167134265    -0.960577079033     1.007825032230
         H            3.710626052169    -1.632675134265    -0.059304079033     1.007825032230
         H           -2.881494947831     0.567057865735     0.169245920967     1.007825032230
         H           -2.319316947831    -2.869782134265    -0.064310079033     1.007825032230
         H           -3.453206947831    -1.674727134265    -0.417421079033     1.007825032230

  Basis Set: AUG-CC-PVTZ
    Blend: AUG-CC-PVTZ
  Basis Set: (AUG-CC-PVTZ AUX)
    Blend: AUG-CC-PVTZ-JKFIT
	 Reference Energy          =    -578.6275529662149211 [Eh]
	 Singles Energy            =      -0.0000000000000000 [Eh]
	 Same-Spin Energy          =      -0.6153543502078918 [Eh]
	 Opposite-Spin Energy      =      -1.8187177260233094 [Eh]
	 Correlation Energy        =      -2.4340720762312014 [Eh]
	 Total Energy              =    -581.0616250424461668 [Eh]

	 ================> DF-SCS-MP2 Energies <==================
	-----------------------------------------------------------
	 SCS Same-Spin Scale       =       0.3333333333333333 [-]
	 SCS Opposite-Spin Scale   =       1.2000000000000000 [-]
	 SCS Same-Spin Energy      =      -0.2051181167359639 [Eh]
	 SCS Opposite-Spin Energy  =      -2.1824612712279712 [Eh]
	 SCS Correlation Energy    =      -2.3875793879639353 [Eh]
	 SCS Total Energy          =    -581.0151323541788315 [Eh]
	-----------------------------------------------------------

  Dipole Moment: [D]
     X:     0.2793      Y:    -6.9264      Z:    -0.9510     Total:     6.9970

*** Psi4 exiting successfully. Buy a developer a beer!
