                               Psi4 1.3.2 release

  ==> Input File <==

--------------------------------------------------------------------------
#psi4
#
memory 32 gb

molecule  {
0 1
  O       -1.4697740     2.5644010     0.0803940
  N        1.9191590    -0.5831280    -0.0556370
  N       -1.9102790     0.3061000     0.0485010
  N       -0.3214675    -1.4022101    -0.0422022
  N        1.5166440     1.6409000    -0.0105650
  N       -2.6746622    -1.8602661     0.1118238
  C        0.5576980    -0.4369160    -0.0295360
  C        0.3337570     0.9396730    -0.0094060
  C       -1.0221650     1.4237120     0.0351730
  C        2.4390620     0.6894910    -0.0699270
  C       -1.5730580    -1.0260450     0.0187980
  C        2.6353690    -1.8453210    -0.0655260
  H        3.5092610     0.8590810    -0.0866130
  H        2.3729340    -2.4304260     0.8177420
  H        2.3794720    -2.4140780    -0.9605130
  H        3.7041390    -1.6305860    -0.0592400
  H       -2.8879820     0.5691470     0.1693100
  H       -2.3258040    -2.8676930    -0.0642460
  H       -3.4596940    -1.6726380    -0.4173570
units angstrom
no_reorient  #important for SAPT in psi4, default
symmetry c1  #important for SAPT in psi4, default
}

set PROPERTIES_ORIGIN ["COM"]
properties('MP2/aug-cc-pvtz', properties = ['dipole'])
--------------------------------------------------------------------------

    Molecular point group: c1
  Charge       = 0
  Multiplicity = 1
  Basis Set: AUG-CC-PVTZ
    Blend: AUG-CC-PVTZ
  Basis Set: (AUG-CC-PVTZ AUX)
    Blend: AUG-CC-PVTZ-JKFIT

    Orbital Energies [Eh]
    ---------------------

    Doubly Occupied:

       1A    -20.516116     2A    -15.630290     3A    -15.626338
       4A    -15.616890     5A    -15.567998     6A    -15.557519
       7A    -11.400003     8A    -11.360105     9A    -11.314880
      10A    -11.306042    11A    -11.288962    12A    -11.243174
      13A     -1.391683    14A     -1.360188    15A     -1.335244
      16A     -1.232671    17A     -1.214899    18A     -1.190245
      19A     -1.028802    20A     -0.985307    21A     -0.903834
      22A     -0.889425    23A     -0.811683    24A     -0.766969
      25A     -0.745418    26A     -0.738430    27A     -0.680860
      28A     -0.671916    29A     -0.651975    30A     -0.642650
      31A     -0.629407    32A     -0.607487    33A     -0.592018
      34A     -0.579392    35A     -0.560777    36A     -0.541695
      37A     -0.490541    38A     -0.468418    39A     -0.435414
      40A     -0.428902    41A     -0.423953    42A     -0.391569
      43A     -0.293151

  @DF-RHF Final Energy:  -578.61939619400312

   => Energetics <=

    Nuclear Repulsion Energy =            695.1857236909795574
    One-Electron Energy =               -2167.3837633863890915
    Two-Electron Energy =                 893.5786435014064182
    Total Energy =                       -578.6193961940031159
  Basis Set: (AUG-CC-PVTZ AUX)
    Blend: AUG-CC-PVTZ-RI
    Molecular point group: c1

    Geometry (in Angstrom), charge = 0, multiplicity = 1:

       Center              X                  Y                   Z               Mass
    ------------   -----------------  -----------------  -----------------  -----------------
         O           -1.467739253630     2.554077829035     0.080622782668    15.994914619570
         N            1.921193746370    -0.593451170965    -0.055408217332    14.003074004430
         N           -1.908244253630     0.295776829035     0.048729782668    14.003074004430
         N           -0.319432753630    -1.412533270965    -0.041973417332    14.003074004430
         N            1.518678746370     1.630576829035    -0.010336217332    14.003074004430
         N           -2.672627453630    -1.870589270965     0.112052582668    14.003074004430
         C            0.559732746370    -0.447239170965    -0.029307217332    12.000000000000
         C            0.335791746370     0.929349829035    -0.009177217332    12.000000000000
         C           -1.020130253630     1.413388829035     0.035401782668    12.000000000000
         C            2.441096746370     0.679167829035    -0.069698217332    12.000000000000
         C           -1.571023253630    -1.036368170965     0.019026782668    12.000000000000
         C            2.637403746370    -1.855644170965    -0.065297217332    12.000000000000
         H            3.511295746370     0.848757829035    -0.086384217332     1.007825032230
         H            2.374968746370    -2.440749170965     0.817970782668     1.007825032230
         H            2.381506746370    -2.424401170965    -0.960284217332     1.007825032230
         H            3.706173746370    -1.640909170965    -0.059011217332     1.007825032230
         H           -2.885947253630     0.558823829035     0.169538782668     1.007825032230
         H           -2.323769253630    -2.878016170965    -0.064017217332     1.007825032230
         H           -3.457659253630    -1.682961170965    -0.417128217332     1.007825032230

  Basis Set: AUG-CC-PVTZ
    Blend: AUG-CC-PVTZ
  Basis Set: (AUG-CC-PVTZ AUX)
    Blend: AUG-CC-PVTZ-JKFIT
	 Reference Energy          =    -578.6193961940031159 [Eh]
	 Singles Energy            =      -0.0000000000000000 [Eh]
	 Same-Spin Energy          =      -0.6169863978988372 [Eh]
	 Opposite-Spin Energy      =      -1.8200252258062948 [Eh]
	 Correlation Energy        =      -2.4370116237051320 [Eh]
	 Total Energy              =    -581.0564078177083047 [Eh]

	 ================> DF-SCS-MP2 Energies <==================
	-----------------------------------------------------------
	 SCS Same-Spin Scale       =       0.3333333333333333 [-]
	 SCS Opposite-Spin Scale   =       1.2000000000000000 [-]
	 SCS Same-Spin Energy      =      -0.2056621326329457 [Eh]
	 SCS Opposite-Spin Energy  =      -2.1840302709675536 [Eh]
	 SCS Correlation Energy    =      -2.3896924036004994 [Eh]
	 SCS Total Energy          =    -581.0090885976036361 [Eh]
	-----------------------------------------------------------

  Dipole Moment: [D]
     X:    -0.0218      Y:    -7.0883      Z:    -0.9567     Total:     7.1526

*** Psi4 exiting successfully. Buy a developer a beer!
