                               Psi4 1.3.2 release

  ==> Input File <==

--------------------------------------------------------------------------
#psi4
#
memory 32 gb

molecule  {
0 1
  O       -1.4697740     2.5644010     0.0803940
  N        1.9191590    -0.5831280    -0.0556370
  N       -1.9199921     0.3138924     0.0488682
  N       -0.3427170    -1.4672350    -0.0387560
  N        1.5166440     1.6409000    -0.0105650
  N       -2.6294290    -1.9169300     0.1110730
  C        0.5576980    -0.4369160    -0.0295360
  C        0.3379316     0.9515295    -0.0093956
  C       -1.0221650     1.4237120     0.0351730
  C        2.4390620     0.6894910    -0.0699270
  C       -1.5730580    -1.0260450     0.0187980
  C        2.6353690    -1.8453210    -0.0655260
  H        3.5092610     0.8590810    -0.0866130
  H        2.3729340    -2.4304260     0.8177420
  H        2.3794720    -2.4140780    -0.9605130
  H        3.7041390    -1.6305860    -0.0592400
  H       -2.8879820     0.5691470     0.1693100
  H       -2.3258040    -2.8676930    -0.0642460
  H       -3.4596940    -1.6726380    -0.4173570
units angstrom
no_reorient  #important for SAPT in psi4, default
symmetry c1  #important for SAPT in psi4, default
}

set PROPERTIES_ORIGIN ["COM"]
properties('MP2/aug-cc-pvtz', properties = ['dipole'])
--------------------------------------------------------------------------

    Molecular point group: c1
  Charge       = 0
  Multiplicity = 1
  Basis Set: AUG-CC-PVTZ
    Blend: AUG-CC-PVTZ
  Basis Set: (AUG-CC-PVTZ AUX)
    Blend: AUG-CC-PVTZ-JKFIT

    Orbital Energies [Eh]
    ---------------------

    Doubly Occupied:

       1A    -20.519260     2A    -15.633895     3A    -15.628427
       4A    -15.610974     5A    -15.572138     6A    -15.559761
       7A    -11.397160     8A    -11.363340     9A    -11.320061
      10A    -11.307013    11A    -11.289788    12A    -11.248013
      13A     -1.389695    14A     -1.360573    15A     -1.333004
      16A     -1.218387    17A     -1.217336    18A     -1.192415
      19A     -1.027639    20A     -0.987183    21A     -0.901685
      22A     -0.881470    23A     -0.807330    24A     -0.765840
      25A     -0.744317    26A     -0.729264    27A     -0.692129
      28A     -0.671018    29A     -0.648529    30A     -0.643546
      31A     -0.626091    32A     -0.608984    33A     -0.596060
      34A     -0.578842    35A     -0.561324    36A     -0.541545
      37A     -0.494716    38A     -0.459361    39A     -0.439868
      40A     -0.428721    41A     -0.427496    42A     -0.394086
      43A     -0.296537

  @DF-RHF Final Energy:  -578.63027940033930

   => Energetics <=

    Nuclear Repulsion Energy =            693.0834051492920480
    One-Electron Energy =               -2163.1977332634151026
    Two-Electron Energy =                 891.4840487137837499
    Total Energy =                       -578.6302794003393046
  Basis Set: (AUG-CC-PVTZ AUX)
    Blend: AUG-CC-PVTZ-RI
    Molecular point group: c1

    Geometry (in Angstrom), charge = 0, multiplicity = 1:

       Center              X                  Y                   Z               Mass
    ------------   -----------------  -----------------  -----------------  -----------------
         O           -1.469253368537     2.562878127046     0.080362215020    15.994914619570
         N            1.919679631463    -0.584650872954    -0.055668784980    14.003074004430
         N           -1.919471468537     0.312369527046     0.048836415020    14.003074004430
         N           -0.342196368537    -1.468757872954    -0.038787784980    14.003074004430
         N            1.517164631463     1.639377127046    -0.010596784980    14.003074004430
         N           -2.628908368537    -1.918452872954     0.111041215020    14.003074004430
         C            0.558218631463    -0.438438872954    -0.029567784980    12.000000000000
         C            0.338452231463     0.950006627046    -0.009427384980    12.000000000000
         C           -1.021644368537     1.422189127046     0.035141215020    12.000000000000
         C            2.439582631463     0.687968127046    -0.069958784980    12.000000000000
         C           -1.572537368537    -1.027567872954     0.018766215020    12.000000000000
         C            2.635889631463    -1.846843872954    -0.065557784980    12.000000000000
         H            3.509781631463     0.857558127046    -0.086644784980     1.007825032230
         H            2.373454631463    -2.431948872954     0.817710215020     1.007825032230
         H            2.379992631463    -2.415600872954    -0.960544784980     1.007825032230
         H            3.704659631463    -1.632108872954    -0.059271784980     1.007825032230
         H           -2.887461368537     0.567624127046     0.169278215020     1.007825032230
         H           -2.325283368537    -2.869215872954    -0.064277784980     1.007825032230
         H           -3.459173368537    -1.674160872954    -0.417388784980     1.007825032230

  Basis Set: AUG-CC-PVTZ
    Blend: AUG-CC-PVTZ
  Basis Set: (AUG-CC-PVTZ AUX)
    Blend: AUG-CC-PVTZ-JKFIT
	 Reference Energy          =    -578.6302794003393046 [Eh]
	 Singles Energy            =      -0.0000000000000000 [Eh]
	 Same-Spin Energy          =      -0.6161472873078241 [Eh]
	 Opposite-Spin Energy      =      -1.8198421900551680 [Eh]
	 Correlation Energy        =      -2.4359894773629920 [Eh]
	 Total Energy              =    -581.0662688777023277 [Eh]

	 ================> DF-SCS-MP2 Energies <==================
	-----------------------------------------------------------
	 SCS Same-Spin Scale       =       0.3333333333333333 [-]
	 SCS Opposite-Spin Scale   =       1.2000000000000000 [-]
	 SCS Same-Spin Energy      =      -0.2053824291026080 [Eh]
	 SCS Opposite-Spin Energy  =      -2.1838106280662015 [Eh]
	 SCS Correlation Energy    =      -2.3891930571688094 [Eh]
	 SCS Total Energy          =    -581.0194724575080727 [Eh]
	-----------------------------------------------------------

  Dipole Moment: [D]
     X:     0.0262      Y:    -6.8291      Z:    -0.9375     Total:     6.8931

*** Psi4 exiting successfully. Buy a developer a beer!
