                               Psi4 1.3.2 release

  ==> Input File <==

--------------------------------------------------------------------------
#psi4
#
memory 32 gb

molecule  {
0 1
  O       -1.4697740     2.5644010     0.0803940
  N        1.9249595    -0.5116661    -0.0549042
  N       -1.9102790     0.3061000     0.0485010
  N       -0.3427170    -1.4672350    -0.0387560
  N        1.5166440     1.6409000    -0.0105650
  N       -2.6294290    -1.9169300     0.1110730
  C        0.5576980    -0.4369160    -0.0295360
  C        0.4061048     0.9495228    -0.0105867
  C       -1.0221650     1.4237120     0.0351730
  C        2.4390620     0.6894910    -0.0699270
  C       -1.5730580    -1.0260450     0.0187980
  C        2.6353690    -1.8453210    -0.0655260
  H        3.5092610     0.8590810    -0.0866130
  H        2.3729340    -2.4304260     0.8177420
  H        2.3794720    -2.4140780    -0.9605130
  H        3.7041390    -1.6305860    -0.0592400
  H       -2.8879820     0.5691470     0.1693100
  H       -2.3258040    -2.8676930    -0.0642460
  H       -3.4596940    -1.6726380    -0.4173570
units angstrom
no_reorient  #important for SAPT in psi4, default
symmetry c1  #important for SAPT in psi4, default
}

set PROPERTIES_ORIGIN ["COM"]
properties('MP2/aug-cc-pvtz', properties = ['dipole'])
--------------------------------------------------------------------------

    Molecular point group: c1
  Charge       = 0
  Multiplicity = 1
  Basis Set: AUG-CC-PVTZ
    Blend: AUG-CC-PVTZ
  Basis Set: (AUG-CC-PVTZ AUX)
    Blend: AUG-CC-PVTZ-JKFIT

    Orbital Energies [Eh]
    ---------------------

    Doubly Occupied:

       1A    -20.524887     2A    -15.634458     3A    -15.629521
       4A    -15.608894     5A    -15.570631     6A    -15.547388
       7A    -11.393208     8A    -11.367654     9A    -11.305534
      10A    -11.296941    11A    -11.294897    12A    -11.248527
      13A     -1.394075    14A     -1.373068    15A     -1.336225
      16A     -1.217811    17A     -1.216819    18A     -1.192376
      19A     -1.024195    20A     -0.986565    21A     -0.901642
      22A     -0.879776    23A     -0.807109    24A     -0.764114
      25A     -0.745966    26A     -0.728145    27A     -0.691827
      28A     -0.671600    29A     -0.649209    30A     -0.639301
      31A     -0.624454    32A     -0.608995    33A     -0.590876
      34A     -0.574916    35A     -0.570318    36A     -0.541258
      37A     -0.492317    38A     -0.459025    39A     -0.444819
      40A     -0.429053    41A     -0.421201    42A     -0.401646
      43A     -0.289101

  @DF-RHF Final Energy:  -578.61630817059950

   => Energetics <=

    Nuclear Repulsion Energy =            694.1454946839081686
    One-Electron Energy =               -2165.3429143483353982
    Two-Electron Energy =                 892.5811114938278479
    Total Energy =                       -578.6163081705994955
  Basis Set: (AUG-CC-PVTZ AUX)
    Blend: AUG-CC-PVTZ-RI
    Molecular point group: c1

    Geometry (in Angstrom), charge = 0, multiplicity = 1:

       Center              X                  Y                   Z               Mass
    ------------   -----------------  -----------------  -----------------  -----------------
         O           -1.475525540793     2.557622694303     0.080417791143    15.994914619570
         N            1.919207959207    -0.518444405697    -0.054880408857    14.003074004430
         N           -1.916030540793     0.299321694303     0.048524791143    14.003074004430
         N           -0.348468540793    -1.474013305697    -0.038732208857    14.003074004430
         N            1.510892459207     1.634121694303    -0.010541208857    14.003074004430
         N           -2.635180540793    -1.923708305697     0.111096791143    14.003074004430
         C            0.551946459207    -0.443694305697    -0.029512208857    12.000000000000
         C            0.400353259207     0.942744494303    -0.010562908857    12.000000000000
         C           -1.027916540793     1.416933694303     0.035196791143    12.000000000000
         C            2.433310459207     0.682712694303    -0.069903208857    12.000000000000
         C           -1.578809540793    -1.032823305697     0.018821791143    12.000000000000
         C            2.629617459207    -1.852099305697    -0.065502208857    12.000000000000
         H            3.503509459207     0.852302694303    -0.086589208857     1.007825032230
         H            2.367182459207    -2.437204305697     0.817765791143     1.007825032230
         H            2.373720459207    -2.420856305697    -0.960489208857     1.007825032230
         H            3.698387459207    -1.637364305697    -0.059216208857     1.007825032230
         H           -2.893733540793     0.562368694303     0.169333791143     1.007825032230
         H           -2.331555540793    -2.874471305697    -0.064222208857     1.007825032230
         H           -3.465445540793    -1.679416305697    -0.417333208857     1.007825032230

  Basis Set: AUG-CC-PVTZ
    Blend: AUG-CC-PVTZ
  Basis Set: (AUG-CC-PVTZ AUX)
    Blend: AUG-CC-PVTZ-JKFIT
	 Reference Energy          =    -578.6163081705994955 [Eh]
	 Singles Energy            =      -0.0000000000000000 [Eh]
	 Same-Spin Energy          =      -0.6167645043349084 [Eh]
	 Opposite-Spin Energy      =      -1.8196831924628927 [Eh]
	 Correlation Energy        =      -2.4364476967978010 [Eh]
	 Total Energy              =    -581.0527558673973090 [Eh]

	 ================> DF-SCS-MP2 Energies <==================
	-----------------------------------------------------------
	 SCS Same-Spin Scale       =       0.3333333333333333 [-]
	 SCS Opposite-Spin Scale   =       1.2000000000000000 [-]
	 SCS Same-Spin Energy      =      -0.2055881681116361 [Eh]
	 SCS Opposite-Spin Energy  =      -2.1836198309554713 [Eh]
	 SCS Correlation Energy    =      -2.3892079990671076 [Eh]
	 SCS Total Energy          =    -581.0055161696666346 [Eh]
	-----------------------------------------------------------

  Dipole Moment: [D]
     X:     0.0146      Y:    -6.8068      Z:    -0.9385     Total:     6.8712

*** Psi4 exiting successfully. Buy a developer a beer!
