                               Psi4 1.3.2 release

  ==> Input File <==

--------------------------------------------------------------------------
#psi4
#
memory 32 gb

molecule  {
0 1
  O       -1.4697740     2.5644010     0.0803940
  N        1.9096268    -0.6541891    -0.0562983
  N       -1.9102790     0.3061000     0.0485010
  N       -0.3427170    -1.4672350    -0.0387560
  N        1.5166440     1.6409000    -0.0105650
  N       -2.6294290    -1.9169300     0.1110730
  C        0.5576980    -0.4369160    -0.0295360
  C        0.2620230     0.9260501    -0.0082805
  C       -1.0221650     1.4237120     0.0351730
  C        2.4390620     0.6894910    -0.0699270
  C       -1.5730580    -1.0260450     0.0187980
  C        2.6353690    -1.8453210    -0.0655260
  H        3.5092610     0.8590810    -0.0866130
  H        2.3729340    -2.4304260     0.8177420
  H        2.3794720    -2.4140780    -0.9605130
  H        3.7041390    -1.6305860    -0.0592400
  H       -2.8879820     0.5691470     0.1693100
  H       -2.3258040    -2.8676930    -0.0642460
  H       -3.4596940    -1.6726380    -0.4173570
units angstrom
no_reorient  #important for SAPT in psi4, default
symmetry c1  #important for SAPT in psi4, default
}

set PROPERTIES_ORIGIN ["COM"]
properties('MP2/aug-cc-pvtz', properties = ['dipole'])
--------------------------------------------------------------------------

    Molecular point group: c1
  Charge       = 0
  Multiplicity = 1
  Basis Set: AUG-CC-PVTZ
    Blend: AUG-CC-PVTZ
  Basis Set: (AUG-CC-PVTZ AUX)
    Blend: AUG-CC-PVTZ-JKFIT

    Orbital Energies [Eh]
    ---------------------

    Doubly Occupied:

       1A    -20.515475     2A    -15.631704     3A    -15.627889
       4A    -15.611840     5A    -15.571559     6A    -15.570828
       7A    -11.397958     8A    -11.358151     9A    -11.332792
      10A    -11.317542    11A    -11.284504    12A    -11.246199
      13A     -1.389861    14A     -1.353556    15A     -1.329342
      16A     -1.221128    17A     -1.214739    18A     -1.191928
      19A     -1.037618    20A     -0.990840    21A     -0.897900
      22A     -0.882541    23A     -0.808753    24A     -0.772539
      25A     -0.737082    26A     -0.730096    27A     -0.692421
      28A     -0.673583    29A     -0.661137    30A     -0.640608
      31A     -0.628864    32A     -0.610928    33A     -0.593364
      34A     -0.572687    35A     -0.555019    36A     -0.538910
      37A     -0.494048    38A     -0.459090    39A     -0.434842
      40A     -0.432772    41A     -0.428503    42A     -0.386154
      43A     -0.308245

  @DF-RHF Final Energy:  -578.61540665525922

   => Energetics <=

    Nuclear Repulsion Energy =            693.1017999143836050
    One-Electron Energy =               -2163.1633345682871550
    Two-Electron Energy =                 891.4461279986442150
    Total Energy =                       -578.6154066552592212
  Basis Set: (AUG-CC-PVTZ AUX)
    Blend: AUG-CC-PVTZ-RI
    Molecular point group: c1

    Geometry (in Angstrom), charge = 0, multiplicity = 1:

       Center              X                  Y                   Z               Mass
    ------------   -----------------  -----------------  -----------------  -----------------
         O           -1.463750265430     2.571419875355     0.080368400227    15.994914619570
         N            1.915650534570    -0.647170224645    -0.056323899773    14.003074004430
         N           -1.904255265430     0.313118875355     0.048475400227    14.003074004430
         N           -0.336693265430    -1.460216124645    -0.038781599773    14.003074004430
         N            1.522667734570     1.647918875355    -0.010590599773    14.003074004430
         N           -2.623405265430    -1.909911124645     0.111047400227    14.003074004430
         C            0.563721734570    -0.429897124645    -0.029561599773    12.000000000000
         C            0.268046734570     0.933068975355    -0.008306099773    12.000000000000
         C           -1.016141265430     1.430730875355     0.035147400227    12.000000000000
         C            2.445085734570     0.696509875355    -0.069952599773    12.000000000000
         C           -1.567034265430    -1.019026124645     0.018772400227    12.000000000000
         C            2.641392734570    -1.838302124645    -0.065551599773    12.000000000000
         H            3.515284734570     0.866099875355    -0.086638599773     1.007825032230
         H            2.378957734570    -2.423407124645     0.817716400227     1.007825032230
         H            2.385495734570    -2.407059124645    -0.960538599773     1.007825032230
         H            3.710162734570    -1.623567124645    -0.059265599773     1.007825032230
         H           -2.881958265430     0.576165875355     0.169284400227     1.007825032230
         H           -2.319780265430    -2.860674124645    -0.064271599773     1.007825032230
         H           -3.453670265430    -1.665619124645    -0.417382599773     1.007825032230

  Basis Set: AUG-CC-PVTZ
    Blend: AUG-CC-PVTZ
  Basis Set: (AUG-CC-PVTZ AUX)
    Blend: AUG-CC-PVTZ-JKFIT
	 Reference Energy          =    -578.6154066552592212 [Eh]
	 Singles Energy            =      -0.0000000000000000 [Eh]
	 Same-Spin Energy          =      -0.6159568756131959 [Eh]
	 Opposite-Spin Energy      =      -1.8212812389039850 [Eh]
	 Correlation Energy        =      -2.4372381145171809 [Eh]
	 Total Energy              =    -581.0526447697764070 [Eh]

	 ================> DF-SCS-MP2 Energies <==================
	-----------------------------------------------------------
	 SCS Same-Spin Scale       =       0.3333333333333333 [-]
	 SCS Opposite-Spin Scale   =       1.2000000000000000 [-]
	 SCS Same-Spin Energy      =      -0.2053189585377320 [Eh]
	 SCS Opposite-Spin Energy  =      -2.1855374866847819 [Eh]
	 SCS Correlation Energy    =      -2.3908564452225138 [Eh]
	 SCS Total Energy          =    -581.0062631004817604 [Eh]
	-----------------------------------------------------------

  Dipole Moment: [D]
     X:     0.0537      Y:    -6.7517      Z:    -0.9387     Total:     6.8169

*** Psi4 exiting successfully. Buy a developer a beer!
