                               Psi4 1.3.2 release

  ==> Input File <==

--------------------------------------------------------------------------
#psi4
#
memory 32 gb

molecule  {
0 1
  O       -1.4697740     2.5644010     0.0803940
  N        1.9191590    -0.5831280    -0.0556370
  N       -1.9102790     0.3061000     0.0485010
  N       -0.3427170    -1.4672350    -0.0387560
  N        1.5166440     1.6409000    -0.0105650
  N       -2.6294290    -1.9169300     0.1110730
  C        0.5576980    -0.4369160    -0.0295360
  C        0.4197779     0.9906670    -0.0094903
  C       -1.0221650     1.4237120     0.0351730
  C        2.4390620     0.6894910    -0.0699270
  C       -1.5730580    -1.0260450     0.0187980
  C        2.6353690    -1.8453210    -0.0655260
  H        3.5092610     0.8590810    -0.0866130
  H        2.3729340    -2.4304260     0.8177420
  H        2.3794720    -2.4140780    -0.9605130
  H        3.7041390    -1.6305860    -0.0592400
  H       -2.8879820     0.5691470     0.1693100
  H       -2.3258040    -2.8676930    -0.0642460
  H       -3.4596940    -1.6726380    -0.4173570
units angstrom
no_reorient  #important for SAPT in psi4, default
symmetry c1  #important for SAPT in psi4, default
}

set PROPERTIES_ORIGIN ["COM"]
properties('MP2/aug-cc-pvtz', properties = ['dipole'])
--------------------------------------------------------------------------

    Molecular point group: c1
  Charge       = 0
  Multiplicity = 1
  Basis Set: AUG-CC-PVTZ
    Blend: AUG-CC-PVTZ
  Basis Set: (AUG-CC-PVTZ AUX)
    Blend: AUG-CC-PVTZ-JKFIT

    Orbital Energies [Eh]
    ---------------------

    Doubly Occupied:

       1A    -20.523313     2A    -15.635645     3A    -15.631196
       4A    -15.609857     5A    -15.570899     6A    -15.556044
       7A    -11.394221     8A    -11.368036     9A    -11.312235
      10A    -11.302659    11A    -11.288448    12A    -11.252668
      13A     -1.391293    14A     -1.366023    15A     -1.335964
      16A     -1.229615    17A     -1.217193    18A     -1.199344
      19A     -1.017494    20A     -0.987372    21A     -0.895610
      22A     -0.880611    23A     -0.809127    24A     -0.764636
      25A     -0.745334    26A     -0.729290    27A     -0.691776
      28A     -0.670457    29A     -0.644518    30A     -0.643111
      31A     -0.625842    32A     -0.610366    33A     -0.595229
      34A     -0.577033    35A     -0.566440    36A     -0.540770
      37A     -0.498720    38A     -0.460608    39A     -0.447837
      40A     -0.430650    41A     -0.417834    42A     -0.402366
      43A     -0.283217

  @DF-RHF Final Energy:  -578.61494864515066

   => Energetics <=

    Nuclear Repulsion Energy =            693.0952019107226079
    One-Electron Energy =               -2163.1784985848712495
    Two-Electron Energy =                 891.4683480289979798
    Total Energy =                       -578.6149486451506618
  Basis Set: (AUG-CC-PVTZ AUX)
    Blend: AUG-CC-PVTZ-RI
    Molecular point group: c1

    Geometry (in Angstrom), charge = 0, multiplicity = 1:

       Center              X                  Y                   Z               Mass
    ------------   -----------------  -----------------  -----------------  -----------------
         O           -1.476027478449     2.560693943146     0.080400250500    15.994914619570
         N            1.912905521551    -0.586835056854    -0.055630749500    14.003074004430
         N           -1.916532478449     0.302392943146     0.048507250500    14.003074004430
         N           -0.348970478449    -1.470942056854    -0.038749749500    14.003074004430
         N            1.510390521551     1.637192943146    -0.010558749500    14.003074004430
         N           -2.635682478449    -1.920637056854     0.111079250500    14.003074004430
         C            0.551444521551    -0.440623056854    -0.029529749500    12.000000000000
         C            0.413524421551     0.986959943146    -0.009484049500    12.000000000000
         C           -1.028418478449     1.420004943146     0.035179250500    12.000000000000
         C            2.432808521551     0.685783943146    -0.069920749500    12.000000000000
         C           -1.579311478449    -1.029752056854     0.018804250500    12.000000000000
         C            2.629115521551    -1.849028056854    -0.065519749500    12.000000000000
         H            3.503007521551     0.855373943146    -0.086606749500     1.007825032230
         H            2.366680521551    -2.434133056854     0.817748250500     1.007825032230
         H            2.373218521551    -2.417785056854    -0.960506749500     1.007825032230
         H            3.697885521551    -1.634293056854    -0.059233749500     1.007825032230
         H           -2.894235478449     0.565439943146     0.169316250500     1.007825032230
         H           -2.332057478449    -2.871400056854    -0.064239749500     1.007825032230
         H           -3.465947478449    -1.676345056854    -0.417350749500     1.007825032230

  Basis Set: AUG-CC-PVTZ
    Blend: AUG-CC-PVTZ
  Basis Set: (AUG-CC-PVTZ AUX)
    Blend: AUG-CC-PVTZ-JKFIT
	 Reference Energy          =    -578.6149486451506618 [Eh]
	 Singles Energy            =      -0.0000000000000000 [Eh]
	 Same-Spin Energy          =      -0.6177757904603144 [Eh]
	 Opposite-Spin Energy      =      -1.8210591991223231 [Eh]
	 Correlation Energy        =      -2.4388349895826376 [Eh]
	 Total Energy              =    -581.0537836347333496 [Eh]

	 ================> DF-SCS-MP2 Energies <==================
	-----------------------------------------------------------
	 SCS Same-Spin Scale       =       0.3333333333333333 [-]
	 SCS Opposite-Spin Scale   =       1.2000000000000000 [-]
	 SCS Same-Spin Energy      =      -0.2059252634867715 [Eh]
	 SCS Opposite-Spin Energy  =      -2.1852710389467878 [Eh]
	 SCS Correlation Energy    =      -2.3911963024335594 [Eh]
	 SCS Total Energy          =    -581.0061449475841755 [Eh]
	-----------------------------------------------------------

  Dipole Moment: [D]
     X:    -0.0156      Y:    -6.6319      Z:    -0.9347     Total:     6.6974

*** Psi4 exiting successfully. Buy a developer a beer!
