                               Psi4 1.3.2 release

  ==> Input File <==

--------------------------------------------------------------------------
#psi4
#
memory 32 gb

molecule  {
0 1
  O       -1.4697740     2.5644010     0.0803940
  N        1.9191590    -0.5831280    -0.0556370
  N       -1.8401478     0.3219722     0.0456920
  N       -0.3213009    -1.4021737    -0.0389214
  N        1.5166440     1.6409000    -0.0105650
  N       -2.6294290    -1.9169300     0.1110730
  C        0.5576980    -0.4369160    -0.0295360
  C        0.3337570     0.9396730    -0.0094060
  C       -1.0221650     1.4237120     0.0351730
  C        2.4390620     0.6894910    -0.0699270
  C       -1.5730580    -1.0260450     0.0187980
  C        2.6353690    -1.8453210    -0.0655260
  H        3.5092610     0.8590810    -0.0866130
  H        2.3729340    -2.4304260     0.8177420
  H        2.3794720    -2.4140780    -0.9605130
  H        3.7041390    -1.6305860    -0.0592400
  H       -2.8879820     0.5691470     0.1693100
  H       -2.3258040    -2.8676930    -0.0642460
  H       -3.4596940    -1.6726380    -0.4173570
units angstrom
no_reorient  #important for SAPT in psi4, default
symmetry c1  #important for SAPT in psi4, default
}

set PROPERTIES_ORIGIN ["COM"]
properties('MP2/aug-cc-pvtz', properties = ['dipole'])
--------------------------------------------------------------------------

    Molecular point group: c1
  Charge       = 0
  Multiplicity = 1
  Basis Set: AUG-CC-PVTZ
    Blend: AUG-CC-PVTZ
  Basis Set: (AUG-CC-PVTZ AUX)
    Blend: AUG-CC-PVTZ-JKFIT

    Orbital Energies [Eh]
    ---------------------

    Doubly Occupied:

       1A    -20.511572     2A    -15.635409     3A    -15.628444
       4A    -15.620126     5A    -15.565223     6A    -15.555402
       7A    -11.400231     8A    -11.355536     9A    -11.311393
      10A    -11.304710    11A    -11.287797    12A    -11.241000
      13A     -1.395585    14A     -1.358822    15A     -1.334655
      16A     -1.232275    17A     -1.221903    18A     -1.188358
      19A     -1.030121    20A     -0.984152    21A     -0.904978
      22A     -0.892644    23A     -0.813221    24A     -0.765125
      25A     -0.738319    26A     -0.727485    27A     -0.699702
      28A     -0.673593    29A     -0.649006    30A     -0.644446
      31A     -0.632209    32A     -0.608079    33A     -0.586332
      34A     -0.577734    35A     -0.559491    36A     -0.545209
      37A     -0.487235    38A     -0.467776    39A     -0.434606
      40A     -0.427784    41A     -0.421817    42A     -0.389651
      43A     -0.291818

  @DF-RHF Final Energy:  -578.61862686659492

   => Energetics <=

    Nuclear Repulsion Energy =            696.6222849628981066
    One-Electron Energy =               -2170.2798745609147772
    Two-Electron Energy =                 895.0389627314218615
    Total Energy =                       -578.6186268665949228
  Basis Set: (AUG-CC-PVTZ AUX)
    Blend: AUG-CC-PVTZ-RI
    Molecular point group: c1

    Geometry (in Angstrom), charge = 0, multiplicity = 1:

       Center              X                  Y                   Z               Mass
    ------------   -----------------  -----------------  -----------------  -----------------
         O           -1.477540171789     2.557535250505     0.080646451261    15.994914619570
         N            1.911392828211    -0.589993749495    -0.055384548739    14.003074004430
         N           -1.847913971789     0.315106450505     0.045944451261    14.003074004430
         N           -0.329067071789    -1.409039449495    -0.038668948739    14.003074004430
         N            1.508877828211     1.634034250505    -0.010312548739    14.003074004430
         N           -2.637195171789    -1.923795749495     0.111325451261    14.003074004430
         C            0.549931828211    -0.443781749495    -0.029283548739    12.000000000000
         C            0.325990828211     0.932807250505    -0.009153548739    12.000000000000
         C           -1.029931171789     1.416846250505     0.035425451261    12.000000000000
         C            2.431295828211     0.682625250505    -0.069674548739    12.000000000000
         C           -1.580824171789    -1.032910749495     0.019050451261    12.000000000000
         C            2.627602828211    -1.852186749495    -0.065273548739    12.000000000000
         H            3.501494828211     0.852215250505    -0.086360548739     1.007825032230
         H            2.365167828211    -2.437291749495     0.817994451261     1.007825032230
         H            2.371705828211    -2.420943749495    -0.960260548739     1.007825032230
         H            3.696372828211    -1.637451749495    -0.058987548739     1.007825032230
         H           -2.895748171789     0.562281250505     0.169562451261     1.007825032230
         H           -2.333570171789    -2.874558749495    -0.063993548739     1.007825032230
         H           -3.467460171789    -1.679503749495    -0.417104548739     1.007825032230

  Basis Set: AUG-CC-PVTZ
    Blend: AUG-CC-PVTZ
  Basis Set: (AUG-CC-PVTZ AUX)
    Blend: AUG-CC-PVTZ-JKFIT
	 Reference Energy          =    -578.6186268665949228 [Eh]
	 Singles Energy            =      -0.0000000000000000 [Eh]
	 Same-Spin Energy          =      -0.6177616619774168 [Eh]
	 Opposite-Spin Energy      =      -1.8204326870065555 [Eh]
	 Correlation Energy        =      -2.4381943489839721 [Eh]
	 Total Energy              =    -581.0568212155789070 [Eh]

	 ================> DF-SCS-MP2 Energies <==================
	-----------------------------------------------------------
	 SCS Same-Spin Scale       =       0.3333333333333333 [-]
	 SCS Opposite-Spin Scale   =       1.2000000000000000 [-]
	 SCS Same-Spin Energy      =      -0.2059205539924722 [Eh]
	 SCS Opposite-Spin Energy  =      -2.1845192244078664 [Eh]
	 SCS Correlation Energy    =      -2.3904397784003386 [Eh]
	 SCS Total Energy          =    -581.0090666449953005 [Eh]
	-----------------------------------------------------------

  Dipole Moment: [D]
     X:    -0.2501      Y:    -7.2505      Z:    -0.9472     Total:     7.3163

*** Psi4 exiting successfully. Buy a developer a beer!
