                               Psi4 1.3.2 release

  ==> Input File <==

--------------------------------------------------------------------------
#psi4
#
memory 32 gb

molecule  {
0 1
  O       -1.4697740     2.5644010     0.0803940
  N        1.9191590    -0.5831280    -0.0556370
  N       -1.8636158     0.3170900     0.0466369
  N       -0.3280611    -1.4239842    -0.0388838
  N        1.5166440     1.6409000    -0.0105650
  N       -2.6294290    -1.9169300     0.1110730
  C        0.5576980    -0.4369160    -0.0295360
  C        0.3337570     0.9396730    -0.0094060
  C       -1.0221650     1.4237120     0.0351730
  C        2.4390620     0.6894910    -0.0699270
  C       -1.5730580    -1.0260450     0.0187980
  C        2.6353690    -1.8453210    -0.0655260
  H        3.5092610     0.8590810    -0.0866130
  H        2.3729340    -2.4304260     0.8177420
  H        2.3794720    -2.4140780    -0.9605130
  H        3.7041390    -1.6305860    -0.0592400
  H       -2.8879820     0.5691470     0.1693100
  H       -2.3258040    -2.8676930    -0.0642460
  H       -3.4596940    -1.6726380    -0.4173570
units angstrom
no_reorient  #important for SAPT in psi4, default
symmetry c1  #important for SAPT in psi4, default
}

set PROPERTIES_ORIGIN ["COM"]
properties('MP2/aug-cc-pvtz', properties = ['dipole'])
--------------------------------------------------------------------------

    Molecular point group: c1
  Charge       = 0
  Multiplicity = 1
  Basis Set: AUG-CC-PVTZ
    Blend: AUG-CC-PVTZ
  Basis Set: (AUG-CC-PVTZ AUX)
    Blend: AUG-CC-PVTZ-JKFIT

    Orbital Energies [Eh]
    ---------------------

    Doubly Occupied:

       1A    -20.514686     2A    -15.633416     3A    -15.629922
       4A    -15.617046     5A    -15.567055     6A    -15.556771
       7A    -11.398765     8A    -11.358465     9A    -11.314057
      10A    -11.305486    11A    -11.288302    12A    -11.242895
      13A     -1.393554    14A     -1.359347    15A     -1.334518
      16A     -1.227638    17A     -1.220010    18A     -1.189144
      19A     -1.029601    20A     -0.984890    21A     -0.903551
      22A     -0.889259    23A     -0.811294    24A     -0.765598
      25A     -0.735681    26A     -0.731520    27A     -0.697176
      28A     -0.672564    29A     -0.649023    30A     -0.644446
      31A     -0.630469    32A     -0.608923    33A     -0.589030
      34A     -0.578018    35A     -0.559941    36A     -0.543866
      37A     -0.489464    38A     -0.464929    39A     -0.436494
      40A     -0.428304    41A     -0.424381    42A     -0.390653
      43A     -0.293982

  @DF-RHF Final Energy:  -578.62545457938927

   => Energetics <=

    Nuclear Repulsion Energy =            695.5452709631100561
    One-Electron Energy =               -2168.1331841337610058
    Two-Electron Energy =                 893.9624585912617931
    Total Energy =                       -578.6254545793892703
  Basis Set: (AUG-CC-PVTZ AUX)
    Blend: AUG-CC-PVTZ-RI
    Molecular point group: c1

    Geometry (in Angstrom), charge = 0, multiplicity = 1:

       Center              X                  Y                   Z               Mass
    ------------   -----------------  -----------------  -----------------  -----------------
         O           -1.474975802795     2.559799690077     0.080563102185    15.994914619570
         N            1.913957197205    -0.587729309923    -0.055467897815    14.003074004430
         N           -1.868817602795     0.312488690077     0.046806002185    14.003074004430
         N           -0.333262902795    -1.428585509923    -0.038714697815    14.003074004430
         N            1.511442197205     1.636298690077    -0.010395897815    14.003074004430
         N           -2.634630802795    -1.921531309923     0.111242102185    14.003074004430
         C            0.552496197205    -0.441517309923    -0.029366897815    12.000000000000
         C            0.328555197205     0.935071690077    -0.009236897815    12.000000000000
         C           -1.027366802795     1.419110690077     0.035342102185    12.000000000000
         C            2.433860197205     0.684889690077    -0.069757897815    12.000000000000
         C           -1.578259802795    -1.030646309923     0.018967102185    12.000000000000
         C            2.630167197205    -1.849922309923    -0.065356897815    12.000000000000
         H            3.504059197205     0.854479690077    -0.086443897815     1.007825032230
         H            2.367732197205    -2.435027309923     0.817911102185     1.007825032230
         H            2.374270197205    -2.418679309923    -0.960343897815     1.007825032230
         H            3.698937197205    -1.635187309923    -0.059070897815     1.007825032230
         H           -2.893183802795     0.564545690077     0.169479102185     1.007825032230
         H           -2.331005802795    -2.872294309923    -0.064076897815     1.007825032230
         H           -3.464895802795    -1.677239309923    -0.417187897815     1.007825032230

  Basis Set: AUG-CC-PVTZ
    Blend: AUG-CC-PVTZ
  Basis Set: (AUG-CC-PVTZ AUX)
    Blend: AUG-CC-PVTZ-JKFIT
	 Reference Energy          =    -578.6254545793892703 [Eh]
	 Singles Energy            =      -0.0000000000000000 [Eh]
	 Same-Spin Energy          =      -0.6170904173174971 [Eh]
	 Opposite-Spin Energy      =      -1.8200103586673904 [Eh]
	 Correlation Energy        =      -2.4371007759848875 [Eh]
	 Total Energy              =    -581.0625553553741156 [Eh]

	 ================> DF-SCS-MP2 Energies <==================
	-----------------------------------------------------------
	 SCS Same-Spin Scale       =       0.3333333333333333 [-]
	 SCS Opposite-Spin Scale   =       1.2000000000000000 [-]
	 SCS Same-Spin Energy      =      -0.2056968057724990 [Eh]
	 SCS Opposite-Spin Energy  =      -2.1840124304008683 [Eh]
	 SCS Correlation Energy    =      -2.3897092361733674 [Eh]
	 SCS Total Energy          =    -581.0151638155626870 [Eh]
	-----------------------------------------------------------

  Dipole Moment: [D]
     X:    -0.1815      Y:    -7.0976      Z:    -0.9437     Total:     7.1624

*** Psi4 exiting successfully. Buy a developer a beer!
