                               Psi4 1.3.2 release

  ==> Input File <==

--------------------------------------------------------------------------
#psi4
#
memory 32 gb

molecule  {
0 1
  O       -1.4697740     2.5644010     0.0803940
  N        1.9191590    -0.5831280    -0.0556370
  N       -1.9102790     0.3061000     0.0485010
  N       -0.3427170    -1.4672350    -0.0387560
  N        1.5166440     1.6409000    -0.0105650
  N       -2.6294290    -1.9169300     0.1110730
  C        0.5576980    -0.4369160    -0.0295360
  C        0.3337570     0.9396730    -0.0094060
  C       -1.0124537     1.4159204     0.0347465
  C        2.4390620     0.6894910    -0.0699270
  C       -1.5614495    -1.0230449     0.0184609
  C        2.6353690    -1.8453210    -0.0655260
  H        3.5092610     0.8590810    -0.0866130
  H        2.3729340    -2.4304260     0.8177420
  H        2.3794720    -2.4140780    -0.9605130
  H        3.7041390    -1.6305860    -0.0592400
  H       -2.8879820     0.5691470     0.1693100
  H       -2.3258040    -2.8676930    -0.0642460
  H       -3.4596940    -1.6726380    -0.4173570
units angstrom
no_reorient  #important for SAPT in psi4, default
symmetry c1  #important for SAPT in psi4, default
}

set PROPERTIES_ORIGIN ["COM"]
properties('MP2/aug-cc-pvtz', properties = ['dipole'])
--------------------------------------------------------------------------

    Molecular point group: c1
  Charge       = 0
  Multiplicity = 1
  Basis Set: AUG-CC-PVTZ
    Blend: AUG-CC-PVTZ
  Basis Set: (AUG-CC-PVTZ AUX)
    Blend: AUG-CC-PVTZ-JKFIT

    Orbital Energies [Eh]
    ---------------------

    Doubly Occupied:

       1A    -20.518384     2A    -15.634605     3A    -15.629671
       4A    -15.609019     5A    -15.572588     6A    -15.561078
       7A    -11.395551     8A    -11.363779     9A    -11.321497
      10A    -11.309026    11A    -11.290636    12A    -11.248000
      13A     -1.388695    14A     -1.358884    15A     -1.332382
      16A     -1.218727    17A     -1.215620    18A     -1.192820
      19A     -1.032519    20A     -0.988391    21A     -0.903946
      22A     -0.881694    23A     -0.809010    24A     -0.768220
      25A     -0.742887    26A     -0.727629    27A     -0.690733
      28A     -0.672675    29A     -0.649617    30A     -0.642710
      31A     -0.627128    32A     -0.607005    33A     -0.595277
      34A     -0.579534    35A     -0.561691    36A     -0.539209
      37A     -0.496072    38A     -0.459144    39A     -0.439434
      40A     -0.429491    41A     -0.428091    42A     -0.394176
      43A     -0.300922

  @DF-RHF Final Energy:  -578.62970710975765

   => Energetics <=

    Nuclear Repulsion Energy =            693.6939838016664908
    One-Electron Energy =               -2164.3910504004229551
    Two-Electron Energy =                 892.0673594889988181
    Total Energy =                       -578.6297071097576463
  Basis Set: (AUG-CC-PVTZ AUX)
    Blend: AUG-CC-PVTZ-RI
    Molecular point group: c1

    Geometry (in Angstrom), charge = 0, multiplicity = 1:

       Center              X                  Y                   Z               Mass
    ------------   -----------------  -----------------  -----------------  -----------------
         O           -1.471323798575     2.564749471315     0.080449634664    15.994914619570
         N            1.917609201425    -0.582779528685    -0.055581365336    14.003074004430
         N           -1.911828798575     0.306448471315     0.048556634664    14.003074004430
         N           -0.344266798575    -1.466886528685    -0.038700365336    14.003074004430
         N            1.515094201425     1.641248471315    -0.010509365336    14.003074004430
         N           -2.630978798575    -1.916581528685     0.111128634664    14.003074004430
         C            0.556148201425    -0.436567528685    -0.029480365336    12.000000000000
         C            0.332207201425     0.940021471315    -0.009350365336    12.000000000000
         C           -1.014003498575     1.416268871315     0.034802134664    12.000000000000
         C            2.437512201425     0.689839471315    -0.069871365336    12.000000000000
         C           -1.562999298575    -1.022696428685     0.018516534664    12.000000000000
         C            2.633819201425    -1.844972528685    -0.065470365336    12.000000000000
         H            3.507711201425     0.859429471315    -0.086557365336     1.007825032230
         H            2.371384201425    -2.430077528685     0.817797634664     1.007825032230
         H            2.377922201425    -2.413729528685    -0.960457365336     1.007825032230
         H            3.702589201425    -1.630237528685    -0.059184365336     1.007825032230
         H           -2.889531798575     0.569495471315     0.169365634664     1.007825032230
         H           -2.327353798575    -2.867344528685    -0.064190365336     1.007825032230
         H           -3.461243798575    -1.672289528685    -0.417301365336     1.007825032230

  Basis Set: AUG-CC-PVTZ
    Blend: AUG-CC-PVTZ
  Basis Set: (AUG-CC-PVTZ AUX)
    Blend: AUG-CC-PVTZ-JKFIT
	 Reference Energy          =    -578.6297071097576463 [Eh]
	 Singles Energy            =      -0.0000000000000000 [Eh]
	 Same-Spin Energy          =      -0.6161888848253393 [Eh]
	 Opposite-Spin Energy      =      -1.8201527215012177 [Eh]
	 Correlation Energy        =      -2.4363416063265571 [Eh]
	 Total Energy              =    -581.0660487160841967 [Eh]

	 ================> DF-SCS-MP2 Energies <==================
	-----------------------------------------------------------
	 SCS Same-Spin Scale       =       0.3333333333333333 [-]
	 SCS Opposite-Spin Scale   =       1.2000000000000000 [-]
	 SCS Same-Spin Energy      =      -0.2053962949417797 [Eh]
	 SCS Opposite-Spin Energy  =      -2.1841832658014613 [Eh]
	 SCS Correlation Energy    =      -2.3895795607432411 [Eh]
	 SCS Total Energy          =    -581.0192866705008328 [Eh]
	-----------------------------------------------------------

  Dipole Moment: [D]
     X:     0.1569      Y:    -6.8390      Z:    -0.9454     Total:     6.9059

*** Psi4 exiting successfully. Buy a developer a beer!
