                               Psi4 1.3.2 release

  ==> Input File <==

--------------------------------------------------------------------------
#psi4
#
memory 32 gb

molecule  {
0 1
  O       -1.4697740     2.5644010     0.0803940
  N        1.9191590    -0.5831280    -0.0556370
  N       -1.9102790     0.3061000     0.0485010
  N       -0.3427170    -1.4672350    -0.0387560
  N        1.5166440     1.6409000    -0.0105650
  N       -2.6294290    -1.9169300     0.1110730
  C        0.5576980    -0.4369160    -0.0295360
  C        0.3337570     0.9396730    -0.0094060
  C       -1.0221650     1.4237120     0.0351730
  C        2.4390620     0.6894910    -0.0699270
  C       -1.5730580    -1.0260450     0.0187980
  C        2.6353690    -1.8453210    -0.0655260
  H        3.5092610     0.8590810    -0.0866130
  H        2.3729340    -2.4304260     0.8177420
  H        2.3794720    -2.4140780    -0.9605130
  H        3.7041390    -1.6305860    -0.0592400
  H       -2.8879820     0.5691470     0.1693100
  H       -2.3857291    -2.6800452    -0.0296441
  H       -3.4596940    -1.6726380    -0.4173570
units angstrom
no_reorient  #important for SAPT in psi4, default
symmetry c1  #important for SAPT in psi4, default
}

set PROPERTIES_ORIGIN ["COM"]
properties('MP2/aug-cc-pvtz', properties = ['dipole'])
--------------------------------------------------------------------------

    Molecular point group: c1
  Charge       = 0
  Multiplicity = 1
  Basis Set: AUG-CC-PVTZ
    Blend: AUG-CC-PVTZ
  Basis Set: (AUG-CC-PVTZ AUX)
    Blend: AUG-CC-PVTZ-JKFIT

    Orbital Energies [Eh]
    ---------------------

    Doubly Occupied:

       1A    -20.521464     2A    -15.633514     3A    -15.629945
       4A    -15.590723     5A    -15.572401     6A    -15.560177
       7A    -11.397099     8A    -11.364856     9A    -11.319971
      10A    -11.307939    11A    -11.289631    12A    -11.247856
      13A     -1.392635    14A     -1.361455    15A     -1.343143
      16A     -1.249229    17A     -1.217424    18A     -1.191348
      19A     -1.034075    20A     -0.987179    21A     -0.906626
      22A     -0.892975    23A     -0.810941    24A     -0.773246
      25A     -0.751431    26A     -0.739410    27A     -0.717138
      28A     -0.672262    29A     -0.652276    30A     -0.643259
      31A     -0.628013    32A     -0.611512    33A     -0.594362
      34A     -0.578969    35A     -0.562463    36A     -0.542929
      37A     -0.494499    38A     -0.463345    39A     -0.440534
      40A     -0.430055    41A     -0.429719    42A     -0.393291
      43A     -0.299473

  @DF-RHF Final Energy:  -578.58491066533213

   => Energetics <=

    Nuclear Repulsion Energy =            694.7243900810054811
    One-Electron Energy =               -2166.1370155605200125
    Two-Electron Energy =                 892.8277148141825137
    Total Energy =                       -578.5849106653321314
  Basis Set: (AUG-CC-PVTZ AUX)
    Blend: AUG-CC-PVTZ-RI
    Molecular point group: c1

    Geometry (in Angstrom), charge = 0, multiplicity = 1:

       Center              X                  Y                   Z               Mass
    ------------   -----------------  -----------------  -----------------  -----------------
         O           -1.469407998732     2.563255429207     0.080182855850    15.994914619570
         N            1.919525001268    -0.584273570793    -0.055848144150    14.003074004430
         N           -1.909912998732     0.304954429207     0.048289855850    14.003074004430
         N           -0.342350998732    -1.468380570793    -0.038967144150    14.003074004430
         N            1.517010001268     1.639754429207    -0.010776144150    14.003074004430
         N           -2.629062998732    -1.918075570793     0.110861855850    14.003074004430
         C            0.558064001268    -0.438061570793    -0.029747144150    12.000000000000
         C            0.334123001268     0.938527429207    -0.009617144150    12.000000000000
         C           -1.021798998732     1.422566429207     0.034961855850    12.000000000000
         C            2.439428001268     0.688345429207    -0.070138144150    12.000000000000
         C           -1.572691998732    -1.027190570793     0.018586855850    12.000000000000
         C            2.635735001268    -1.846466570793    -0.065737144150    12.000000000000
         H            3.509627001268     0.857935429207    -0.086824144150     1.007825032230
         H            2.373300001268    -2.431571570793     0.817530855850     1.007825032230
         H            2.379838001268    -2.415223570793    -0.960724144150     1.007825032230
         H            3.704505001268    -1.631731570793    -0.059451144150     1.007825032230
         H           -2.887615998732     0.568001429207     0.169098855850     1.007825032230
         H           -2.385363098732    -2.681190770793    -0.029855244150     1.007825032230
         H           -3.459327998732    -1.673783570793    -0.417568144150     1.007825032230

  Basis Set: AUG-CC-PVTZ
    Blend: AUG-CC-PVTZ
  Basis Set: (AUG-CC-PVTZ AUX)
    Blend: AUG-CC-PVTZ-JKFIT
	 Reference Energy          =    -578.5849106653321314 [Eh]
	 Singles Energy            =      -0.0000000000000000 [Eh]
	 Same-Spin Energy          =      -0.6150576161039190 [Eh]
	 Opposite-Spin Energy      =      -1.8172869171084440 [Eh]
	 Correlation Energy        =      -2.4323445332123628 [Eh]
	 Total Energy              =    -581.0172551985444898 [Eh]

	 ================> DF-SCS-MP2 Energies <==================
	-----------------------------------------------------------
	 SCS Same-Spin Scale       =       0.3333333333333333 [-]
	 SCS Opposite-Spin Scale   =       1.2000000000000000 [-]
	 SCS Same-Spin Energy      =      -0.2050192053679730 [Eh]
	 SCS Opposite-Spin Energy  =      -2.1807443005301326 [Eh]
	 SCS Correlation Energy    =      -2.3857635058981055 [Eh]
	 SCS Total Energy          =    -580.9706741712302573 [Eh]
	-----------------------------------------------------------

  Dipole Moment: [D]
     X:    -0.0175      Y:    -6.5977      Z:    -0.9317     Total:     6.6631

*** Psi4 exiting successfully. Buy a developer a beer!
