                               Psi4 1.3.2 release

  ==> Input File <==

--------------------------------------------------------------------------
#psi4
#
memory 32 gb

molecule  {
0 1
  O       -1.4697740     2.5644010     0.0803940
  N        1.9191590    -0.5831280    -0.0556370
  N       -1.9102790     0.3061000     0.0485010
  N       -0.3427170    -1.4672350    -0.0387560
  N        1.5166440     1.6409000    -0.0105650
  N       -2.6294290    -1.9169300     0.1110730
  C        0.5576980    -0.4369160    -0.0295360
  C        0.3337570     0.9396730    -0.0094060
  C       -1.0221650     1.4237120     0.0351730
  C        2.4390620     0.6894910    -0.0699270
  C       -1.4790182    -1.0597669     0.0143989
  C        2.6353690    -1.8453210    -0.0655260
  H        3.5092610     0.8590810    -0.0866130
  H        2.3729340    -2.4304260     0.8177420
  H        2.3794720    -2.4140780    -0.9605130
  H        3.7041390    -1.6305860    -0.0592400
  H       -2.8879820     0.5691470     0.1693100
  H       -2.3258040    -2.8676930    -0.0642460
  H       -3.4596940    -1.6726380    -0.4173570
units angstrom
no_reorient  #important for SAPT in psi4, default
symmetry c1  #important for SAPT in psi4, default
}

set PROPERTIES_ORIGIN ["COM"]
properties('MP2/aug-cc-pvtz', properties = ['dipole'])
--------------------------------------------------------------------------

    Molecular point group: c1
  Charge       = 0
  Multiplicity = 1
  Basis Set: AUG-CC-PVTZ
    Blend: AUG-CC-PVTZ
  Basis Set: (AUG-CC-PVTZ AUX)
    Blend: AUG-CC-PVTZ-JKFIT

    Orbital Energies [Eh]
    ---------------------

    Doubly Occupied:

       1A    -20.519609     2A    -15.639982     3A    -15.618341
       4A    -15.598447     5A    -15.576892     6A    -15.564739
       7A    -11.387218     8A    -11.361131     9A    -11.324867
      10A    -11.311905    11A    -11.294303    12A    -11.254650
      13A     -1.393401    14A     -1.364954    15A     -1.339260
      16A     -1.225984    17A     -1.201385    18A     -1.194103
      19A     -1.037595    20A     -0.990473    21A     -0.904763
      22A     -0.870252    23A     -0.814012    24A     -0.769834
      25A     -0.739832    26A     -0.716796    27A     -0.682892
      28A     -0.676059    29A     -0.655615    30A     -0.637120
      31A     -0.628123    32A     -0.611929    33A     -0.596444
      34A     -0.583739    35A     -0.562678    36A     -0.545348
      37A     -0.502037    38A     -0.458599    39A     -0.441801
      40A     -0.430038    41A     -0.423375    42A     -0.397906
      43A     -0.311167

  @DF-RHF Final Energy:  -578.61577577265075

   => Energetics <=

    Nuclear Repulsion Energy =            694.2717548598842541
    One-Electron Energy =               -2165.4558664778642196
    Two-Electron Energy =                 892.5683358453291021
    Total Energy =                       -578.6157757726507498
  Basis Set: (AUG-CC-PVTZ AUX)
    Blend: AUG-CC-PVTZ-RI
    Molecular point group: c1

    Geometry (in Angstrom), charge = 0, multiplicity = 1:

       Center              X                  Y                   Z               Mass
    ------------   -----------------  -----------------  -----------------  -----------------
         O           -1.476610441313     2.566852671110     0.080713930452    15.994914619570
         N            1.912322558687    -0.580676328890    -0.055317069548    14.003074004430
         N           -1.917115441313     0.308551671110     0.048820930452    14.003074004430
         N           -0.349553441313    -1.464783328890    -0.038436069548    14.003074004430
         N            1.509807558687     1.643351671110    -0.010245069548    14.003074004430
         N           -2.636265441313    -1.914478328890     0.111392930452    14.003074004430
         C            0.550861558687    -0.434464328890    -0.029216069548    12.000000000000
         C            0.326920558687     0.942124671110    -0.009086069548    12.000000000000
         C           -1.029001441313     1.426163671110     0.035492930452    12.000000000000
         C            2.432225558687     0.691942671110    -0.069607069548    12.000000000000
         C           -1.485854641313    -1.057315228890     0.014718830452    12.000000000000
         C            2.628532558687    -1.842869328890    -0.065206069548    12.000000000000
         H            3.502424558687     0.861532671110    -0.086293069548     1.007825032230
         H            2.366097558687    -2.427974328890     0.818061930452     1.007825032230
         H            2.372635558687    -2.411626328890    -0.960193069548     1.007825032230
         H            3.697302558687    -1.628134328890    -0.058920069548     1.007825032230
         H           -2.894818441313     0.571598671110     0.169629930452     1.007825032230
         H           -2.332640441313    -2.865241328890    -0.063926069548     1.007825032230
         H           -3.466530441313    -1.670186328890    -0.417037069548     1.007825032230

  Basis Set: AUG-CC-PVTZ
    Blend: AUG-CC-PVTZ
  Basis Set: (AUG-CC-PVTZ AUX)
    Blend: AUG-CC-PVTZ-JKFIT
	 Reference Energy          =    -578.6157757726507498 [Eh]
	 Singles Energy            =      -0.0000000000000000 [Eh]
	 Same-Spin Energy          =      -0.6150850214832158 [Eh]
	 Opposite-Spin Energy      =      -1.8192988299189945 [Eh]
	 Correlation Energy        =      -2.4343838514022105 [Eh]
	 Total Energy              =    -581.0501596240529807 [Eh]

	 ================> DF-SCS-MP2 Energies <==================
	-----------------------------------------------------------
	 SCS Same-Spin Scale       =       0.3333333333333333 [-]
	 SCS Opposite-Spin Scale   =       1.2000000000000000 [-]
	 SCS Same-Spin Energy      =      -0.2050283404944052 [Eh]
	 SCS Opposite-Spin Energy  =      -2.1831585959027935 [Eh]
	 SCS Correlation Energy    =      -2.3881869363971986 [Eh]
	 SCS Total Energy          =    -581.0039627090479826 [Eh]
	-----------------------------------------------------------

  Dipole Moment: [D]
     X:     0.7602      Y:    -6.7830      Z:    -0.9759     Total:     6.8949

*** Psi4 exiting successfully. Buy a developer a beer!
