                               Psi4 1.4a3.dev225

  ==> Input File <==

--------------------------------------------------------------------------
#psi4
#
memory 32 gb

molecule  {
0 1
  O        1.6617960     2.5152110     0.0229320
  N       -1.9329240    -0.4005880    -0.0147920
  N        1.9545050     0.2323110     0.0113410
  N        0.2669280    -1.4301930    -0.0208730
  N       -1.3834780     1.7915450    -0.0193170
  N        2.5221760    -2.0364130     0.0734370
  C       -0.5634760    -0.3442740    -0.0026930
  C       -0.2488450     1.0144850    -0.0147620
  C        1.1380320     1.4076430     0.0031510
  C       -2.3683130     0.9036150    -0.0164120
  C        1.5275980    -1.0721200    -0.0057920
  C       -2.7047436    -1.5710013     0.0322367
  H       -3.4247340     1.1445090    -0.0228960
  H       -2.2735910    -2.3629350    -0.6109560
  H       -2.7853950    -1.9995380     1.0543320
  H       -3.7366260    -1.3828770    -0.3245450
  H        2.9468270     0.4301980     0.1174830
  H        2.1372730    -2.9631930    -0.0801050
  H        3.3349710    -1.8642740    -0.5097710
units angstrom
no_reorient  #important for SAPT in psi4, default
symmetry c1  #important for SAPT in psi4, default
}

set PROPERTIES_ORIGIN ["COM"]
properties('MP2/aug-cc-pvtz', properties = ['dipole'])
--------------------------------------------------------------------------

    Molecular point group: c1
  Charge       = 0
  Multiplicity = 1
  Basis Set: AUG-CC-PVTZ
    Blend: AUG-CC-PVTZ
  Basis Set: (AUG-CC-PVTZ AUX)
    Blend: AUG-CC-PVTZ-JKFIT

    Orbital Energies [Eh]
    ---------------------

    Doubly Occupied:

       1A    -20.522525     2A    -15.633948     3A    -15.630425
       4A    -15.611422     5A    -15.572119     6A    -15.561885
       7A    -11.397097     8A    -11.366102     9A    -11.321366
      10A    -11.308771    11A    -11.288095    12A    -11.248877
      13A     -1.392613    14A     -1.365428    15A     -1.335744
      16A     -1.220133    17A     -1.217672    18A     -1.197565
      19A     -1.031012    20A     -0.985080    21A     -0.903551
      22A     -0.883093    23A     -0.808833    24A     -0.769731
      25A     -0.743656    26A     -0.729850    27A     -0.693025
      28A     -0.673031    29A     -0.657703    30A     -0.643093
      31A     -0.625056    32A     -0.613049    33A     -0.596517
      34A     -0.567530    35A     -0.556710    36A     -0.539874
      37A     -0.494522    38A     -0.461257    39A     -0.441526
      40A     -0.430783    41A     -0.430297    42A     -0.392278
      43A     -0.299957

  @DF-RHF Final Energy:  -578.62801032370055

   => Energetics <=

    Nuclear Repulsion Energy =            694.2583603032704787
    One-Electron Energy =               -2165.4471393682970302
    Two-Electron Energy =                 892.5607687413261147
    Total Energy =                       -578.6280103237005505
  Basis Set: (AUG-CC-PVTZ AUX)
    Blend: AUG-CC-PVTZ-RI
    Molecular point group: c1

    Geometry (in Angstrom), charge = 0, multiplicity = 1:

       Center              X                  Y                   Z               Mass
    ------------   -----------------  -----------------  -----------------  -----------------
         O            1.636971975584     2.458204152683     0.020791198189    15.994914619570
         N           -1.957748024416    -0.457594847317    -0.016932801811    14.003074004430
         N            1.929680975584     0.175304152683     0.009200198189    14.003074004430
         N            0.242103975584    -1.487199847317    -0.023013801811    14.003074004430
         N           -1.408302024416     1.734538152683    -0.021457801811    14.003074004430
         N            2.497351975584    -2.093419847317     0.071296198189    14.003074004430
         C           -0.588300024416    -0.401280847317    -0.004833801811    12.000000000000
         C           -0.273669024416     0.957478152683    -0.016902801811    12.000000000000
         C            1.113207975584     1.350636152683     0.001010198189    12.000000000000
         C           -2.393137024416     0.846608152683    -0.018552801811    12.000000000000
         C            1.502773975584    -1.129126847317    -0.007932801811    12.000000000000
         C           -2.729567624416    -1.628008147317     0.030095898189    12.000000000000
         H           -3.449558024416     1.087502152683    -0.025036801811     1.007825032230
         H           -2.298415024416    -2.419941847317    -0.613096801811     1.007825032230
         H           -2.810219024416    -2.056544847317     1.052191198189     1.007825032230
         H           -3.761450024416    -1.439883847317    -0.326685801811     1.007825032230
         H            2.922002975584     0.373191152683     0.115342198189     1.007825032230
         H            2.112448975584    -3.020199847317    -0.082245801811     1.007825032230
         H            3.310146975584    -1.921280847317    -0.511911801811     1.007825032230

  Basis Set: AUG-CC-PVTZ
    Blend: AUG-CC-PVTZ
  Basis Set: (AUG-CC-PVTZ AUX)
    Blend: AUG-CC-PVTZ-JKFIT
	 Reference Energy          =    -578.6280103237005505 [Eh]
	 Singles Energy            =      -0.0000000000000000 [Eh]
	 Same-Spin Energy          =      -0.6164290463602664 [Eh]
	 Opposite-Spin Energy      =      -1.8200038416134234 [Eh]
	 Correlation Energy        =      -2.4364328879736901 [Eh]
	 Total Energy              =    -581.0644432116741882 [Eh]

	 ================> DF-SCS-MP2 Energies <==================
	-----------------------------------------------------------
	 SCS Same-Spin Scale       =       0.3333333333333333 [-]
	 SCS Opposite-Spin Scale   =       1.2000000000000000 [-]
	 SCS Same-Spin Energy      =      -0.2054763487867555 [Eh]
	 SCS Opposite-Spin Energy  =      -2.1840046099361081 [Eh]
	 SCS Correlation Energy    =      -2.3894809587228636 [Eh]
	 SCS Total Energy          =    -581.0174912824234070 [Eh]
	-----------------------------------------------------------

  Dipole Moment: [D]
     X:    -0.4048      Y:    -6.6299      Z:    -0.8644     Total:     6.6983

*** Psi4 exiting successfully. Buy a developer a beer!
