                               Psi4 1.3.2 release

  ==> Input File <==

--------------------------------------------------------------------------
#psi4
#
memory 32 gb

molecule  {
0 1
  O       -1.4697740     2.5644010     0.0803940
  N        1.8750648    -0.5642033    -0.0550841
  N       -1.9102790     0.3061000     0.0485010
  N       -0.3427170    -1.4672350    -0.0387560
  N        1.5166440     1.6409000    -0.0105650
  N       -2.6294290    -1.9169300     0.1110730
  C        0.5576980    -0.4369160    -0.0295360
  C        0.3337570     0.9396730    -0.0094060
  C       -1.0221650     1.4237120     0.0351730
  C        2.4390620     0.6894910    -0.0699270
  C       -1.5730580    -1.0260450     0.0187980
  C        2.6353690    -1.8453210    -0.0655260
  H        3.5026882     0.8963311    -0.0867095
  H        2.3729340    -2.4304260     0.8177420
  H        2.3794720    -2.4140780    -0.9605130
  H        3.7041390    -1.6305860    -0.0592400
  H       -2.8879820     0.5691470     0.1693100
  H       -2.3258040    -2.8676930    -0.0642460
  H       -3.4596940    -1.6726380    -0.4173570
units angstrom
no_reorient  #important for SAPT in psi4, default
symmetry c1  #important for SAPT in psi4, default
}

set PROPERTIES_ORIGIN ["COM"]
properties('MP2/aug-cc-pvtz', properties = ['dipole'])
--------------------------------------------------------------------------

    Molecular point group: c1
  Charge       = 0
  Multiplicity = 1
  Basis Set: AUG-CC-PVTZ
    Blend: AUG-CC-PVTZ
  Basis Set: (AUG-CC-PVTZ AUX)
    Blend: AUG-CC-PVTZ-JKFIT

    Orbital Energies [Eh]
    ---------------------

    Doubly Occupied:

       1A    -20.518969     2A    -15.633900     3A    -15.627679
       4A    -15.610298     5A    -15.569501     6A    -15.559408
       7A    -11.395574     8A    -11.362168     9A    -11.314596
      10A    -11.303669    11A    -11.293545    12A    -11.242872
      13A     -1.391414    14A     -1.365523    15A     -1.333954
      16A     -1.218066    17A     -1.216153    18A     -1.185763
      19A     -1.031918    20A     -0.985145    21A     -0.901870
      22A     -0.881800    23A     -0.807524    24A     -0.767193
      25A     -0.742529    26A     -0.729612    27A     -0.691530
      28A     -0.672539    29A     -0.643696    30A     -0.642645
      31A     -0.625030    32A     -0.606169    33A     -0.593196
      34A     -0.584918    35A     -0.564411    36A     -0.541903
      37A     -0.491029    38A     -0.458597    39A     -0.438691
      40A     -0.428314    41A     -0.427876    42A     -0.392683
      43A     -0.298179

  @DF-RHF Final Energy:  -578.62876645250503

   => Energetics <=

    Nuclear Repulsion Energy =            694.3549916307459853
    One-Electron Energy =               -2165.7834170900446225
    Two-Electron Energy =                 892.7996590067934903
    Total Energy =                       -578.6287664525050332
  Basis Set: (AUG-CC-PVTZ AUX)
    Blend: AUG-CC-PVTZ-RI
    Molecular point group: c1

    Geometry (in Angstrom), charge = 0, multiplicity = 1:

       Center              X                  Y                   Z               Mass
    ------------   -----------------  -----------------  -----------------  -----------------
         O           -1.465993075169     2.562568249207     0.080347806666    15.994914619570
         N            1.878845724831    -0.566036050793    -0.055130293334    14.003074004430
         N           -1.906498075169     0.304267249207     0.048454806666    14.003074004430
         N           -0.338936075169    -1.469067750793    -0.038802193334    14.003074004430
         N            1.520424924831     1.639067249207    -0.010611193334    14.003074004430
         N           -2.625648075169    -1.918762750793     0.111026806666    14.003074004430
         C            0.561478924831    -0.438748750793    -0.029582193334    12.000000000000
         C            0.337537924831     0.937840249207    -0.009452193334    12.000000000000
         C           -1.018384075169     1.421879249207     0.035126806666    12.000000000000
         C            2.442842924831     0.687658249207    -0.069973193334    12.000000000000
         C           -1.569277075169    -1.027877750793     0.018751806666    12.000000000000
         C            2.639149924831    -1.847153750793    -0.065572193334    12.000000000000
         H            3.506469124831     0.894498349207    -0.086755693334     1.007825032230
         H            2.376714924831    -2.432258750793     0.817695806666     1.007825032230
         H            2.383252924831    -2.415910750793    -0.960559193334     1.007825032230
         H            3.707919924831    -1.632418750793    -0.059286193334     1.007825032230
         H           -2.884201075169     0.567314249207     0.169263806666     1.007825032230
         H           -2.322023075169    -2.869525750793    -0.064292193334     1.007825032230
         H           -3.455913075169    -1.674470750793    -0.417403193334     1.007825032230

  Basis Set: AUG-CC-PVTZ
    Blend: AUG-CC-PVTZ
  Basis Set: (AUG-CC-PVTZ AUX)
    Blend: AUG-CC-PVTZ-JKFIT
	 Reference Energy          =    -578.6287664525050332 [Eh]
	 Singles Energy            =      -0.0000000000000000 [Eh]
	 Same-Spin Energy          =      -0.6157953753033287 [Eh]
	 Opposite-Spin Energy      =      -1.8191089432508605 [Eh]
	 Correlation Energy        =      -2.4349043185541892 [Eh]
	 Total Energy              =    -581.0636707710592646 [Eh]

	 ================> DF-SCS-MP2 Energies <==================
	-----------------------------------------------------------
	 SCS Same-Spin Scale       =       0.3333333333333333 [-]
	 SCS Opposite-Spin Scale   =       1.2000000000000000 [-]
	 SCS Same-Spin Energy      =      -0.2052651251011096 [Eh]
	 SCS Opposite-Spin Energy  =      -2.1829307319010325 [Eh]
	 SCS Correlation Energy    =      -2.3881958570021422 [Eh]
	 SCS Total Energy          =    -581.0169623095072211 [Eh]
	-----------------------------------------------------------

  Dipole Moment: [D]
     X:     0.1287      Y:    -6.8671      Z:    -0.9411     Total:     6.9325

*** Psi4 exiting successfully. Buy a developer a beer!
