                               Psi4 1.3.2 release

  ==> Input File <==

--------------------------------------------------------------------------
#psi4
#
memory 32 gb

molecule  {
0 1
  O       -1.4697740     2.5644010     0.0803940
  N        1.9191590    -0.5831280    -0.0556370
  N       -1.9102790     0.3061000     0.0485010
  N       -0.3427170    -1.4672350    -0.0387560
  N        1.5166440     1.6409000    -0.0105650
  N       -2.6294290    -1.9169300     0.1110730
  C        0.5576980    -0.4369160    -0.0295360
  C        0.3337570     0.9396730    -0.0094060
  C       -1.2104328     1.4909201     0.0413627
  C        2.4390620     0.6894910    -0.0699270
  C       -1.5730580    -1.0260450     0.0187980
  C        2.6353690    -1.8453210    -0.0655260
  H        3.5092610     0.8590810    -0.0866130
  H        2.3729340    -2.4304260     0.8177420
  H        2.3794720    -2.4140780    -0.9605130
  H        3.7041390    -1.6305860    -0.0592400
  H       -2.8879820     0.5691470     0.1693100
  H       -2.3258040    -2.8676930    -0.0642460
  H       -3.4596940    -1.6726380    -0.4173570
units angstrom
no_reorient  #important for SAPT in psi4, default
symmetry c1  #important for SAPT in psi4, default
}

set PROPERTIES_ORIGIN ["COM"]
properties('MP2/aug-cc-pvtz', properties = ['dipole'])
--------------------------------------------------------------------------

    Molecular point group: c1
  Charge       = 0
  Multiplicity = 1
  Basis Set: AUG-CC-PVTZ
    Blend: AUG-CC-PVTZ
  Basis Set: (AUG-CC-PVTZ AUX)
    Blend: AUG-CC-PVTZ-JKFIT

    Orbital Energies [Eh]
    ---------------------

    Doubly Occupied:

       1A    -20.550934     2A    -15.632335     3A    -15.619051
       4A    -15.609082     5A    -15.565002     6A    -15.546537
       7A    -11.394794     8A    -11.370276     9A    -11.293767
      10A    -11.292020    11A    -11.279818    12A    -11.237988
      13A     -1.477735    14A     -1.363040    15A     -1.334197
      16A     -1.234248    17A     -1.209179    18A     -1.177885
      19A     -1.004707    20A     -0.966217    21A     -0.905512
      22A     -0.866868    23A     -0.805313    24A     -0.754701
      25A     -0.729352    26A     -0.723694    27A     -0.693684
      28A     -0.679216    29A     -0.664926    30A     -0.640187
      31A     -0.631942    32A     -0.628858    33A     -0.586967
      34A     -0.581016    35A     -0.567805    36A     -0.548915
      37A     -0.485941    38A     -0.463334    39A     -0.440654
      40A     -0.437134    41A     -0.405240    42A     -0.379300
      43A     -0.281235

  @DF-RHF Final Energy:  -578.58429849886636

   => Energetics <=

    Nuclear Repulsion Energy =            692.5258325048283723
    One-Electron Energy =               -2162.0990458148748985
    Two-Electron Energy =                 890.9889148111800523
    Total Energy =                       -578.5842984988663602
  Basis Set: (AUG-CC-PVTZ AUX)
    Blend: AUG-CC-PVTZ-RI
    Molecular point group: c1

    Geometry (in Angstrom), charge = 0, multiplicity = 1:

       Center              X                  Y                   Z               Mass
    ------------   -----------------  -----------------  -----------------  -----------------
         O           -1.456087071905     2.559515200654     0.079944139436    15.994914619570
         N            1.932845928095    -0.588013799346    -0.056086860564    14.003074004430
         N           -1.896592071905     0.301214200654     0.048051139436    14.003074004430
         N           -0.329030071905    -1.472120799346    -0.039205860564    14.003074004430
         N            1.530330928095     1.636014200654    -0.011014860564    14.003074004430
         N           -2.615742071905    -1.921815799346     0.110623139436    14.003074004430
         C            0.571384928095    -0.441801799346    -0.029985860564    12.000000000000
         C            0.347443928095     0.934787200654    -0.009855860564    12.000000000000
         C           -1.196745871905     1.486034300654     0.040912839436    12.000000000000
         C            2.452748928095     0.684605200654    -0.070376860564    12.000000000000
         C           -1.559371071905    -1.030930799346     0.018348139436    12.000000000000
         C            2.649055928095    -1.850206799346    -0.065975860564    12.000000000000
         H            3.522947928095     0.854195200654    -0.087062860564     1.007825032230
         H            2.386620928095    -2.435311799346     0.817292139436     1.007825032230
         H            2.393158928095    -2.418963799346    -0.960962860564     1.007825032230
         H            3.717825928095    -1.635471799346    -0.059689860564     1.007825032230
         H           -2.874295071905     0.564261200654     0.168860139436     1.007825032230
         H           -2.312117071905    -2.872578799346    -0.064695860564     1.007825032230
         H           -3.446007071905    -1.677523799346    -0.417806860564     1.007825032230

  Basis Set: AUG-CC-PVTZ
    Blend: AUG-CC-PVTZ
  Basis Set: (AUG-CC-PVTZ AUX)
    Blend: AUG-CC-PVTZ-JKFIT
	 Reference Energy          =    -578.5842984988663602 [Eh]
	 Singles Energy            =      -0.0000000000000000 [Eh]
	 Same-Spin Energy          =      -0.6146213331910073 [Eh]
	 Opposite-Spin Energy      =      -1.8174963675600169 [Eh]
	 Correlation Energy        =      -2.4321177007510242 [Eh]
	 Total Energy              =    -581.0164161996174244 [Eh]

	 ================> DF-SCS-MP2 Energies <==================
	-----------------------------------------------------------
	 SCS Same-Spin Scale       =       0.3333333333333333 [-]
	 SCS Opposite-Spin Scale   =       1.2000000000000000 [-]
	 SCS Same-Spin Energy      =      -0.2048737777303358 [Eh]
	 SCS Opposite-Spin Energy  =      -2.1809956410720202 [Eh]
	 SCS Correlation Energy    =      -2.3858694188023559 [Eh]
	 SCS Total Energy          =    -580.9701679176687321 [Eh]
	-----------------------------------------------------------

  Dipole Moment: [D]
     X:    -1.2438      Y:    -5.8050      Z:    -0.8926     Total:     6.0035

*** Psi4 exiting successfully. Buy a developer a beer!
