                               Psi4 1.4a3.dev225

  ==> Input File <==

--------------------------------------------------------------------------
#psi4
#
memory 32 gb

molecule  {
0 1
  O        1.6617960     2.5152110     0.0229320
  N       -1.9329240    -0.4005880    -0.0147920
  N        1.9545050     0.2323110     0.0113410
  N        0.2669280    -1.4301930    -0.0208730
  N       -1.3834780     1.7915450    -0.0193170
  N        2.5221760    -2.0364130     0.0734370
  C       -0.5634760    -0.3442740    -0.0026930
  C       -0.2488450     1.0144850    -0.0147620
  C        1.1380320     1.4076430     0.0031510
  C       -2.3683130     0.9036150    -0.0164120
  C        1.5431488    -1.0246039    -0.0051679
  C       -2.7322540    -1.6127190     0.0339130
  H       -3.4247340     1.1445090    -0.0228960
  H       -2.2735910    -2.3629350    -0.6109560
  H       -2.7853950    -1.9995380     1.0543320
  H       -3.7366260    -1.3828770    -0.3245450
  H        2.9468270     0.4301980     0.1174830
  H        2.1372730    -2.9631930    -0.0801050
  H        3.3349710    -1.8642740    -0.5097710
units angstrom
no_reorient  #important for SAPT in psi4, default
symmetry c1  #important for SAPT in psi4, default
}

set PROPERTIES_ORIGIN ["COM"]
properties('MP2/aug-cc-pvtz', properties = ['dipole'])
--------------------------------------------------------------------------

    Molecular point group: c1
  Charge       = 0
  Multiplicity = 1
  Basis Set: AUG-CC-PVTZ
    Blend: AUG-CC-PVTZ
  Basis Set: (AUG-CC-PVTZ AUX)
    Blend: AUG-CC-PVTZ-JKFIT

    Orbital Energies [Eh]
    ---------------------

    Doubly Occupied:

       1A    -20.524191     2A    -15.637447     3A    -15.631255
       4A    -15.608768     5A    -15.570036     6A    -15.559530
       7A    -11.396905     8A    -11.367976     9A    -11.319174
      10A    -11.306982    11A    -11.288393    12A    -11.246452
      13A     -1.396624    14A     -1.360555    15A     -1.336743
      16A     -1.223246    17A     -1.209280    18A     -1.189785
      19A     -1.028050    20A     -0.986032    21A     -0.905235
      22A     -0.887594    23A     -0.805727    24A     -0.767562
      25A     -0.748364    26A     -0.723860    27A     -0.691492
      28A     -0.670920    29A     -0.651987    30A     -0.639275
      31A     -0.623748    32A     -0.611710    33A     -0.595335
      34A     -0.577035    35A     -0.560702    36A     -0.539572
      37A     -0.494000    38A     -0.458389    39A     -0.443133
      40A     -0.434199    41A     -0.429345    42A     -0.392621
      43A     -0.296010

  @DF-RHF Final Energy:  -578.62699313407757

   => Energetics <=

    Nuclear Repulsion Energy =            693.4517854512647546
    One-Electron Energy =               -2163.8870788363433348
    Two-Electron Energy =                 891.8083002510011283
    Total Energy =                       -578.6269931340775656
  Basis Set: (AUG-CC-PVTZ AUX)
    Blend: AUG-CC-PVTZ-RI
    Molecular point group: c1

    Geometry (in Angstrom), charge = 0, multiplicity = 1:

       Center              X                  Y                   Z               Mass
    ------------   -----------------  -----------------  -----------------  -----------------
         O            1.637841421850     2.457782617077     0.020623962312    15.994914619570
         N           -1.956878578150    -0.458016382923    -0.017100037688    14.003074004430
         N            1.930550421850     0.174882617077     0.009032962312    14.003074004430
         N            0.242973421850    -1.487621382923    -0.023181037688    14.003074004430
         N           -1.407432578150     1.734116617077    -0.021625037688    14.003074004430
         N            2.498221421850    -2.093841382923     0.071128962312    14.003074004430
         C           -0.587430578150    -0.401702382923    -0.005001037688    12.000000000000
         C           -0.272799578150     0.957056617077    -0.017070037688    12.000000000000
         C            1.114077421850     1.350214617077     0.000842962312    12.000000000000
         C           -2.392267578150     0.846186617077    -0.018720037688    12.000000000000
         C            1.519194221850    -1.082032282923    -0.007475937688    12.000000000000
         C           -2.756208578150    -1.670147382923     0.031604962312    12.000000000000
         H           -3.448688578150     1.087080617077    -0.025204037688     1.007825032230
         H           -2.297545578150    -2.420363382923    -0.613264037688     1.007825032230
         H           -2.809349578150    -2.056966382923     1.052023962312     1.007825032230
         H           -3.760580578150    -1.440305382923    -0.326853037688     1.007825032230
         H            2.922872421850     0.372769617077     0.115174962312     1.007825032230
         H            2.113318421850    -3.020621382923    -0.082413037688     1.007825032230
         H            3.311016421850    -1.921702382923    -0.512079037688     1.007825032230

  Basis Set: AUG-CC-PVTZ
    Blend: AUG-CC-PVTZ
  Basis Set: (AUG-CC-PVTZ AUX)
    Blend: AUG-CC-PVTZ-JKFIT
	 Reference Energy          =    -578.6269931340775656 [Eh]
	 Singles Energy            =      -0.0000000000000000 [Eh]
	 Same-Spin Energy          =      -0.6162768475420836 [Eh]
	 Opposite-Spin Energy      =      -1.8201164864108048 [Eh]
	 Correlation Energy        =      -2.4363933339528883 [Eh]
	 Total Energy              =    -581.0633864680304441 [Eh]

	 ================> DF-SCS-MP2 Energies <==================
	-----------------------------------------------------------
	 SCS Same-Spin Scale       =       0.3333333333333333 [-]
	 SCS Opposite-Spin Scale   =       1.2000000000000000 [-]
	 SCS Same-Spin Energy      =      -0.2054256158473612 [Eh]
	 SCS Opposite-Spin Energy  =      -2.1841397836929657 [Eh]
	 SCS Correlation Energy    =      -2.3895653995403268 [Eh]
	 SCS Total Energy          =    -581.0165585336178538 [Eh]
	-----------------------------------------------------------

  Dipole Moment: [D]
     X:    -0.4511      Y:    -6.5106      Z:    -0.8481     Total:     6.5811

*** Psi4 exiting successfully. Buy a developer a beer!
