                               Psi4 1.4a3.dev225

  ==> Input File <==

--------------------------------------------------------------------------
#psi4
#
memory 32 gb

molecule  {
0 1
  O        1.6617960     2.5152110     0.0229320
  N       -1.9329240    -0.4005880    -0.0147920
  N        1.9545050     0.2323110     0.0113410
  N        0.2669280    -1.4301930    -0.0208730
  N       -1.3834780     1.7915450    -0.0193170
  N        2.5221760    -2.0364130     0.0734370
  C       -0.5634760    -0.3442740    -0.0026930
  C       -0.2443334     1.0339687    -0.0149351
  C        1.1380320     1.4076430     0.0031510
  C       -2.3683130     0.9036150    -0.0164120
  C        1.5275980    -1.0721200    -0.0057920
  C       -2.7322540    -1.6127190     0.0339130
  H       -3.4247340     1.1445090    -0.0228960
  H       -2.2735910    -2.3629350    -0.6109560
  H       -2.7853950    -1.9995380     1.0543320
  H       -3.7366260    -1.3828770    -0.3245450
  H        2.9468270     0.4301980     0.1174830
  H        2.1372730    -2.9631930    -0.0801050
  H        3.3349710    -1.8642740    -0.5097710
units angstrom
no_reorient  #important for SAPT in psi4, default
symmetry c1  #important for SAPT in psi4, default
}

set PROPERTIES_ORIGIN ["COM"]
properties('MP2/aug-cc-pvtz', properties = ['dipole'])
--------------------------------------------------------------------------

    Molecular point group: c1
  Charge       = 0
  Multiplicity = 1
  Basis Set: AUG-CC-PVTZ
    Blend: AUG-CC-PVTZ
  Basis Set: (AUG-CC-PVTZ AUX)
    Blend: AUG-CC-PVTZ-JKFIT

    Orbital Energies [Eh]
    ---------------------

    Doubly Occupied:

       1A    -20.519271     2A    -15.634205     3A    -15.629705
       4A    -15.611035     5A    -15.571785     6A    -15.560235
       7A    -11.396445     8A    -11.363308     9A    -11.322256
      10A    -11.306964    11A    -11.289792    12A    -11.248244
      13A     -1.390263    14A     -1.359995    15A     -1.333839
      16A     -1.218732    17A     -1.216685    18A     -1.191613
      19A     -1.027549    20A     -0.987292    21A     -0.902653
      22A     -0.882105    23A     -0.806847    24A     -0.764525
      25A     -0.742574    26A     -0.729488    27A     -0.691383
      28A     -0.670666    29A     -0.648917    30A     -0.643049
      31A     -0.625767    32A     -0.609008    33A     -0.597188
      34A     -0.578884    35A     -0.561355    36A     -0.541426
      37A     -0.493613    38A     -0.460694    39A     -0.439763
      40A     -0.429534    41A     -0.426795    42A     -0.393922
      43A     -0.296153

  @DF-RHF Final Energy:  -578.62954669703470

   => Energetics <=

    Nuclear Repulsion Energy =            692.9604319773188763
    One-Electron Energy =               -2162.9489101057351945
    Two-Electron Energy =                 891.3589314313816203
    Total Energy =                       -578.6295466970346979
  Basis Set: (AUG-CC-PVTZ AUX)
    Blend: AUG-CC-PVTZ-RI
    Molecular point group: c1

    Geometry (in Angstrom), charge = 0, multiplicity = 1:

       Center              X                  Y                   Z               Mass
    ------------   -----------------  -----------------  -----------------  -----------------
         O            1.638643956318     2.459820533522     0.020681917642    15.994914619570
         N           -1.956076043682    -0.455978466478    -0.017042082358    14.003074004430
         N            1.931352956318     0.176920533522     0.009090917642    14.003074004430
         N            0.243775956318    -1.485583466478    -0.023123082358    14.003074004430
         N           -1.406630043682     1.736154533522    -0.021567082358    14.003074004430
         N            2.499023956318    -2.091803466478     0.071186917642    14.003074004430
         C           -0.586628043682    -0.399664466478    -0.004943082358    12.000000000000
         C           -0.267485443682     0.978578233522    -0.017185182358    12.000000000000
         C            1.114879956318     1.352252533522     0.000900917642    12.000000000000
         C           -2.391465043682     0.848224533522    -0.018662082358    12.000000000000
         C            1.504445956318    -1.127510466478    -0.008042082358    12.000000000000
         C           -2.755406043682    -1.668109466478     0.031662917642    12.000000000000
         H           -3.447886043682     1.089118533522    -0.025146082358     1.007825032230
         H           -2.296743043682    -2.418325466478    -0.613206082358     1.007825032230
         H           -2.808547043682    -2.054928466478     1.052081917642     1.007825032230
         H           -3.759778043682    -1.438267466478    -0.326795082358     1.007825032230
         H            2.923674956318     0.374807533522     0.115232917642     1.007825032230
         H            2.114120956318    -3.018583466478    -0.082355082358     1.007825032230
         H            3.311818956318    -1.919664466478    -0.512021082358     1.007825032230

  Basis Set: AUG-CC-PVTZ
    Blend: AUG-CC-PVTZ
  Basis Set: (AUG-CC-PVTZ AUX)
    Blend: AUG-CC-PVTZ-JKFIT
	 Reference Energy          =    -578.6295466970346979 [Eh]
	 Singles Energy            =      -0.0000000000000000 [Eh]
	 Same-Spin Energy          =      -0.6164304310091853 [Eh]
	 Opposite-Spin Energy      =      -1.8201139384777738 [Eh]
	 Correlation Energy        =      -2.4365443694869588 [Eh]
	 Total Energy              =    -581.0660910665216079 [Eh]

	 ================> DF-SCS-MP2 Energies <==================
	-----------------------------------------------------------
	 SCS Same-Spin Scale       =       0.3333333333333333 [-]
	 SCS Opposite-Spin Scale   =       1.2000000000000000 [-]
	 SCS Same-Spin Energy      =      -0.2054768103363951 [Eh]
	 SCS Opposite-Spin Energy  =      -2.1841367261733287 [Eh]
	 SCS Correlation Energy    =      -2.3896135365097235 [Eh]
	 SCS Total Energy          =    -581.0191602335444259 [Eh]
	-----------------------------------------------------------

  Dipole Moment: [D]
     X:    -0.5676      Y:    -6.7829      Z:    -0.8509     Total:     6.8596

*** Psi4 exiting successfully. Buy a developer a beer!
