                               Psi4 1.3.2 release

  ==> Input File <==

--------------------------------------------------------------------------
#psi4
#
memory 32 gb

molecule  {
0 1
  O       -1.4697740     2.5644010     0.0803940
  N        1.9191590    -0.5831280    -0.0556370
  N       -1.9102790     0.3061000     0.0485010
  N       -0.3427170    -1.4672350    -0.0387560
  N        1.5166440     1.6409000    -0.0105650
  N       -2.6294290    -1.9169300     0.1110730
  C        0.5576980    -0.4369160    -0.0295360
  C        0.3337570     0.9396730    -0.0094060
  C       -1.0221650     1.4237120     0.0351730
  C        2.5146955     0.8746268    -0.0720059
  C       -1.5730580    -1.0260450     0.0187980
  C        2.6353690    -1.8453210    -0.0655260
  H        3.5092610     0.8590810    -0.0866130
  H        2.3729340    -2.4304260     0.8177420
  H        2.3794720    -2.4140780    -0.9605130
  H        3.7041390    -1.6305860    -0.0592400
  H       -2.8879820     0.5691470     0.1693100
  H       -2.3258040    -2.8676930    -0.0642460
  H       -3.4596940    -1.6726380    -0.4173570
units angstrom
no_reorient  #important for SAPT in psi4, default
symmetry c1  #important for SAPT in psi4, default
}

set PROPERTIES_ORIGIN ["COM"]
properties('MP2/aug-cc-pvtz', properties = ['dipole'])
--------------------------------------------------------------------------

    Molecular point group: c1
  Charge       = 0
  Multiplicity = 1
  Basis Set: AUG-CC-PVTZ
    Blend: AUG-CC-PVTZ
  Basis Set: (AUG-CC-PVTZ AUX)
    Blend: AUG-CC-PVTZ-JKFIT

    Orbital Energies [Eh]
    ---------------------

    Doubly Occupied:

       1A    -20.518478     2A    -15.629335     3A    -15.613521
       4A    -15.609475     5A    -15.572549     6A    -15.570858
       7A    -11.400572     8A    -11.363903     9A    -11.325009
      10A    -11.313935    11A    -11.274977    12A    -11.245390
      13A     -1.388351    14A     -1.346453    15A     -1.322502
      16A     -1.225218    17A     -1.219551    18A     -1.181231
      19A     -1.037918    20A     -0.965018    21A     -0.896773
      22A     -0.878577    23A     -0.818047    24A     -0.761516
      25A     -0.747991    26A     -0.729236    27A     -0.694210
      28A     -0.658866    29A     -0.643575    30A     -0.636277
      31A     -0.627965    32A     -0.619468    33A     -0.597605
      34A     -0.565832    35A     -0.557477    36A     -0.537294
      37A     -0.484875    38A     -0.464379    39A     -0.436757
      40A     -0.433896    41A     -0.422937    42A     -0.380044
      43A     -0.308329

  @DF-RHF Final Energy:  -578.59970025148550

   => Energetics <=

    Nuclear Repulsion Energy =            690.2996406618902938
    One-Electron Energy =               -2157.7463381605225550
    Two-Electron Energy =                 888.8469972471466463
    Total Energy =                       -578.5997002514855012
  Basis Set: (AUG-CC-PVTZ AUX)
    Blend: AUG-CC-PVTZ-RI
    Molecular point group: c1

    Geometry (in Angstrom), charge = 0, multiplicity = 1:

       Center              X                  Y                   Z               Mass
    ------------   -----------------  -----------------  -----------------  -----------------
         O           -1.475272328933     2.550942021078     0.080545255142    15.994914619570
         N            1.913660671067    -0.596586978922    -0.055485744858    14.003074004430
         N           -1.915777328933     0.292641021078     0.048652255142    14.003074004430
         N           -0.348215328933    -1.480693978922    -0.038604744858    14.003074004430
         N            1.511145671067     1.627441021078    -0.010413744858    14.003074004430
         N           -2.634927328933    -1.930388978922     0.111224255142    14.003074004430
         C            0.552199671067    -0.450374978922    -0.029384744858    12.000000000000
         C            0.328258671067     0.926214021078    -0.009254744858    12.000000000000
         C           -1.027663328933     1.410253021078     0.035324255142    12.000000000000
         C            2.509197171067     0.861167821078    -0.071854644858    12.000000000000
         C           -1.578556328933    -1.039503978922     0.018949255142    12.000000000000
         C            2.629870671067    -1.858779978922    -0.065374744858    12.000000000000
         H            3.503762671067     0.845622021078    -0.086461744858     1.007825032230
         H            2.367435671067    -2.443884978922     0.817893255142     1.007825032230
         H            2.373973671067    -2.427536978922    -0.960361744858     1.007825032230
         H            3.698640671067    -1.644044978922    -0.059088744858     1.007825032230
         H           -2.893480328933     0.555688021078     0.169461255142     1.007825032230
         H           -2.331302328933    -2.881151978922    -0.064094744858     1.007825032230
         H           -3.465192328933    -1.686096978922    -0.417205744858     1.007825032230

  Basis Set: AUG-CC-PVTZ
    Blend: AUG-CC-PVTZ
  Basis Set: (AUG-CC-PVTZ AUX)
    Blend: AUG-CC-PVTZ-JKFIT
	 Reference Energy          =    -578.5997002514855012 [Eh]
	 Singles Energy            =      -0.0000000000000000 [Eh]
	 Same-Spin Energy          =      -0.6142532878255043 [Eh]
	 Opposite-Spin Energy      =      -1.8186686644800369 [Eh]
	 Correlation Energy        =      -2.4329219523055414 [Eh]
	 Total Energy              =    -581.0326222037909929 [Eh]

	 ================> DF-SCS-MP2 Energies <==================
	-----------------------------------------------------------
	 SCS Same-Spin Scale       =       0.3333333333333333 [-]
	 SCS Opposite-Spin Scale   =       1.2000000000000000 [-]
	 SCS Same-Spin Energy      =      -0.2047510959418347 [Eh]
	 SCS Opposite-Spin Energy  =      -2.1824023973760442 [Eh]
	 SCS Correlation Energy    =      -2.3871534933178791 [Eh]
	 SCS Total Energy          =    -580.9868537448033976 [Eh]
	-----------------------------------------------------------

  Dipole Moment: [D]
     X:    -0.0402      Y:    -6.1573      Z:    -0.9308     Total:     6.2274

*** Psi4 exiting successfully. Buy a developer a beer!
