                               Psi4 1.3.2 release

  ==> Input File <==

--------------------------------------------------------------------------
#psi4
#
memory 32 gb

molecule  {
0 1
  O       -1.4697740     2.5644010     0.0803940
  N        1.9191590    -0.5831280    -0.0556370
  N       -1.9102790     0.3061000     0.0485010
  N       -0.3427170    -1.4672350    -0.0387560
  N        1.5166440     1.6409000    -0.0105650
  N       -2.6294290    -1.9169300     0.1110730
  C        0.5576980    -0.4369160    -0.0295360
  C        0.3337570     0.9396730    -0.0094060
  C       -1.0029655     1.4081402     0.0320610
  C        2.4390620     0.6894910    -0.0699270
  C       -1.5730580    -1.0260450     0.0187980
  C        2.6353690    -1.8453210    -0.0655260
  H        3.5092610     0.8590810    -0.0866130
  H        2.3729340    -2.4304260     0.8177420
  H        2.3794720    -2.4140780    -0.9605130
  H        3.7041390    -1.6305860    -0.0592400
  H       -2.8925364     0.5519597     0.1685642
  H       -2.3258040    -2.8676930    -0.0642460
  H       -3.4596940    -1.6726380    -0.4173570
units angstrom
no_reorient  #important for SAPT in psi4, default
symmetry c1  #important for SAPT in psi4, default
}

set PROPERTIES_ORIGIN ["COM"]
properties('MP2/aug-cc-pvtz', properties = ['dipole'])
--------------------------------------------------------------------------

    Molecular point group: c1
  Charge       = 0
  Multiplicity = 1
  Basis Set: AUG-CC-PVTZ
    Blend: AUG-CC-PVTZ
  Basis Set: (AUG-CC-PVTZ AUX)
    Blend: AUG-CC-PVTZ-JKFIT

    Orbital Energies [Eh]
    ---------------------

    Doubly Occupied:

       1A    -20.515178     2A    -15.634763     3A    -15.630595
       4A    -15.611654     5A    -15.572456     6A    -15.561277
       7A    -11.396690     8A    -11.363276     9A    -11.322479
      10A    -11.309577    11A    -11.290741    12A    -11.247187
      13A     -1.386449    14A     -1.355943    15A     -1.330344
      16A     -1.219210    17A     -1.216724    18A     -1.192442
      19A     -1.033945    20A     -0.989181    21A     -0.905567
      22A     -0.881766    23A     -0.808495    24A     -0.768514
      25A     -0.744030    26A     -0.731109    27A     -0.692694
      28A     -0.672837    29A     -0.649020    30A     -0.644012
      31A     -0.627111    32A     -0.602576    33A     -0.595890
      34A     -0.579297    35A     -0.562507    36A     -0.536671
      37A     -0.495046    38A     -0.459996    39A     -0.438065
      40A     -0.428144    41A     -0.426536    42A     -0.394210
      43A     -0.300569

  @DF-RHF Final Energy:  -578.62810908331312

   => Energetics <=

    Nuclear Repulsion Energy =            693.6420176868738281
    One-Electron Energy =               -2164.2907089717346025
    Two-Electron Energy =                 892.0205822015477679
    Total Energy =                       -578.6281090833131202
  Basis Set: (AUG-CC-PVTZ AUX)
    Blend: AUG-CC-PVTZ-RI
    Molecular point group: c1

    Geometry (in Angstrom), charge = 0, multiplicity = 1:

       Center              X                  Y                   Z               Mass
    ------------   -----------------  -----------------  -----------------  -----------------
         O           -1.471141848268     2.565638123289     0.080624913648    15.994914619570
         N            1.917791151732    -0.581890876711    -0.055406086352    14.003074004430
         N           -1.911646848268     0.307337123289     0.048731913648    14.003074004430
         N           -0.344084848268    -1.465997876711    -0.038525086352    14.003074004430
         N            1.515276151732     1.642137123289    -0.010334086352    14.003074004430
         N           -2.630796848268    -1.915692876711     0.111303913648    14.003074004430
         C            0.556330151732    -0.435678876711    -0.029305086352    12.000000000000
         C            0.332389151732     0.940910123289    -0.009175086352    12.000000000000
         C           -1.004333348268     1.409377323289     0.032291913648    12.000000000000
         C            2.437694151732     0.690728123289    -0.069696086352    12.000000000000
         C           -1.574425848268    -1.024807876711     0.019028913648    12.000000000000
         C            2.634001151732    -1.844083876711    -0.065295086352    12.000000000000
         H            3.507893151732     0.860318123289    -0.086382086352     1.007825032230
         H            2.371566151732    -2.429188876711     0.817972913648     1.007825032230
         H            2.378104151732    -2.412840876711    -0.960282086352     1.007825032230
         H            3.702771151732    -1.629348876711    -0.059009086352     1.007825032230
         H           -2.893904248268     0.553196823289     0.168795113648     1.007825032230
         H           -2.327171848268    -2.866455876711    -0.064015086352     1.007825032230
         H           -3.461061848268    -1.671400876711    -0.417126086352     1.007825032230

  Basis Set: AUG-CC-PVTZ
    Blend: AUG-CC-PVTZ
  Basis Set: (AUG-CC-PVTZ AUX)
    Blend: AUG-CC-PVTZ-JKFIT
	 Reference Energy          =    -578.6281090833131202 [Eh]
	 Singles Energy            =      -0.0000000000000000 [Eh]
	 Same-Spin Energy          =      -0.6165233290487566 [Eh]
	 Opposite-Spin Energy      =      -1.8206521945127652 [Eh]
	 Correlation Energy        =      -2.4371755235615220 [Eh]
	 Total Energy              =    -581.0652846068746840 [Eh]

	 ================> DF-SCS-MP2 Energies <==================
	-----------------------------------------------------------
	 SCS Same-Spin Scale       =       0.3333333333333333 [-]
	 SCS Opposite-Spin Scale   =       1.2000000000000000 [-]
	 SCS Same-Spin Energy      =      -0.2055077763495855 [Eh]
	 SCS Opposite-Spin Energy  =      -2.1847826334153182 [Eh]
	 SCS Correlation Energy    =      -2.3902904097649036 [Eh]
	 SCS Total Energy          =    -581.0183994930780500 [Eh]
	-----------------------------------------------------------

  Dipole Moment: [D]
     X:     0.1198      Y:    -6.9879      Z:    -0.9473     Total:     7.0528

*** Psi4 exiting successfully. Buy a developer a beer!
