                               Psi4 1.3.2 release

  ==> Input File <==

--------------------------------------------------------------------------
#psi4
#
memory 32 gb

molecule  {
0 1
  O       -1.4697740     2.5644010     0.0803940
  N        1.9191590    -0.5831280    -0.0556370
  N       -1.9102790     0.3061000     0.0485010
  N       -0.3427170    -1.4672350    -0.0387560
  N        1.5166440     1.6409000    -0.0105650
  N       -2.6294290    -1.9169300     0.1110730
  C        0.5564749    -0.4488045    -0.0294736
  C        0.3337570     0.9396730    -0.0094060
  C       -1.0221650     1.4237120     0.0351730
  C        2.4390620     0.6894910    -0.0699270
  C       -1.5730580    -1.0260450     0.0187980
  C        2.6243296    -1.8515234    -0.0652904
  H        3.5092610     0.8590810    -0.0866130
  H        2.3729340    -2.4304260     0.8177420
  H        2.3794720    -2.4140780    -0.9605130
  H        3.7041390    -1.6305860    -0.0592400
  H       -2.8879820     0.5691470     0.1693100
  H       -2.3258040    -2.8676930    -0.0642460
  H       -3.4596940    -1.6726380    -0.4173570
units angstrom
no_reorient  #important for SAPT in psi4, default
symmetry c1  #important for SAPT in psi4, default
}

set PROPERTIES_ORIGIN ["COM"]
properties('MP2/aug-cc-pvtz', properties = ['dipole'])
--------------------------------------------------------------------------

    Molecular point group: c1
  Charge       = 0
  Multiplicity = 1
  Basis Set: AUG-CC-PVTZ
    Blend: AUG-CC-PVTZ
  Basis Set: (AUG-CC-PVTZ AUX)
    Blend: AUG-CC-PVTZ-JKFIT

    Orbital Energies [Eh]
    ---------------------

    Doubly Occupied:

       1A    -20.519855     2A    -15.633078     3A    -15.629657
       4A    -15.611260     5A    -15.571099     6A    -15.560014
       7A    -11.396979     8A    -11.363448     9A    -11.319990
      10A    -11.307248    11A    -11.289243    12A    -11.247281
      13A     -1.390472    14A     -1.360144    15A     -1.334346
      16A     -1.219419    17A     -1.218299    18A     -1.190965
      19A     -1.027747    20A     -0.986093    21A     -0.902106
      22A     -0.883450    23A     -0.808218    24A     -0.765412
      25A     -0.741609    26A     -0.729927    27A     -0.692522
      28A     -0.672163    29A     -0.648812    30A     -0.643490
      31A     -0.627613    32A     -0.609920    33A     -0.593418
      34A     -0.574972    35A     -0.561719    36A     -0.542081
      37A     -0.494093    38A     -0.460398    39A     -0.439669
      40A     -0.429676    41A     -0.428013    42A     -0.393000
      43A     -0.296376

  @DF-RHF Final Energy:  -578.62990763808307

   => Energetics <=

    Nuclear Repulsion Energy =            693.4354565979425615
    One-Electron Energy =               -2163.9001402465819410
    Two-Electron Energy =                 891.8347760105564248
    Total Energy =                       -578.6299076380830684
  Basis Set: (AUG-CC-PVTZ AUX)
    Blend: AUG-CC-PVTZ-RI
    Molecular point group: c1

    Geometry (in Angstrom), charge = 0, multiplicity = 1:

       Center              X                  Y                   Z               Mass
    ------------   -----------------  -----------------  -----------------  -----------------
         O           -1.468882412128     2.565716319176     0.080372457822    15.994914619570
         N            1.920050587872    -0.581812680824    -0.055658542178    14.003074004430
         N           -1.909387412128     0.307415319176     0.048479457822    14.003074004430
         N           -0.341825412128    -1.465919680824    -0.038777542178    14.003074004430
         N            1.517535587872     1.642215319176    -0.010586542178    14.003074004430
         N           -2.628537412128    -1.915614680824     0.111051457822    14.003074004430
         C            0.557366487872    -0.447489180824    -0.029495142178    12.000000000000
         C            0.334648587872     0.940988319176    -0.009427542178    12.000000000000
         C           -1.021273412128     1.425027319176     0.035151457822    12.000000000000
         C            2.439953587872     0.690806319176    -0.069948542178    12.000000000000
         C           -1.572166412128    -1.024729680824     0.018776457822    12.000000000000
         C            2.625221187872    -1.850208080824    -0.065311942178    12.000000000000
         H            3.510152587872     0.860396319176    -0.086634542178     1.007825032230
         H            2.373825587872    -2.429110680824     0.817720457822     1.007825032230
         H            2.380363587872    -2.412762680824    -0.960534542178     1.007825032230
         H            3.705030587872    -1.629270680824    -0.059261542178     1.007825032230
         H           -2.887090412128     0.570462319176     0.169288457822     1.007825032230
         H           -2.324912412128    -2.866377680824    -0.064267542178     1.007825032230
         H           -3.458802412128    -1.671322680824    -0.417378542178     1.007825032230

  Basis Set: AUG-CC-PVTZ
    Blend: AUG-CC-PVTZ
  Basis Set: (AUG-CC-PVTZ AUX)
    Blend: AUG-CC-PVTZ-JKFIT
	 Reference Energy          =    -578.6299076380830684 [Eh]
	 Singles Energy            =      -0.0000000000000000 [Eh]
	 Same-Spin Energy          =      -0.6163536031044041 [Eh]
	 Opposite-Spin Energy      =      -1.8200006694560642 [Eh]
	 Correlation Energy        =      -2.4363542725604681 [Eh]
	 Total Energy              =    -581.0662619106435614 [Eh]

	 ================> DF-SCS-MP2 Energies <==================
	-----------------------------------------------------------
	 SCS Same-Spin Scale       =       0.3333333333333333 [-]
	 SCS Opposite-Spin Scale   =       1.2000000000000000 [-]
	 SCS Same-Spin Energy      =      -0.2054512010348014 [Eh]
	 SCS Opposite-Spin Energy  =      -2.1840008033472769 [Eh]
	 SCS Correlation Energy    =      -2.3894520043820782 [Eh]
	 SCS Total Energy          =    -581.0193596424651332 [Eh]
	-----------------------------------------------------------

  Dipole Moment: [D]
     X:    -0.0251      Y:    -6.8225      Z:    -0.9379     Total:     6.8867

*** Psi4 exiting successfully. Buy a developer a beer!
