                               Psi4 1.4a3.dev225

  ==> Input File <==

--------------------------------------------------------------------------
#psi4
#
memory 32 gb

molecule  {
0 1
  O        1.6617960     2.5152110     0.0229320
  N       -1.9329240    -0.4005880    -0.0147920
  N        1.9545050     0.2323110     0.0113410
  N        0.2669280    -1.4301930    -0.0208730
  N       -1.3834780     1.7915450    -0.0193170
  N        2.5221760    -2.0364130     0.0734370
  C       -0.5634760    -0.3442740    -0.0026930
  C       -0.2488450     1.0144850    -0.0147620
  C        1.1380320     1.4076430     0.0031510
  C       -2.3683130     0.9036150    -0.0164120
  C        1.5120472    -1.1196361    -0.0064161
  C       -2.7322540    -1.6127190     0.0339130
  H       -3.4247340     1.1445090    -0.0228960
  H       -2.2735910    -2.3629350    -0.6109560
  H       -2.7853950    -1.9995380     1.0543320
  H       -3.7366260    -1.3828770    -0.3245450
  H        2.9468270     0.4301980     0.1174830
  H        2.1372730    -2.9631930    -0.0801050
  H        3.3349710    -1.8642740    -0.5097710
units angstrom
no_reorient  #important for SAPT in psi4, default
symmetry c1  #important for SAPT in psi4, default
}

set PROPERTIES_ORIGIN ["COM"]
properties('MP2/aug-cc-pvtz', properties = ['dipole'])
--------------------------------------------------------------------------

    Molecular point group: c1
  Charge       = 0
  Multiplicity = 1
  Basis Set: AUG-CC-PVTZ
    Blend: AUG-CC-PVTZ
  Basis Set: (AUG-CC-PVTZ AUX)
    Blend: AUG-CC-PVTZ-JKFIT

    Orbital Energies [Eh]
    ---------------------

    Doubly Occupied:

       1A    -20.518761     2A    -15.634236     3A    -15.621161
       4A    -15.612791     5A    -15.572070     6A    -15.560442
       7A    -11.395089     8A    -11.361874     9A    -11.320207
      10A    -11.307256    11A    -11.289907    12A    -11.248142
      13A     -1.386934    14A     -1.360480    15A     -1.334061
      16A     -1.225021    17A     -1.211202    18A     -1.189553
      19A     -1.030564    20A     -0.986041    21A     -0.899568
      22A     -0.876648    23A     -0.807933    24A     -0.766186
      25A     -0.740899    26A     -0.727592    27A     -0.690302
      28A     -0.670944    29A     -0.647977    30A     -0.646261
      31A     -0.624388    32A     -0.609464    33A     -0.593270
      34A     -0.579402    35A     -0.562612    36A     -0.542615
      37A     -0.491787    38A     -0.462876    39A     -0.437303
      40A     -0.428399    41A     -0.424303    42A     -0.393053
      43A     -0.301048

  @DF-RHF Final Energy:  -578.62770871524219

   => Energetics <=

    Nuclear Repulsion Energy =            692.9175530643323100
    One-Electron Energy =               -2162.9092779705069916
    Two-Electron Energy =                 891.3640161909323751
    Total Energy =                       -578.6277087152421927
  Basis Set: (AUG-CC-PVTZ AUX)
    Blend: AUG-CC-PVTZ-RI
    Molecular point group: c1

    Geometry (in Angstrom), charge = 0, multiplicity = 1:

       Center              X                  Y                   Z               Mass
    ------------   -----------------  -----------------  -----------------  -----------------
         O            1.640102464861     2.464691325685     0.020714704714    15.994914619570
         N           -1.954617535139    -0.451107674315    -0.017009295286    14.003074004430
         N            1.932811464861     0.181791325685     0.009123704714    14.003074004430
         N            0.245234464861    -1.480712674315    -0.023090295286    14.003074004430
         N           -1.405171535139     1.741025325685    -0.021534295286    14.003074004430
         N            2.500482464861    -2.086932674315     0.071219704714    14.003074004430
         C           -0.585169535139    -0.394793674315    -0.004910295286    12.000000000000
         C           -0.270538535139     0.963965325685    -0.016979295286    12.000000000000
         C            1.116338464861     1.357123325685     0.000933704714    12.000000000000
         C           -2.390006535139     0.853095325685    -0.018629295286    12.000000000000
         C            1.490353664861    -1.170155774315    -0.008633395286    12.000000000000
         C           -2.753947535139    -1.663238674315     0.031695704714    12.000000000000
         H           -3.446427535139     1.093989325685    -0.025113295286     1.007825032230
         H           -2.295284535139    -2.413454674315    -0.613173295286     1.007825032230
         H           -2.807088535139    -2.050057674315     1.052114704714     1.007825032230
         H           -3.758319535139    -1.433396674315    -0.326762295286     1.007825032230
         H            2.925133464861     0.379678325685     0.115265704714     1.007825032230
         H            2.115579464861    -3.013712674315    -0.082322295286     1.007825032230
         H            3.313277464861    -1.914793674315    -0.511988295286     1.007825032230

  Basis Set: AUG-CC-PVTZ
    Blend: AUG-CC-PVTZ
  Basis Set: (AUG-CC-PVTZ AUX)
    Blend: AUG-CC-PVTZ-JKFIT
	 Reference Energy          =    -578.6277087152421927 [Eh]
	 Singles Energy            =      -0.0000000000000000 [Eh]
	 Same-Spin Energy          =      -0.6159616488070834 [Eh]
	 Opposite-Spin Energy      =      -1.8197917117099223 [Eh]
	 Correlation Energy        =      -2.4357533605170056 [Eh]
	 Total Energy              =    -581.0634620757591620 [Eh]

	 ================> DF-SCS-MP2 Energies <==================
	-----------------------------------------------------------
	 SCS Same-Spin Scale       =       0.3333333333333333 [-]
	 SCS Opposite-Spin Scale   =       1.2000000000000000 [-]
	 SCS Same-Spin Energy      =      -0.2053205496023611 [Eh]
	 SCS Opposite-Spin Energy  =      -2.1837500540519068 [Eh]
	 SCS Correlation Energy    =      -2.3890706036542677 [Eh]
	 SCS Total Energy          =    -581.0167793188965106 [Eh]
	-----------------------------------------------------------

  Dipole Moment: [D]
     X:    -0.5924      Y:    -6.9977      Z:    -0.8544     Total:     7.0745

*** Psi4 exiting successfully. Buy a developer a beer!
