                               Psi4 1.3.2 release

  ==> Input File <==

--------------------------------------------------------------------------
#psi4
#
memory 32 gb

molecule  {
0 1
  O       -1.4697740     2.5644010     0.0803940
  N        1.9191590    -0.5831280    -0.0556370
  N       -1.9102790     0.3061000     0.0485010
  N       -0.3427170    -1.4672350    -0.0387560
  N        1.5166440     1.6409000    -0.0105650
  N       -2.6294290    -1.9169300     0.1110730
  C        0.5576980    -0.4369160    -0.0295360
  C        0.3337570     0.9396730    -0.0094060
  C       -1.0586687     1.5167382     0.0388609
  C        2.4390620     0.6894910    -0.0699270
  C       -1.5730580    -1.0260450     0.0187980
  C        2.6353690    -1.8453210    -0.0655260
  H        3.5092610     0.8590810    -0.0866130
  H        2.3729340    -2.4304260     0.8177420
  H        2.3794720    -2.4140780    -0.9605130
  H        3.7041390    -1.6305860    -0.0592400
  H       -2.8879820     0.5691470     0.1693100
  H       -2.3258040    -2.8676930    -0.0642460
  H       -3.4596940    -1.6726380    -0.4173570
units angstrom
no_reorient  #important for SAPT in psi4, default
symmetry c1  #important for SAPT in psi4, default
}

set PROPERTIES_ORIGIN ["COM"]
properties('MP2/aug-cc-pvtz', properties = ['dipole'])
--------------------------------------------------------------------------

    Molecular point group: c1
  Charge       = 0
  Multiplicity = 1
  Basis Set: AUG-CC-PVTZ
    Blend: AUG-CC-PVTZ
  Basis Set: (AUG-CC-PVTZ AUX)
    Blend: AUG-CC-PVTZ-JKFIT

    Orbital Energies [Eh]
    ---------------------

    Doubly Occupied:

       1A    -20.547060     2A    -15.626948     3A    -15.615533
       4A    -15.604219     5A    -15.560911     6A    -15.553844
       7A    -11.388532     8A    -11.367300     9A    -11.310192
      10A    -11.299670    11A    -11.284796    12A    -11.244475
      13A     -1.457854    14A     -1.363063    15A     -1.329491
      16A     -1.209466    17A     -1.208267    18A     -1.182479
      19A     -1.015873    20A     -0.978238    21A     -0.885897
      22A     -0.872548    23A     -0.800771    24A     -0.761952
      25A     -0.729398    26A     -0.721009    27A     -0.692065
      28A     -0.667178    29A     -0.665077    30A     -0.639045
      31A     -0.631435    32A     -0.625001    33A     -0.590765
      34A     -0.577076    35A     -0.570453    36A     -0.553331
      37A     -0.486637    38A     -0.455744    39A     -0.446774
      40A     -0.431786    41A     -0.426274    42A     -0.386950
      43A     -0.290922

  @DF-RHF Final Energy:  -578.61847998646078

   => Energetics <=

    Nuclear Repulsion Energy =            692.7955581323344632
    One-Electron Energy =               -2162.7154774874120449
    Two-Electron Energy =                 891.3014393686167978
    Total Energy =                       -578.6184799864607839
  Basis Set: (AUG-CC-PVTZ AUX)
    Blend: AUG-CC-PVTZ-RI
    Molecular point group: c1

    Geometry (in Angstrom), charge = 0, multiplicity = 1:

       Center              X                  Y                   Z               Mass
    ------------   -----------------  -----------------  -----------------  -----------------
         O           -1.467120110644     2.557638260736     0.080126016813    15.994914619570
         N            1.921812889356    -0.589890739264    -0.055904983187    14.003074004430
         N           -1.907625110644     0.299337260736     0.048233016813    14.003074004430
         N           -0.340063110644    -1.473997739264    -0.039023983187    14.003074004430
         N            1.519297889356     1.634137260736    -0.010832983187    14.003074004430
         N           -2.626775110644    -1.923692739264     0.110805016813    14.003074004430
         C            0.560351889356    -0.443678739264    -0.029803983187    12.000000000000
         C            0.336410889356     0.932910260736    -0.009673983187    12.000000000000
         C           -1.056014810644     1.509975460736     0.038592916813    12.000000000000
         C            2.441715889356     0.682728260736    -0.070194983187    12.000000000000
         C           -1.570404110644    -1.032807739264     0.018530016813    12.000000000000
         C            2.638022889356    -1.852083739264    -0.065793983187    12.000000000000
         H            3.511914889356     0.852318260736    -0.086880983187     1.007825032230
         H            2.375587889356    -2.437188739264     0.817474016813     1.007825032230
         H            2.382125889356    -2.420840739264    -0.960780983187     1.007825032230
         H            3.706792889356    -1.637348739264    -0.059507983187     1.007825032230
         H           -2.885328110644     0.562384260736     0.169042016813     1.007825032230
         H           -2.323150110644    -2.874455739264    -0.064513983187     1.007825032230
         H           -3.457040110644    -1.679400739264    -0.417624983187     1.007825032230

  Basis Set: AUG-CC-PVTZ
    Blend: AUG-CC-PVTZ
  Basis Set: (AUG-CC-PVTZ AUX)
    Blend: AUG-CC-PVTZ-JKFIT
	 Reference Energy          =    -578.6184799864607839 [Eh]
	 Singles Energy            =      -0.0000000000000000 [Eh]
	 Same-Spin Energy          =      -0.6141169408467380 [Eh]
	 Opposite-Spin Energy      =      -1.8162922593478930 [Eh]
	 Correlation Energy        =      -2.4304092001946307 [Eh]
	 Total Energy              =    -581.0488891866554013 [Eh]

	 ================> DF-SCS-MP2 Energies <==================
	-----------------------------------------------------------
	 SCS Same-Spin Scale       =       0.3333333333333333 [-]
	 SCS Opposite-Spin Scale   =       1.2000000000000000 [-]
	 SCS Same-Spin Energy      =      -0.2047056469489126 [Eh]
	 SCS Opposite-Spin Energy  =      -2.1795507112174715 [Eh]
	 SCS Correlation Energy    =      -2.3842563581663843 [Eh]
	 SCS Total Energy          =    -581.0027363446271238 [Eh]
	-----------------------------------------------------------

  Dipole Moment: [D]
     X:    -0.4106      Y:    -5.7280      Z:    -0.9055     Total:     5.8137

*** Psi4 exiting successfully. Buy a developer a beer!
