                               Psi4 1.4a3.dev225

  ==> Input File <==

--------------------------------------------------------------------------
#psi4
#
memory 32 gb

molecule  {
0 1
  O        1.6617960     2.5152110     0.0229320
  N       -1.9329240    -0.4005880    -0.0147920
  N        1.9545050     0.2323110     0.0113410
  N        0.2669280    -1.4301930    -0.0208730
  N       -1.3834780     1.7915450    -0.0193170
  N        2.5221760    -2.0364130     0.0734370
  C       -0.5634760    -0.3442740    -0.0026930
  C       -0.2488450     1.0144850    -0.0147620
  C        1.1665577     1.3665796     0.0034371
  C       -2.3683130     0.9036150    -0.0164120
  C        1.5275980    -1.0721200    -0.0057920
  C       -2.7322540    -1.6127190     0.0339130
  H       -3.4247340     1.1445090    -0.0228960
  H       -2.2735910    -2.3629350    -0.6109560
  H       -2.7853950    -1.9995380     1.0543320
  H       -3.7366260    -1.3828770    -0.3245450
  H        2.9468270     0.4301980     0.1174830
  H        2.1372730    -2.9631930    -0.0801050
  H        3.3349710    -1.8642740    -0.5097710
units angstrom
no_reorient  #important for SAPT in psi4, default
symmetry c1  #important for SAPT in psi4, default
}

set PROPERTIES_ORIGIN ["COM"]
properties('MP2/aug-cc-pvtz', properties = ['dipole'])
--------------------------------------------------------------------------

    Molecular point group: c1
  Charge       = 0
  Multiplicity = 1
  Basis Set: AUG-CC-PVTZ
    Blend: AUG-CC-PVTZ
  Basis Set: (AUG-CC-PVTZ AUX)
    Blend: AUG-CC-PVTZ-JKFIT

    Orbital Energies [Eh]
    ---------------------

    Doubly Occupied:

       1A    -20.514340     2A    -15.637239     3A    -15.632370
       4A    -15.613871     5A    -15.575149     6A    -15.560161
       7A    -11.399660     8A    -11.363727     9A    -11.317460
      10A    -11.307271    11A    -11.289151    12A    -11.248996
      13A     -1.390204    14A     -1.355296    15A     -1.330319
      16A     -1.227336    17A     -1.218511    18A     -1.191592
      19A     -1.028621    20A     -0.984744    21A     -0.905326
      22A     -0.889966    23A     -0.811451    24A     -0.765835
      25A     -0.747105    26A     -0.730216    27A     -0.694434
      28A     -0.671787    29A     -0.646918    30A     -0.645136
      31A     -0.629882    32A     -0.603872    33A     -0.591938
      34A     -0.577011    35A     -0.561185    36A     -0.539324
      37A     -0.494924    38A     -0.461469    39A     -0.438731
      40A     -0.428220    41A     -0.423741    42A     -0.392544
      43A     -0.298133

  @DF-RHF Final Energy:  -578.62661509190355

   => Energetics <=

    Nuclear Repulsion Energy =            693.3685887976180311
    One-Electron Energy =               -2163.7200743263915683
    Two-Electron Energy =                 891.7248704368699919
    Total Energy =                       -578.6266150919035454
  Basis Set: (AUG-CC-PVTZ AUX)
    Blend: AUG-CC-PVTZ-RI
    Molecular point group: c1

    Geometry (in Angstrom), charge = 0, multiplicity = 1:

       Center              X                  Y                   Z               Mass
    ------------   -----------------  -----------------  -----------------  -----------------
         O            1.636898164688     2.464222223380     0.020648534442    15.994914619570
         N           -1.957821835312    -0.451576776620    -0.017075465558    14.003074004430
         N            1.929607164688     0.181322223380     0.009057534442    14.003074004430
         N            0.242030164688    -1.481181776620    -0.023156465558    14.003074004430
         N           -1.408375835312     1.740556223380    -0.021600465558    14.003074004430
         N            2.497278164688    -2.087401776620     0.071153534442    14.003074004430
         C           -0.588373835312    -0.395262776620    -0.004976465558    12.000000000000
         C           -0.273742835312     0.963496223380    -0.017045465558    12.000000000000
         C            1.141659864688     1.315590823380     0.001153634442    12.000000000000
         C           -2.393210835312     0.852626223380    -0.018695465558    12.000000000000
         C            1.502700164688    -1.123108776620    -0.008075465558    12.000000000000
         C           -2.757151835312    -1.663707776620     0.031629534442    12.000000000000
         H           -3.449631835312     1.093520223380    -0.025179465558     1.007825032230
         H           -2.298488835312    -2.413923776620    -0.613239465558     1.007825032230
         H           -2.810292835312    -2.050526776620     1.052048534442     1.007825032230
         H           -3.761523835312    -1.433865776620    -0.326828465558     1.007825032230
         H            2.921929164688     0.379209223380     0.115199534442     1.007825032230
         H            2.112375164688    -3.014181776620    -0.082388465558     1.007825032230
         H            3.310073164688    -1.915262776620    -0.512054465558     1.007825032230

  Basis Set: AUG-CC-PVTZ
    Blend: AUG-CC-PVTZ
  Basis Set: (AUG-CC-PVTZ AUX)
    Blend: AUG-CC-PVTZ-JKFIT
	 Reference Energy          =    -578.6266150919035454 [Eh]
	 Singles Energy            =      -0.0000000000000000 [Eh]
	 Same-Spin Energy          =      -0.6165850384517684 [Eh]
	 Opposite-Spin Energy      =      -1.8206869104381609 [Eh]
	 Correlation Energy        =      -2.4372719488899293 [Eh]
	 Total Energy              =    -581.0638870407934746 [Eh]

	 ================> DF-SCS-MP2 Energies <==================
	-----------------------------------------------------------
	 SCS Same-Spin Scale       =       0.3333333333333333 [-]
	 SCS Opposite-Spin Scale   =       1.2000000000000000 [-]
	 SCS Same-Spin Energy      =      -0.2055283461505895 [Eh]
	 SCS Opposite-Spin Energy  =      -2.1848242925257928 [Eh]
	 SCS Correlation Energy    =      -2.3903526386763820 [Eh]
	 SCS Total Energy          =    -581.0169677305799496 [Eh]
	-----------------------------------------------------------

  Dipole Moment: [D]
     X:    -0.4590      Y:    -7.0876      Z:    -0.8546     Total:     7.1537

*** Psi4 exiting successfully. Buy a developer a beer!
