                               Psi4 1.4a3.dev225

  ==> Input File <==

--------------------------------------------------------------------------
#psi4
#
memory 32 gb

molecule  {
0 1
  O        1.6617960     2.5152110     0.0229320
  N       -1.9329240    -0.4005880    -0.0147920
  N        1.9545050     0.2323110     0.0113410
  N        0.2669280    -1.4301930    -0.0208730
  N       -1.3834780     1.7915450    -0.0193170
  N        2.5221760    -2.0364130     0.0734370
  C       -0.5634760    -0.3442740    -0.0026930
  C       -0.2488450     1.0144850    -0.0147620
  C        1.1380320     1.4076430     0.0031510
  C       -2.3683130     0.9036150    -0.0164120
  C        1.5338183    -1.0531135    -0.0055424
  C       -2.7322540    -1.6127190     0.0339130
  H       -3.4247340     1.1445090    -0.0228960
  H       -2.2735910    -2.3629350    -0.6109560
  H       -2.7853950    -1.9995380     1.0543320
  H       -3.7366260    -1.3828770    -0.3245450
  H        2.9468270     0.4301980     0.1174830
  H        2.1372730    -2.9631930    -0.0801050
  H        3.3349710    -1.8642740    -0.5097710
units angstrom
no_reorient  #important for SAPT in psi4, default
symmetry c1  #important for SAPT in psi4, default
}

set PROPERTIES_ORIGIN ["COM"]
properties('MP2/aug-cc-pvtz', properties = ['dipole'])
--------------------------------------------------------------------------

    Molecular point group: c1
  Charge       = 0
  Multiplicity = 1
  Basis Set: AUG-CC-PVTZ
    Blend: AUG-CC-PVTZ
  Basis Set: (AUG-CC-PVTZ AUX)
    Blend: AUG-CC-PVTZ-JKFIT

    Orbital Energies [Eh]
    ---------------------

    Doubly Occupied:

       1A    -20.522541     2A    -15.632679     3A    -15.632194
       4A    -15.609963     5A    -15.570714     6A    -15.559819
       7A    -11.396466     8A    -11.366183     9A    -11.319461
      10A    -11.307049    11A    -11.288857    12A    -11.246958
      13A     -1.392910    14A     -1.360635    15A     -1.334593
      16A     -1.220561    17A     -1.213507    18A     -1.190306
      19A     -1.028681    20A     -0.986037    21A     -0.902645
      22A     -0.884253    23A     -0.806780    24A     -0.766809
      25A     -0.743994    26A     -0.726812    27A     -0.691430
      28A     -0.670739    29A     -0.650553    30A     -0.640459
      31A     -0.625326    32A     -0.611207    33A     -0.594784
      34A     -0.577840    35A     -0.560902    36A     -0.540878
      37A     -0.493560    38A     -0.459521    39A     -0.441366
      40A     -0.431615    41A     -0.429271    42A     -0.392752
      43A     -0.297571

  @DF-RHF Final Energy:  -578.62997393287810

   => Energetics <=

    Nuclear Repulsion Energy =            693.2770380400114618
    One-Electron Energy =               -2163.5716642366669475
    Two-Electron Energy =                 891.6646522637772705
    Total Energy =                       -578.6299739328781016
  Basis Set: (AUG-CC-PVTZ AUX)
    Blend: AUG-CC-PVTZ-RI
    Molecular point group: c1

    Geometry (in Angstrom), charge = 0, multiplicity = 1:

       Center              X                  Y                   Z               Mass
    ------------   -----------------  -----------------  -----------------  -----------------
         O            1.638519736208     2.459855225298     0.020651187941    15.994914619570
         N           -1.956200263792    -0.455943774702    -0.017072812059    14.003074004430
         N            1.931228736208     0.176955225298     0.009060187941    14.003074004430
         N            0.243651736208    -1.485548774702    -0.023153812059    14.003074004430
         N           -1.406754263792     1.736189225298    -0.021597812059    14.003074004430
         N            2.498899736208    -2.091768774702     0.071156187941    14.003074004430
         C           -0.586752263792    -0.399629774702    -0.004973812059    12.000000000000
         C           -0.272121263792     0.959129225298    -0.017042812059    12.000000000000
         C            1.114755736208     1.352287225298     0.000870187941    12.000000000000
         C           -2.391589263792     0.848259225298    -0.018692812059    12.000000000000
         C            1.510542036208    -1.108469274702    -0.007823212059    12.000000000000
         C           -2.755530263792    -1.668074774702     0.031632187941    12.000000000000
         H           -3.448010263792     1.089153225298    -0.025176812059     1.007825032230
         H           -2.296867263792    -2.418290774702    -0.613236812059     1.007825032230
         H           -2.808671263792    -2.054893774702     1.052051187941     1.007825032230
         H           -3.759902263792    -1.438232774702    -0.326825812059     1.007825032230
         H            2.923550736208     0.374842225298     0.115202187941     1.007825032230
         H            2.113996736208    -3.018548774702    -0.082385812059     1.007825032230
         H            3.311694736208    -1.919629774702    -0.512051812059     1.007825032230

  Basis Set: AUG-CC-PVTZ
    Blend: AUG-CC-PVTZ
  Basis Set: (AUG-CC-PVTZ AUX)
    Blend: AUG-CC-PVTZ-JKFIT
	 Reference Energy          =    -578.6299739328781016 [Eh]
	 Singles Energy            =      -0.0000000000000000 [Eh]
	 Same-Spin Energy          =      -0.6161492600754004 [Eh]
	 Opposite-Spin Energy      =      -1.8199099771280483 [Eh]
	 Correlation Energy        =      -2.4360592372034486 [Eh]
	 Total Energy              =    -581.0660331700815959 [Eh]

	 ================> DF-SCS-MP2 Energies <==================
	-----------------------------------------------------------
	 SCS Same-Spin Scale       =       0.3333333333333333 [-]
	 SCS Opposite-Spin Scale   =       1.2000000000000000 [-]
	 SCS Same-Spin Energy      =      -0.2053830866918001 [Eh]
	 SCS Opposite-Spin Energy  =      -2.1838919725536576 [Eh]
	 SCS Correlation Energy    =      -2.3892750592454579 [Eh]
	 SCS Total Energy          =    -581.0192489921236074 [Eh]
	-----------------------------------------------------------

  Dipole Moment: [D]
     X:    -0.4956      Y:    -6.6521      Z:    -0.8498     Total:     6.7245

*** Psi4 exiting successfully. Buy a developer a beer!
