                               Psi4 1.3.2 release

  ==> Input File <==

--------------------------------------------------------------------------
#psi4
#
memory 32 gb

molecule  {
0 1
  O       -1.4094796     2.5863384     0.0782704
  N        1.9191590    -0.5831280    -0.0556370
  N       -1.8506563     0.2611767     0.0448957
  N       -0.3427170    -1.4672350    -0.0387560
  N        1.5166440     1.6409000    -0.0105650
  N       -2.6294290    -1.9169300     0.1110730
  C        0.5576980    -0.4369160    -0.0295360
  C        0.3337570     0.9396730    -0.0094060
  C       -1.0221650     1.4237120     0.0351730
  C        2.4390620     0.6894910    -0.0699270
  C       -1.5730580    -1.0260450     0.0187980
  C        2.6353690    -1.8453210    -0.0655260
  H        3.5092610     0.8590810    -0.0866130
  H        2.3729340    -2.4304260     0.8177420
  H        2.3794720    -2.4140780    -0.9605130
  H        3.7041390    -1.6305860    -0.0592400
  H       -2.8879820     0.5691470     0.1693100
  H       -2.3258040    -2.8676930    -0.0642460
  H       -3.4596940    -1.6726380    -0.4173570
units angstrom
no_reorient  #important for SAPT in psi4, default
symmetry c1  #important for SAPT in psi4, default
}

set PROPERTIES_ORIGIN ["COM"]
properties('MP2/aug-cc-pvtz', properties = ['dipole'])
--------------------------------------------------------------------------

    Molecular point group: c1
  Charge       = 0
  Multiplicity = 1
  Basis Set: AUG-CC-PVTZ
    Blend: AUG-CC-PVTZ
  Basis Set: (AUG-CC-PVTZ AUX)
    Blend: AUG-CC-PVTZ-JKFIT

    Orbital Energies [Eh]
    ---------------------

    Doubly Occupied:

       1A    -20.526533     2A    -15.638391     3A    -15.630166
       4A    -15.610102     5A    -15.565273     6A    -15.556763
       7A    -11.390312     8A    -11.367854     9A    -11.315887
      10A    -11.305868    11A    -11.287524    12A    -11.243156
      13A     -1.395654    14A     -1.359742    15A     -1.341894
      16A     -1.224058    17A     -1.213627    18A     -1.187757
      19A     -1.030899    20A     -0.984886    21A     -0.907766
      22A     -0.881739    23A     -0.809529    24A     -0.764766
      25A     -0.733609    26A     -0.728936    27A     -0.691769
      28A     -0.671314    29A     -0.652036    30A     -0.639470
      31A     -0.627055    32A     -0.613236    33A     -0.587782
      34A     -0.576773    35A     -0.560872    36A     -0.541141
      37A     -0.489849    38A     -0.460689    39A     -0.442240
      40A     -0.431804    41A     -0.426209    42A     -0.389956
      43A     -0.296335

  @DF-RHF Final Energy:  -578.61837190121503

   => Energetics <=

    Nuclear Repulsion Energy =            695.1135582215582644
    One-Electron Energy =               -2167.2614170638944415
    Two-Electron Energy =                 893.5294869411210357
    Total Energy =                       -578.6183719012150277
  Basis Set: (AUG-CC-PVTZ AUX)
    Blend: AUG-CC-PVTZ-RI
    Molecular point group: c1

    Geometry (in Angstrom), charge = 0, multiplicity = 1:

       Center              X                  Y                   Z               Mass
    ------------   -----------------  -----------------  -----------------  -----------------
         O           -1.420380058622     2.588023795402     0.078782151079    15.994914619570
         N            1.908258541378    -0.581442604598    -0.055125248921    14.003074004430
         N           -1.861556758622     0.262862095402     0.045407451079    14.003074004430
         N           -0.353617458622    -1.465549604598    -0.038244248921    14.003074004430
         N            1.505743541378     1.642585395402    -0.010053248921    14.003074004430
         N           -2.640329458622    -1.915244604598     0.111584751079    14.003074004430
         C            0.546797541378    -0.435230604598    -0.029024248921    12.000000000000
         C            0.322856541378     0.941358395402    -0.008894248921    12.000000000000
         C           -1.033065458622     1.425397395402     0.035684751079    12.000000000000
         C            2.428161541378     0.691176395402    -0.069415248921    12.000000000000
         C           -1.583958458622    -1.024359604598     0.019309751079    12.000000000000
         C            2.624468541378    -1.843635604598    -0.065014248921    12.000000000000
         H            3.498360541378     0.860766395402    -0.086101248921     1.007825032230
         H            2.362033541378    -2.428740604598     0.818253751079     1.007825032230
         H            2.368571541378    -2.412392604598    -0.960001248921     1.007825032230
         H            3.693238541378    -1.628900604598    -0.058728248921     1.007825032230
         H           -2.898882458622     0.570832395402     0.169821751079     1.007825032230
         H           -2.336704458622    -2.866007604598    -0.063734248921     1.007825032230
         H           -3.470594458622    -1.670952604598    -0.416845248921     1.007825032230

  Basis Set: AUG-CC-PVTZ
    Blend: AUG-CC-PVTZ
  Basis Set: (AUG-CC-PVTZ AUX)
    Blend: AUG-CC-PVTZ-JKFIT
	 Reference Energy          =    -578.6183719012150277 [Eh]
	 Singles Energy            =      -0.0000000000000000 [Eh]
	 Same-Spin Energy          =      -0.6174985387084828 [Eh]
	 Opposite-Spin Energy      =      -1.8216407981699183 [Eh]
	 Correlation Energy        =      -2.4391393368784011 [Eh]
	 Total Energy              =    -581.0575112380934115 [Eh]

	 ================> DF-SCS-MP2 Energies <==================
	-----------------------------------------------------------
	 SCS Same-Spin Scale       =       0.3333333333333333 [-]
	 SCS Opposite-Spin Scale   =       1.2000000000000000 [-]
	 SCS Same-Spin Energy      =      -0.2058328462361609 [Eh]
	 SCS Opposite-Spin Energy  =      -2.1859689578039019 [Eh]
	 SCS Correlation Energy    =      -2.3918018040400630 [Eh]
	 SCS Total Energy          =    -581.0101737052550561 [Eh]
	-----------------------------------------------------------

  Dipole Moment: [D]
     X:    -0.2799      Y:    -6.6246      Z:    -0.9356     Total:     6.6962

*** Psi4 exiting successfully. Buy a developer a beer!
