                               Psi4 1.3.2 release

  ==> Input File <==

--------------------------------------------------------------------------
#psi4
#
memory 32 gb

molecule  {
0 1
  O       -1.4697740     2.5644010     0.0803940
  N        1.9191590    -0.5831280    -0.0556370
  N       -1.8869952     0.3117988     0.0475734
  N       -0.3352005    -1.4456735    -0.0388287
  N        1.5166440     1.6409000    -0.0105650
  N       -2.6294290    -1.9169300     0.1110730
  C        0.5576980    -0.4369160    -0.0295360
  C        0.3337570     0.9396730    -0.0094060
  C       -1.0221650     1.4237120     0.0351730
  C        2.4390620     0.6894910    -0.0699270
  C       -1.5730580    -1.0260450     0.0187980
  C        2.6353690    -1.8453210    -0.0655260
  H        3.5092610     0.8590810    -0.0866130
  H        2.3729340    -2.4304260     0.8177420
  H        2.3794720    -2.4140780    -0.9605130
  H        3.7041390    -1.6305860    -0.0592400
  H       -2.8879820     0.5691470     0.1693100
  H       -2.3258040    -2.8676930    -0.0642460
  H       -3.4596940    -1.6726380    -0.4173570
units angstrom
no_reorient  #important for SAPT in psi4, default
symmetry c1  #important for SAPT in psi4, default
}

set PROPERTIES_ORIGIN ["COM"]
properties('MP2/aug-cc-pvtz', properties = ['dipole'])
--------------------------------------------------------------------------

    Molecular point group: c1
  Charge       = 0
  Multiplicity = 1
  Basis Set: AUG-CC-PVTZ
    Blend: AUG-CC-PVTZ
  Basis Set: (AUG-CC-PVTZ AUX)
    Blend: AUG-CC-PVTZ-JKFIT

    Orbital Energies [Eh]
    ---------------------

    Doubly Occupied:

       1A    -20.517792     2A    -15.631400     3A    -15.631378
       4A    -15.613894     5A    -15.568934     6A    -15.558170
       7A    -11.397362     8A    -11.361380     9A    -11.316639
      10A    -11.306345    11A    -11.288832    12A    -11.244885
      13A     -1.391923    14A     -1.359932    15A     -1.334298
      16A     -1.223082    17A     -1.218244    18A     -1.189918
      19A     -1.029378    20A     -0.985664    21A     -0.902449
      22A     -0.885716    23A     -0.809498    24A     -0.766125
      25A     -0.737251    26A     -0.731617    27A     -0.694646
      28A     -0.671754    29A     -0.649293    30A     -0.643614
      31A     -0.628584    32A     -0.609729    33A     -0.591488
      34A     -0.578270    35A     -0.560460    36A     -0.542659
      37A     -0.491632    38A     -0.462084    39A     -0.438270
      40A     -0.428764    41A     -0.426765    42A     -0.391677
      43A     -0.296178

  @DF-RHF Final Energy:  -578.62947944171890

   => Energetics <=

    Nuclear Repulsion Energy =            694.4881341140855966
    One-Electron Energy =               -2166.0192771780934891
    Two-Electron Energy =                 892.9016636222889929
    Total Energy =                       -578.6294794417188996
  Basis Set: (AUG-CC-PVTZ AUX)
    Blend: AUG-CC-PVTZ-RI
    Molecular point group: c1

    Geometry (in Angstrom), charge = 0, multiplicity = 1:

       Center              X                  Y                   Z               Mass
    ------------   -----------------  -----------------  -----------------  -----------------
         O           -1.472386781137     2.562088544777     0.080478981122    15.994914619570
         N            1.916546218863    -0.585440455223    -0.055552018878    14.003074004430
         N           -1.889607981137     0.309486344777     0.047658381122    14.003074004430
         N           -0.337813281137    -1.447985955223    -0.038743718878    14.003074004430
         N            1.514031218863     1.638587544777    -0.010480018878    14.003074004430
         N           -2.632041781137    -1.919242455223     0.111157981122    14.003074004430
         C            0.555085218863    -0.439228455223    -0.029451018878    12.000000000000
         C            0.331144218863     0.937360544777    -0.009321018878    12.000000000000
         C           -1.024777781137     1.421399544777     0.035257981122    12.000000000000
         C            2.436449218863     0.687178544777    -0.069842018878    12.000000000000
         C           -1.575670781137    -1.028357455223     0.018882981122    12.000000000000
         C            2.632756218863    -1.847633455223    -0.065441018878    12.000000000000
         H            3.506648218863     0.856768544777    -0.086528018878     1.007825032230
         H            2.370321218863    -2.432738455223     0.817826981122     1.007825032230
         H            2.376859218863    -2.416390455223    -0.960428018878     1.007825032230
         H            3.701526218863    -1.632898455223    -0.059155018878     1.007825032230
         H           -2.890594781137     0.566834544777     0.169394981122     1.007825032230
         H           -2.328416781137    -2.870005455223    -0.064161018878     1.007825032230
         H           -3.462306781137    -1.674950455223    -0.417272018878     1.007825032230

  Basis Set: AUG-CC-PVTZ
    Blend: AUG-CC-PVTZ
  Basis Set: (AUG-CC-PVTZ AUX)
    Blend: AUG-CC-PVTZ-JKFIT
	 Reference Energy          =    -578.6294794417188996 [Eh]
	 Singles Energy            =      -0.0000000000000000 [Eh]
	 Same-Spin Energy          =      -0.6165278149377253 [Eh]
	 Opposite-Spin Energy      =      -1.8198055816969401 [Eh]
	 Correlation Energy        =      -2.4363333966346654 [Eh]
	 Total Energy              =    -581.0658128383535086 [Eh]

	 ================> DF-SCS-MP2 Energies <==================
	-----------------------------------------------------------
	 SCS Same-Spin Scale       =       0.3333333333333333 [-]
	 SCS Opposite-Spin Scale   =       1.2000000000000000 [-]
	 SCS Same-Spin Energy      =      -0.2055092716459084 [Eh]
	 SCS Opposite-Spin Energy  =      -2.1837666980363282 [Eh]
	 SCS Correlation Energy    =      -2.3892759696822368 [Eh]
	 SCS Total Energy          =    -581.0187554114011164 [Eh]
	-----------------------------------------------------------

  Dipole Moment: [D]
     X:    -0.1020      Y:    -6.9443      Z:    -0.9405     Total:     7.0084

*** Psi4 exiting successfully. Buy a developer a beer!
