                               Psi4 1.3.2 release

  ==> Input File <==

--------------------------------------------------------------------------
#psi4
#
memory 32 gb

molecule  {
0 1
  O       -1.4697740     2.5644010     0.0803940
  N        1.9191590    -0.5831280    -0.0556370
  N       -1.8506063     0.2611535     0.0462776
  N       -0.3427170    -1.4672350    -0.0387560
  N        1.5166440     1.6409000    -0.0105650
  N       -2.6294290    -1.9169300     0.1110730
  C        0.5576980    -0.4369160    -0.0295360
  C        0.3065525     0.8693394    -0.0093971
  C       -1.0221650     1.4237120     0.0351730
  C        2.4390620     0.6894910    -0.0699270
  C       -1.5730580    -1.0260450     0.0187980
  C        2.6353690    -1.8453210    -0.0655260
  H        3.5092610     0.8590810    -0.0866130
  H        2.3729340    -2.4304260     0.8177420
  H        2.3794720    -2.4140780    -0.9605130
  H        3.7041390    -1.6305860    -0.0592400
  H       -2.8879820     0.5691470     0.1693100
  H       -2.3258040    -2.8676930    -0.0642460
  H       -3.4596940    -1.6726380    -0.4173570
units angstrom
no_reorient  #important for SAPT in psi4, default
symmetry c1  #important for SAPT in psi4, default
}

set PROPERTIES_ORIGIN ["COM"]
properties('MP2/aug-cc-pvtz', properties = ['dipole'])
--------------------------------------------------------------------------

    Molecular point group: c1
  Charge       = 0
  Multiplicity = 1
  Basis Set: AUG-CC-PVTZ
    Blend: AUG-CC-PVTZ
  Basis Set: (AUG-CC-PVTZ AUX)
    Blend: AUG-CC-PVTZ-JKFIT

    Orbital Energies [Eh]
    ---------------------

    Doubly Occupied:

       1A    -20.531390     2A    -15.634415     3A    -15.626779
       4A    -15.608980     5A    -15.563001     6A    -15.558369
       7A    -11.389024     8A    -11.371266     9A    -11.312596
      10A    -11.308338    11A    -11.286867    12A    -11.241292
      13A     -1.398229    14A     -1.361713    15A     -1.340148
      16A     -1.223557    17A     -1.210250    18A     -1.179704
      19A     -1.041152    20A     -0.982935    21A     -0.907869
      22A     -0.880945    23A     -0.811226    24A     -0.772262
      25A     -0.731739    26A     -0.722202    27A     -0.690592
      28A     -0.672522    29A     -0.655688    30A     -0.638631
      31A     -0.626059    32A     -0.620908    33A     -0.579200
      34A     -0.573168    35A     -0.559688    36A     -0.542472
      37A     -0.487194    38A     -0.459735    39A     -0.441227
      40A     -0.434394    41A     -0.430661    42A     -0.384784
      43A     -0.309567

  @DF-RHF Final Energy:  -578.61419783597910

   => Energetics <=

    Nuclear Repulsion Energy =            695.7515748454220557
    One-Electron Energy =               -2168.5260706392077736
    Two-Electron Energy =                 894.1602979578066197
    Total Energy =                       -578.6141978359790983
  Basis Set: (AUG-CC-PVTZ AUX)
    Blend: AUG-CC-PVTZ-RI
    Molecular point group: c1

    Geometry (in Angstrom), charge = 0, multiplicity = 1:

       Center              X                  Y                   Z               Mass
    ------------   -----------------  -----------------  -----------------  -----------------
         O           -1.472858403381     2.573327267045     0.080582094161    15.994914619570
         N            1.916074596619    -0.574201732955    -0.055448905839    14.003074004430
         N           -1.853690703381     0.270079767045     0.046465694161    14.003074004430
         N           -0.345801403381    -1.458308732955    -0.038567905839    14.003074004430
         N            1.513559596619     1.649826267045    -0.010376905839    14.003074004430
         N           -2.632513403381    -1.908003732955     0.111261094161    14.003074004430
         C            0.554613596619    -0.427989732955    -0.029347905839    12.000000000000
         C            0.303468096619     0.878265667045    -0.009209005839    12.000000000000
         C           -1.025249403381     1.432638267045     0.035361094161    12.000000000000
         C            2.435977596619     0.698417267045    -0.069738905839    12.000000000000
         C           -1.576142403381    -1.017118732955     0.018986094161    12.000000000000
         C            2.632284596619    -1.836394732955    -0.065337905839    12.000000000000
         H            3.506176596619     0.868007267045    -0.086424905839     1.007825032230
         H            2.369849596619    -2.421499732955     0.817930094161     1.007825032230
         H            2.376387596619    -2.405151732955    -0.960324905839     1.007825032230
         H            3.701054596619    -1.621659732955    -0.059051905839     1.007825032230
         H           -2.891066403381     0.578073267045     0.169498094161     1.007825032230
         H           -2.328888403381    -2.858766732955    -0.064057905839     1.007825032230
         H           -3.462778403381    -1.663711732955    -0.417168905839     1.007825032230

  Basis Set: AUG-CC-PVTZ
    Blend: AUG-CC-PVTZ
  Basis Set: (AUG-CC-PVTZ AUX)
    Blend: AUG-CC-PVTZ-JKFIT
	 Reference Energy          =    -578.6141978359790983 [Eh]
	 Singles Energy            =      -0.0000000000000000 [Eh]
	 Same-Spin Energy          =      -0.6162140995841037 [Eh]
	 Opposite-Spin Energy      =      -1.8208886047293484 [Eh]
	 Correlation Energy        =      -2.4371027043134523 [Eh]
	 Total Energy              =    -581.0513005402925728 [Eh]

	 ================> DF-SCS-MP2 Energies <==================
	-----------------------------------------------------------
	 SCS Same-Spin Scale       =       0.3333333333333333 [-]
	 SCS Opposite-Spin Scale   =       1.2000000000000000 [-]
	 SCS Same-Spin Energy      =      -0.2054046998613679 [Eh]
	 SCS Opposite-Spin Energy  =      -2.1850663256752179 [Eh]
	 SCS Correlation Energy    =      -2.3904710255365860 [Eh]
	 SCS Total Energy          =    -581.0046688615157109 [Eh]
	-----------------------------------------------------------

  Dipole Moment: [D]
     X:    -0.2347      Y:    -6.5424      Z:    -0.9384     Total:     6.6135

*** Psi4 exiting successfully. Buy a developer a beer!
