                               Psi4 1.3.2 release

  ==> Input File <==

--------------------------------------------------------------------------
#psi4
#
memory 32 gb

molecule  {
0 1
  O       -1.4697740     2.5644010     0.0803940
  N        1.9191590    -0.5831280    -0.0556370
  N       -1.9102790     0.3061000     0.0485010
  N       -0.3427170    -1.4672350    -0.0387560
  N        1.5166440     1.6409000    -0.0105650
  N       -2.6294290    -1.9169300     0.1110730
  C        0.5576980    -0.4369160    -0.0295360
  C        0.3337570     0.9396730    -0.0094060
  C       -1.0417897     1.4390393     0.0360290
  C        2.4390620     0.6894910    -0.0699270
  C       -1.5963511    -1.0317406     0.0194789
  C        2.6353690    -1.8453210    -0.0655260
  H        3.5092610     0.8590810    -0.0866130
  H        2.3729340    -2.4304260     0.8177420
  H        2.3794720    -2.4140780    -0.9605130
  H        3.7041390    -1.6305860    -0.0592400
  H       -2.8879820     0.5691470     0.1693100
  H       -2.3258040    -2.8676930    -0.0642460
  H       -3.4596940    -1.6726380    -0.4173570
units angstrom
no_reorient  #important for SAPT in psi4, default
symmetry c1  #important for SAPT in psi4, default
}

set PROPERTIES_ORIGIN ["COM"]
properties('MP2/aug-cc-pvtz', properties = ['dipole'])
--------------------------------------------------------------------------

    Molecular point group: c1
  Charge       = 0
  Multiplicity = 1
  Basis Set: AUG-CC-PVTZ
    Blend: AUG-CC-PVTZ
  Basis Set: (AUG-CC-PVTZ AUX)
    Blend: AUG-CC-PVTZ-JKFIT

    Orbital Energies [Eh]
    ---------------------

    Doubly Occupied:

       1A    -20.525807     2A    -15.629414     3A    -15.628638
       4A    -15.614032     5A    -15.567379     6A    -15.556603
       7A    -11.397105     8A    -11.365107     9A    -11.314461
      10A    -11.303758    11A    -11.286877    12A    -11.244671
      13A     -1.398944    14A     -1.361993    15A     -1.336470
      16A     -1.225491    17A     -1.211134    18A     -1.186098
      19A     -1.023342    20A     -0.982642    21A     -0.897858
      22A     -0.882349    23A     -0.806039    24A     -0.764211
      25A     -0.737881    26A     -0.733220    27A     -0.694788
      28A     -0.668137    29A     -0.651858    30A     -0.639923
      31A     -0.625506    32A     -0.616228    33A     -0.590735
      34A     -0.576395    35A     -0.560347    36A     -0.546318
      37A     -0.488894    38A     -0.459847    39A     -0.441822
      40A     -0.430380    41A     -0.426319    42A     -0.389702
      43A     -0.293239

  @DF-RHF Final Energy:  -578.62975316621225

   => Energetics <=

    Nuclear Repulsion Energy =            692.9909817723133756
    One-Electron Energy =               -2163.0775406759457837
    Two-Electron Energy =                 891.4568057374202681
    Total Energy =                       -578.6297531662122537
  Basis Set: (AUG-CC-PVTZ AUX)
    Blend: AUG-CC-PVTZ-RI
    Molecular point group: c1

    Geometry (in Angstrom), charge = 0, multiplicity = 1:

       Center              X                  Y                   Z               Mass
    ------------   -----------------  -----------------  -----------------  -----------------
         O           -1.466653814506     2.563700924759     0.080282391517    15.994914619570
         N            1.922279185494    -0.583828075241    -0.055748608483    14.003074004430
         N           -1.907158814506     0.305399924759     0.048389391517    14.003074004430
         N           -0.339596814506    -1.467935075241    -0.038867608483    14.003074004430
         N            1.519764185494     1.640199924759    -0.010676608483    14.003074004430
         N           -2.626308814506    -1.917630075241     0.110961391517    14.003074004430
         C            0.560818185494    -0.437616075241    -0.029647608483    12.000000000000
         C            0.336877185494     0.938972924759    -0.009517608483    12.000000000000
         C           -1.038669514506     1.438339224759     0.035917391517    12.000000000000
         C            2.442182185494     0.688790924759    -0.070038608483    12.000000000000
         C           -1.593230914506    -1.032440675241     0.019367291517    12.000000000000
         C            2.638489185494    -1.846021075241    -0.065637608483    12.000000000000
         H            3.512381185494     0.858380924759    -0.086724608483     1.007825032230
         H            2.376054185494    -2.431126075241     0.817630391517     1.007825032230
         H            2.382592185494    -2.414778075241    -0.960624608483     1.007825032230
         H            3.707259185494    -1.631286075241    -0.059351608483     1.007825032230
         H           -2.884861814506     0.568446924759     0.169198391517     1.007825032230
         H           -2.322683814506    -2.868393075241    -0.064357608483     1.007825032230
         H           -3.456573814506    -1.673338075241    -0.417468608483     1.007825032230

  Basis Set: AUG-CC-PVTZ
    Blend: AUG-CC-PVTZ
  Basis Set: (AUG-CC-PVTZ AUX)
    Blend: AUG-CC-PVTZ-JKFIT
	 Reference Energy          =    -578.6297531662122537 [Eh]
	 Singles Energy            =      -0.0000000000000000 [Eh]
	 Same-Spin Energy          =      -0.6158996265621879 [Eh]
	 Opposite-Spin Energy      =      -1.8192603557473075 [Eh]
	 Correlation Energy        =      -2.4351599823094956 [Eh]
	 Total Energy              =    -581.0649131485217822 [Eh]

	 ================> DF-SCS-MP2 Energies <==================
	-----------------------------------------------------------
	 SCS Same-Spin Scale       =       0.3333333333333333 [-]
	 SCS Opposite-Spin Scale   =       1.2000000000000000 [-]
	 SCS Same-Spin Energy      =      -0.2052998755207293 [Eh]
	 SCS Opposite-Spin Energy  =      -2.1831124268967690 [Eh]
	 SCS Correlation Energy    =      -2.3884123024174984 [Eh]
	 SCS Total Energy          =    -581.0181654686297179 [Eh]
	-----------------------------------------------------------

  Dipole Moment: [D]
     X:    -0.3539      Y:    -6.6919      Z:    -0.9214     Total:     6.7643

*** Psi4 exiting successfully. Buy a developer a beer!
