                               Psi4 1.3.2 release

  ==> Input File <==

--------------------------------------------------------------------------
#psi4
#
memory 32 gb

molecule  {
0 1
  O       -1.4697740     2.5644010     0.0803940
  N        1.9191590    -0.5831280    -0.0556370
  N       -1.9102790     0.3061000     0.0485010
  N       -0.3954065    -1.4187067    -0.0378012
  N        1.5166440     1.6409000    -0.0105650
  N       -2.6294290    -1.9169300     0.1110730
  C        0.5576980    -0.4369160    -0.0295360
  C        0.2620122     0.9260618    -0.0092002
  C       -1.0221650     1.4237120     0.0351730
  C        2.4390620     0.6894910    -0.0699270
  C       -1.5730580    -1.0260450     0.0187980
  C        2.6353690    -1.8453210    -0.0655260
  H        3.5092610     0.8590810    -0.0866130
  H        2.3729340    -2.4304260     0.8177420
  H        2.3794720    -2.4140780    -0.9605130
  H        3.7041390    -1.6305860    -0.0592400
  H       -2.8879820     0.5691470     0.1693100
  H       -2.3258040    -2.8676930    -0.0642460
  H       -3.4596940    -1.6726380    -0.4173570
units angstrom
no_reorient  #important for SAPT in psi4, default
symmetry c1  #important for SAPT in psi4, default
}

set PROPERTIES_ORIGIN ["COM"]
properties('MP2/aug-cc-pvtz', properties = ['dipole'])
--------------------------------------------------------------------------

    Molecular point group: c1
  Charge       = 0
  Multiplicity = 1
  Basis Set: AUG-CC-PVTZ
    Blend: AUG-CC-PVTZ
  Basis Set: (AUG-CC-PVTZ AUX)
    Blend: AUG-CC-PVTZ-JKFIT

    Orbital Energies [Eh]
    ---------------------

    Doubly Occupied:

       1A    -20.514826     2A    -15.638608     3A    -15.619551
       4A    -15.604561     5A    -15.564141     6A    -15.563750
       7A    -11.383171     8A    -11.356709     9A    -11.330796
      10A    -11.312541    11A    -11.293922    12A    -11.246502
      13A     -1.393022    14A     -1.359290    15A     -1.338321
      16A     -1.219562    17A     -1.215366    18A     -1.184149
      19A     -1.042664    20A     -0.991190    21A     -0.911988
      22A     -0.877928    23A     -0.814532    24A     -0.769861
      25A     -0.736528    26A     -0.730758    27A     -0.690496
      28A     -0.675106    29A     -0.654610    30A     -0.649036
      31A     -0.632241    32A     -0.611190    33A     -0.588660
      34A     -0.584467    35A     -0.560920    36A     -0.543345
      37A     -0.486899    38A     -0.458764    39A     -0.433146
      40A     -0.427685    41A     -0.424683    42A     -0.389212
      43A     -0.311141

  @DF-RHF Final Energy:  -578.62106136657860

   => Energetics <=

    Nuclear Repulsion Energy =            695.1208629876064151
    One-Electron Energy =               -2167.2121665977406337
    Two-Electron Energy =                 893.4702422435556173
    Total Energy =                       -578.6210613665786013
  Basis Set: (AUG-CC-PVTZ AUX)
    Blend: AUG-CC-PVTZ-RI
    Molecular point group: c1

    Geometry (in Angstrom), charge = 0, multiplicity = 1:

       Center              X                  Y                   Z               Mass
    ------------   -----------------  -----------------  -----------------  -----------------
         O           -1.460088288351     2.561273817675     0.080298161450    15.994914619570
         N            1.928844711649    -0.586255182325    -0.055732838550    14.003074004430
         N           -1.900593288351     0.302972817675     0.048405161450    14.003074004430
         N           -0.385720788351    -1.421833882325    -0.037897038550    14.003074004430
         N            1.526329711649     1.637772817675    -0.010660838550    14.003074004430
         N           -2.619743288351    -1.920057182325     0.110977161450    14.003074004430
         C            0.567383711649    -0.440043182325    -0.029631838550    12.000000000000
         C            0.271697911649     0.922934617675    -0.009296038550    12.000000000000
         C           -1.012479288351     1.420584817675     0.035077161450    12.000000000000
         C            2.448747711649     0.686363817675    -0.070022838550    12.000000000000
         C           -1.563372288351    -1.029172182325     0.018702161450    12.000000000000
         C            2.645054711649    -1.848448182325    -0.065621838550    12.000000000000
         H            3.518946711649     0.855953817675    -0.086708838550     1.007825032230
         H            2.382619711649    -2.433553182325     0.817646161450     1.007825032230
         H            2.389157711649    -2.417205182325    -0.960608838550     1.007825032230
         H            3.713824711649    -1.633713182325    -0.059335838550     1.007825032230
         H           -2.878296288351     0.566019817675     0.169214161450     1.007825032230
         H           -2.316118288351    -2.870820182325    -0.064341838550     1.007825032230
         H           -3.450008288351    -1.675765182325    -0.417452838550     1.007825032230

  Basis Set: AUG-CC-PVTZ
    Blend: AUG-CC-PVTZ
  Basis Set: (AUG-CC-PVTZ AUX)
    Blend: AUG-CC-PVTZ-JKFIT
	 Reference Energy          =    -578.6210613665786013 [Eh]
	 Singles Energy            =      -0.0000000000000000 [Eh]
	 Same-Spin Energy          =      -0.6151568865868470 [Eh]
	 Opposite-Spin Energy      =      -1.8184470843839020 [Eh]
	 Correlation Energy        =      -2.4336039709707489 [Eh]
	 Total Energy              =    -581.0546653375492951 [Eh]

	 ================> DF-SCS-MP2 Energies <==================
	-----------------------------------------------------------
	 SCS Same-Spin Scale       =       0.3333333333333333 [-]
	 SCS Opposite-Spin Scale   =       1.2000000000000000 [-]
	 SCS Same-Spin Energy      =      -0.2050522955289490 [Eh]
	 SCS Opposite-Spin Energy  =      -2.1821365012606821 [Eh]
	 SCS Correlation Energy    =      -2.3871887967896313 [Eh]
	 SCS Total Energy          =    -581.0082501633681886 [Eh]
	-----------------------------------------------------------

  Dipole Moment: [D]
     X:     0.4339      Y:    -6.9948      Z:    -0.9580     Total:     7.0734

*** Psi4 exiting successfully. Buy a developer a beer!
