                               Psi4 1.3.2 release

  ==> Input File <==

--------------------------------------------------------------------------
#psi4
#
memory 32 gb

molecule  {
0 1
  O       -1.4697740     2.5644010     0.0803940
  N        1.9191590    -0.5831280    -0.0556370
  N       -1.9102790     0.3061000     0.0485010
  N       -0.3427170    -1.4672350    -0.0387560
  N        1.5166440     1.6409000    -0.0105650
  N       -2.6294290    -1.9169300     0.1110730
  C        0.5576980    -0.4369160    -0.0295360
  C        0.3337570     0.9396730    -0.0094060
  C       -1.0221650     1.4237120     0.0351730
  C        2.4390620     0.6894910    -0.0699270
  C       -1.6493326    -1.0903707     0.0254607
  C        2.6353690    -1.8453210    -0.0655260
  H        3.5092610     0.8590810    -0.0866130
  H        2.3729340    -2.4304260     0.8177420
  H        2.3794720    -2.4140780    -0.9605130
  H        3.7041390    -1.6305860    -0.0592400
  H       -2.8879820     0.5691470     0.1693100
  H       -2.3258040    -2.8676930    -0.0642460
  H       -3.4596940    -1.6726380    -0.4173570
units angstrom
no_reorient  #important for SAPT in psi4, default
symmetry c1  #important for SAPT in psi4, default
}

set PROPERTIES_ORIGIN ["COM"]
properties('MP2/aug-cc-pvtz', properties = ['dipole'])
--------------------------------------------------------------------------

    Molecular point group: c1
  Charge       = 0
  Multiplicity = 1
  Basis Set: AUG-CC-PVTZ
    Blend: AUG-CC-PVTZ
  Basis Set: (AUG-CC-PVTZ AUX)
    Blend: AUG-CC-PVTZ-JKFIT

    Orbital Energies [Eh]
    ---------------------

    Doubly Occupied:

       1A    -20.516308     2A    -15.628743     3A    -15.627737
       4A    -15.623791     5A    -15.564506     6A    -15.554589
       7A    -11.403104     8A    -11.360694     9A    -11.314271
      10A    -11.302101    11A    -11.285418    12A    -11.239751
      13A     -1.385244    14A     -1.355387    15A     -1.346754
      16A     -1.238055    17A     -1.202007    18A     -1.177809
      19A     -1.022728    20A     -0.981765    21A     -0.895785
      22A     -0.884303    23A     -0.808349    24A     -0.766212
      25A     -0.756183    26A     -0.728395    27A     -0.700415
      28A     -0.665994    29A     -0.649716    30A     -0.639929
      31A     -0.623467    32A     -0.605512    33A     -0.587771
      34A     -0.574970    35A     -0.565915    36A     -0.540911
      37A     -0.479872    38A     -0.460866    39A     -0.433619
      40A     -0.422381    41A     -0.421413    42A     -0.387303
      43A     -0.289099

  @DF-RHF Final Energy:  -578.61284454248175

   => Energetics <=

    Nuclear Repulsion Energy =            692.2325679142879835
    One-Electron Energy =               -2161.6525455005812546
    Two-Electron Energy =                 890.8071330438115183
    Total Energy =                       -578.6128445424817528
  Basis Set: (AUG-CC-PVTZ AUX)
    Blend: AUG-CC-PVTZ-RI
    Molecular point group: c1

    Geometry (in Angstrom), charge = 0, multiplicity = 1:

       Center              X                  Y                   Z               Mass
    ------------   -----------------  -----------------  -----------------  -----------------
         O           -1.464228821595     2.569077524754     0.079909752995    15.994914619570
         N            1.924704178405    -0.578451475246    -0.056121247005    14.003074004430
         N           -1.904733821595     0.310776524754     0.048016752995    14.003074004430
         N           -0.337171821595    -1.462558475246    -0.039240247005    14.003074004430
         N            1.522189178405     1.645576524754    -0.011049247005    14.003074004430
         N           -2.623883821595    -1.912253475246     0.110588752995    14.003074004430
         C            0.563243178405    -0.432239475246    -0.030020247005    12.000000000000
         C            0.339302178405     0.944349524754    -0.009890247005    12.000000000000
         C           -1.016619821595     1.428388524754     0.034688752995    12.000000000000
         C            2.444607178405     0.694167524754    -0.070411247005    12.000000000000
         C           -1.643787421595    -1.085694175246     0.024976452995    12.000000000000
         C            2.640914178405    -1.840644475246    -0.066010247005    12.000000000000
         H            3.514806178405     0.863757524754    -0.087097247005     1.007825032230
         H            2.378479178405    -2.425749475246     0.817257752995     1.007825032230
         H            2.385017178405    -2.409401475246    -0.960997247005     1.007825032230
         H            3.709684178405    -1.625909475246    -0.059724247005     1.007825032230
         H           -2.882436821595     0.573823524754     0.168825752995     1.007825032230
         H           -2.320258821595    -2.863016475246    -0.064730247005     1.007825032230
         H           -3.454148821595    -1.667961475246    -0.417841247005     1.007825032230

  Basis Set: AUG-CC-PVTZ
    Blend: AUG-CC-PVTZ
  Basis Set: (AUG-CC-PVTZ AUX)
    Blend: AUG-CC-PVTZ-JKFIT
	 Reference Energy          =    -578.6128445424817528 [Eh]
	 Singles Energy            =      -0.0000000000000000 [Eh]
	 Same-Spin Energy          =      -0.6171464107397328 [Eh]
	 Opposite-Spin Energy      =      -1.8210113780829698 [Eh]
	 Correlation Energy        =      -2.4381577888227026 [Eh]
	 Total Energy              =    -581.0510023313044030 [Eh]

	 ================> DF-SCS-MP2 Energies <==================
	-----------------------------------------------------------
	 SCS Same-Spin Scale       =       0.3333333333333333 [-]
	 SCS Opposite-Spin Scale   =       1.2000000000000000 [-]
	 SCS Same-Spin Energy      =      -0.2057154702465776 [Eh]
	 SCS Opposite-Spin Energy  =      -2.1852136536995634 [Eh]
	 SCS Correlation Energy    =      -2.3909291239461412 [Eh]
	 SCS Total Energy          =    -581.0037736664279464 [Eh]
	-----------------------------------------------------------

  Dipole Moment: [D]
     X:    -0.7694      Y:    -7.3665      Z:    -0.8992     Total:     7.4609

*** Psi4 exiting successfully. Buy a developer a beer!
