                               Psi4 1.3.2 release

  ==> Input File <==

--------------------------------------------------------------------------
#psi4
#
memory 32 gb

molecule  {
0 1
  O       -1.4697740     2.5644010     0.0803940
  N        1.9302666    -0.5876164    -0.0562780
  N       -1.9102790     0.3061000     0.0485010
  N       -0.3427170    -1.4672350    -0.0387560
  N        1.5249748     1.6489290    -0.0109250
  N       -2.6294290    -1.9169300     0.1110730
  C        0.5576980    -0.4369160    -0.0295360
  C        0.3337570     0.9396730    -0.0094060
  C       -1.0221650     1.4237120     0.0351730
  C        2.4390620     0.6894910    -0.0699270
  C       -1.5730580    -1.0260450     0.0187980
  C        2.6353690    -1.8453210    -0.0655260
  H        3.5092610     0.8590810    -0.0866130
  H        2.3729340    -2.4304260     0.8177420
  H        2.3794720    -2.4140780    -0.9605130
  H        3.7041390    -1.6305860    -0.0592400
  H       -2.8879820     0.5691470     0.1693100
  H       -2.3258040    -2.8676930    -0.0642460
  H       -3.4596940    -1.6726380    -0.4173570
units angstrom
no_reorient  #important for SAPT in psi4, default
symmetry c1  #important for SAPT in psi4, default
}

set PROPERTIES_ORIGIN ["COM"]
properties('MP2/aug-cc-pvtz', properties = ['dipole'])
--------------------------------------------------------------------------

    Molecular point group: c1
  Charge       = 0
  Multiplicity = 1
  Basis Set: AUG-CC-PVTZ
    Blend: AUG-CC-PVTZ
  Basis Set: (AUG-CC-PVTZ AUX)
    Blend: AUG-CC-PVTZ-JKFIT

    Orbital Energies [Eh]
    ---------------------

    Doubly Occupied:

       1A    -20.521088     2A    -15.632718     3A    -15.629788
       4A    -15.611032     5A    -15.571563     6A    -15.560808
       7A    -11.396545     8A    -11.364694     9A    -11.321051
      10A    -11.308586    11A    -11.288492    12A    -11.248544
      13A     -1.390494    14A     -1.358964    15A     -1.333832
      16A     -1.219479    17A     -1.215955    18A     -1.190940
      19A     -1.029395    20A     -0.986390    21A     -0.901214
      22A     -0.882542    23A     -0.807685    24A     -0.766635
      25A     -0.740447    26A     -0.729234    27A     -0.692396
      28A     -0.670901    29A     -0.651619    30A     -0.642153
      31A     -0.627116    32A     -0.611384    33A     -0.591245
      34A     -0.576261    35A     -0.559806    36A     -0.541458
      37A     -0.494615    38A     -0.459585    39A     -0.440159
      40A     -0.430247    41A     -0.429419    42A     -0.391861
      43A     -0.299382

  @DF-RHF Final Energy:  -578.62978761128829

   => Energetics <=

    Nuclear Repulsion Energy =            692.8932389049068661
    One-Electron Energy =               -2162.8106100176646578
    Two-Electron Energy =                 891.2875835014694985
    Total Energy =                       -578.6297876112882932
  Basis Set: (AUG-CC-PVTZ AUX)
    Blend: AUG-CC-PVTZ-RI
    Molecular point group: c1

    Geometry (in Angstrom), charge = 0, multiplicity = 1:

       Center              X                  Y                   Z               Mass
    ------------   -----------------  -----------------  -----------------  -----------------
         O           -1.471422909518     2.564100773863     0.080479040506    15.994914619570
         N            1.928617690482    -0.587916626137    -0.056192959494    14.003074004430
         N           -1.911927909518     0.305799773863     0.048586040506    14.003074004430
         N           -0.344365909518    -1.467535226137    -0.038670959494    14.003074004430
         N            1.523325890482     1.648628773863    -0.010839959494    14.003074004430
         N           -2.631077909518    -1.917230226137     0.111158040506    14.003074004430
         C            0.556049090482    -0.437216226137    -0.029450959494    12.000000000000
         C            0.332108090482     0.939372773863    -0.009320959494    12.000000000000
         C           -1.023813909518     1.423411773863     0.035258040506    12.000000000000
         C            2.437413090482     0.689190773863    -0.069841959494    12.000000000000
         C           -1.574706909518    -1.026345226137     0.018883040506    12.000000000000
         C            2.633720090482    -1.845621226137    -0.065440959494    12.000000000000
         H            3.507612090482     0.858780773863    -0.086527959494     1.007825032230
         H            2.371285090482    -2.430726226137     0.817827040506     1.007825032230
         H            2.377823090482    -2.414378226137    -0.960427959494     1.007825032230
         H            3.702490090482    -1.630886226137    -0.059154959494     1.007825032230
         H           -2.889630909518     0.568846773863     0.169395040506     1.007825032230
         H           -2.327452909518    -2.867993226137    -0.064160959494     1.007825032230
         H           -3.461342909518    -1.672938226137    -0.417271959494     1.007825032230

  Basis Set: AUG-CC-PVTZ
    Blend: AUG-CC-PVTZ
  Basis Set: (AUG-CC-PVTZ AUX)
    Blend: AUG-CC-PVTZ-JKFIT
	 Reference Energy          =    -578.6297876112882932 [Eh]
	 Singles Energy            =      -0.0000000000000000 [Eh]
	 Same-Spin Energy          =      -0.6160515784922114 [Eh]
	 Opposite-Spin Energy      =      -1.8201402521896344 [Eh]
	 Correlation Energy        =      -2.4361918306818460 [Eh]
	 Total Energy              =    -581.0659794419701711 [Eh]

	 ================> DF-SCS-MP2 Energies <==================
	-----------------------------------------------------------
	 SCS Same-Spin Scale       =       0.3333333333333333 [-]
	 SCS Opposite-Spin Scale   =       1.2000000000000000 [-]
	 SCS Same-Spin Energy      =      -0.2053505261640705 [Eh]
	 SCS Opposite-Spin Energy  =      -2.1841683026275613 [Eh]
	 SCS Correlation Energy    =      -2.3895188287916316 [Eh]
	 SCS Total Energy          =    -581.0193064400799585 [Eh]
	-----------------------------------------------------------

  Dipole Moment: [D]
     X:    -0.0655      Y:    -6.7889      Z:    -0.9358     Total:     6.8534

*** Psi4 exiting successfully. Buy a developer a beer!
