                               Psi4 1.4a3.dev225

  ==> Input File <==

--------------------------------------------------------------------------
#psi4
#
memory 32 gb

molecule  {
0 1
  O        1.6617960     2.5152110     0.0229320
  N       -1.9329240    -0.4005880    -0.0147920
  N        1.9545050     0.2323110     0.0113410
  N        0.2669280    -1.4301930    -0.0208730
  N       -1.3834780     1.7915450    -0.0193170
  N        2.5221760    -2.0364130     0.0734370
  C       -0.5634760    -0.3442740    -0.0026930
  C       -0.2601240     0.9657757    -0.0143293
  C        1.1380320     1.4076430     0.0031510
  C       -2.3683130     0.9036150    -0.0164120
  C        1.5275980    -1.0721200    -0.0057920
  C       -2.7322540    -1.6127190     0.0339130
  H       -3.4247340     1.1445090    -0.0228960
  H       -2.2735910    -2.3629350    -0.6109560
  H       -2.7853950    -1.9995380     1.0543320
  H       -3.7366260    -1.3828770    -0.3245450
  H        2.9468270     0.4301980     0.1174830
  H        2.1372730    -2.9631930    -0.0801050
  H        3.3349710    -1.8642740    -0.5097710
units angstrom
no_reorient  #important for SAPT in psi4, default
symmetry c1  #important for SAPT in psi4, default
}

set PROPERTIES_ORIGIN ["COM"]
properties('MP2/aug-cc-pvtz', properties = ['dipole'])
--------------------------------------------------------------------------

    Molecular point group: c1
  Charge       = 0
  Multiplicity = 1
  Basis Set: AUG-CC-PVTZ
    Blend: AUG-CC-PVTZ
  Basis Set: (AUG-CC-PVTZ AUX)
    Blend: AUG-CC-PVTZ-JKFIT

    Orbital Energies [Eh]
    ---------------------

    Doubly Occupied:

       1A    -20.526870     2A    -15.629120     3A    -15.628801
       4A    -15.610107     5A    -15.569398     6A    -15.559498
       7A    -11.395288     8A    -11.369162     9A    -11.312510
      10A    -11.307524    11A    -11.287519    12A    -11.244899
      13A     -1.392447    14A     -1.362418    15A     -1.333834
      16A     -1.218831    17A     -1.214445    18A     -1.187127
      19A     -1.034039    20A     -0.982723    21A     -0.898491
      22A     -0.881680    23A     -0.808847    24A     -0.771213
      25A     -0.738096    26A     -0.726219    27A     -0.691039
      28A     -0.670979    29A     -0.651250    30A     -0.640005
      31A     -0.624486    32A     -0.614841    33A     -0.587097
      34A     -0.576548    35A     -0.560967    36A     -0.542093
      37A     -0.491952    38A     -0.459781    39A     -0.440824
      40A     -0.434356    41A     -0.430082    42A     -0.390013
      43A     -0.305071

  @DF-RHF Final Energy:  -578.62855033159610

   => Energetics <=

    Nuclear Repulsion Energy =            693.7051848384554660
    One-Electron Energy =               -2164.4624849900524168
    Two-Electron Energy =                 892.1287498200009622
    Total Energy =                       -578.6285503315961023
  Basis Set: (AUG-CC-PVTZ AUX)
    Blend: AUG-CC-PVTZ-RI
    Molecular point group: c1

    Geometry (in Angstrom), charge = 0, multiplicity = 1:

       Center              X                  Y                   Z               Mass
    ------------   -----------------  -----------------  -----------------  -----------------
         O            1.639791910950     2.464778069664     0.020637876826    15.994914619570
         N           -1.954928089050    -0.451020930336    -0.017086123174    14.003074004430
         N            1.932500910950     0.181878069664     0.009046876826    14.003074004430
         N            0.244923910950    -1.480625930336    -0.023167123174    14.003074004430
         N           -1.405482089050     1.741112069664    -0.021611123174    14.003074004430
         N            2.500171910950    -2.086845930336     0.071142876826    14.003074004430
         C           -0.585480089050    -0.394706930336    -0.004987123174    12.000000000000
         C           -0.282128089050     0.915342769664    -0.016623423174    12.000000000000
         C            1.116027910950     1.357210069664     0.000856876826    12.000000000000
         C           -2.390317089050     0.853182069664    -0.018706123174    12.000000000000
         C            1.505593910950    -1.122552930336    -0.008086123174    12.000000000000
         C           -2.754258089050    -1.663151930336     0.031618876826    12.000000000000
         H           -3.446738089050     1.094076069664    -0.025190123174     1.007825032230
         H           -2.295595089050    -2.413367930336    -0.613250123174     1.007825032230
         H           -2.807399089050    -2.049970930336     1.052037876826     1.007825032230
         H           -3.758630089050    -1.433309930336    -0.326839123174     1.007825032230
         H            2.924822910950     0.379765069664     0.115188876826     1.007825032230
         H            2.115268910950    -3.013625930336    -0.082399123174     1.007825032230
         H            3.312966910950    -1.914706930336    -0.512065123174     1.007825032230

  Basis Set: AUG-CC-PVTZ
    Blend: AUG-CC-PVTZ
  Basis Set: (AUG-CC-PVTZ AUX)
    Blend: AUG-CC-PVTZ-JKFIT
	 Reference Energy          =    -578.6285503315961023 [Eh]
	 Singles Energy            =      -0.0000000000000000 [Eh]
	 Same-Spin Energy          =      -0.6152471517004837 [Eh]
	 Opposite-Spin Energy      =      -1.8192517023242047 [Eh]
	 Correlation Energy        =      -2.4344988540246884 [Eh]
	 Total Energy              =    -581.0630491856207982 [Eh]

	 ================> DF-SCS-MP2 Energies <==================
	-----------------------------------------------------------
	 SCS Same-Spin Scale       =       0.3333333333333333 [-]
	 SCS Opposite-Spin Scale   =       1.2000000000000000 [-]
	 SCS Same-Spin Energy      =      -0.2050823839001612 [Eh]
	 SCS Opposite-Spin Energy  =      -2.1831020427890455 [Eh]
	 SCS Correlation Energy    =      -2.3881844266892069 [Eh]
	 SCS Total Energy          =    -581.0167347582853381 [Eh]
	-----------------------------------------------------------

  Dipole Moment: [D]
     X:    -0.4099      Y:    -6.6543      Z:    -0.8510     Total:     6.7210

*** Psi4 exiting successfully. Buy a developer a beer!
