                               Psi4 1.3.2 release

  ==> Input File <==

--------------------------------------------------------------------------
#psi4
#
memory 32 gb

molecule  {
0 1
  O       -1.4697740     2.5644010     0.0803940
  N        1.8751330    -0.5642087    -0.0530844
  N       -1.9102790     0.3061000     0.0485010
  N       -0.3427170    -1.4672350    -0.0387560
  N        1.4840294     1.6080656    -0.0091705
  N       -2.6294290    -1.9169300     0.1110730
  C        0.5576980    -0.4369160    -0.0295360
  C        0.3337570     0.9396730    -0.0094060
  C       -1.0221650     1.4237120     0.0351730
  C        2.4390620     0.6894910    -0.0699270
  C       -1.5730580    -1.0260450     0.0187980
  C        2.6353690    -1.8453210    -0.0655260
  H        3.5092610     0.8590810    -0.0866130
  H        2.3729340    -2.4304260     0.8177420
  H        2.3794720    -2.4140780    -0.9605130
  H        3.7041390    -1.6305860    -0.0592400
  H       -2.8879820     0.5691470     0.1693100
  H       -2.3258040    -2.8676930    -0.0642460
  H       -3.4596940    -1.6726380    -0.4173570
units angstrom
no_reorient  #important for SAPT in psi4, default
symmetry c1  #important for SAPT in psi4, default
}

set PROPERTIES_ORIGIN ["COM"]
properties('MP2/aug-cc-pvtz', properties = ['dipole'])
--------------------------------------------------------------------------

    Molecular point group: c1
  Charge       = 0
  Multiplicity = 1
  Basis Set: AUG-CC-PVTZ
    Blend: AUG-CC-PVTZ
  Basis Set: (AUG-CC-PVTZ AUX)
    Blend: AUG-CC-PVTZ-JKFIT

    Orbital Energies [Eh]
    ---------------------

    Doubly Occupied:

       1A    -20.520335     2A    -15.633267     3A    -15.627469
       4A    -15.609439     5A    -15.568137     6A    -15.554483
       7A    -11.394219     8A    -11.362725     9A    -11.311081
      10A    -11.301660    11A    -11.292886    12A    -11.240480
      13A     -1.392862    14A     -1.367616    15A     -1.334263
      16A     -1.218330    17A     -1.217361    18A     -1.189561
      19A     -1.029977    20A     -0.986758    21A     -0.903552
      22A     -0.880645    23A     -0.808575    24A     -0.767911
      25A     -0.744542    26A     -0.729281    27A     -0.691482
      28A     -0.672698    29A     -0.643392    30A     -0.641596
      31A     -0.624506    32A     -0.606609    33A     -0.602749
      34A     -0.585809    35A     -0.566245    36A     -0.541993
      37A     -0.489982    38A     -0.458262    39A     -0.439250
      40A     -0.428136    41A     -0.423483    42A     -0.395957
      43A     -0.294615

  @DF-RHF Final Energy:  -578.62794372281530

   => Energetics <=

    Nuclear Repulsion Energy =            695.7555468628132758
    One-Electron Energy =               -2168.5786171900231238
    Two-Electron Energy =                 894.1951266043944315
    Total Energy =                       -578.6279437228153029
  Basis Set: (AUG-CC-PVTZ AUX)
    Blend: AUG-CC-PVTZ-RI
    Molecular point group: c1

    Geometry (in Angstrom), charge = 0, multiplicity = 1:

       Center              X                  Y                   Z               Mass
    ------------   -----------------  -----------------  -----------------  -----------------
         O           -1.463272175811     2.565581604870     0.080059275048    15.994914619570
         N            1.881634824189    -0.563028095130    -0.053419124952    14.003074004430
         N           -1.903777175811     0.307280604870     0.048166275048    14.003074004430
         N           -0.336215175811    -1.466054395130    -0.039090724952    14.003074004430
         N            1.490531224189     1.609246204870    -0.009505224952    14.003074004430
         N           -2.622927175811    -1.915749395130     0.110738275048    14.003074004430
         C            0.564199824189    -0.435735395130    -0.029870724952    12.000000000000
         C            0.340258824189     0.940853604870    -0.009740724952    12.000000000000
         C           -1.015663175811     1.424892604870     0.034838275048    12.000000000000
         C            2.445563824189     0.690671604870    -0.070261724952    12.000000000000
         C           -1.566556175811    -1.024864395130     0.018463275048    12.000000000000
         C            2.641870824189    -1.844140395130    -0.065860724952    12.000000000000
         H            3.515762824189     0.860261604870    -0.086947724952     1.007825032230
         H            2.379435824189    -2.429245395130     0.817407275048     1.007825032230
         H            2.385973824189    -2.412897395130    -0.960847724952     1.007825032230
         H            3.710640824189    -1.629405395130    -0.059574724952     1.007825032230
         H           -2.881480175811     0.570327604870     0.168975275048     1.007825032230
         H           -2.319302175811    -2.866512395130    -0.064580724952     1.007825032230
         H           -3.453192175811    -1.671457395130    -0.417691724952     1.007825032230

  Basis Set: AUG-CC-PVTZ
    Blend: AUG-CC-PVTZ
  Basis Set: (AUG-CC-PVTZ AUX)
    Blend: AUG-CC-PVTZ-JKFIT
	 Reference Energy          =    -578.6279437228153029 [Eh]
	 Singles Energy            =      -0.0000000000000000 [Eh]
	 Same-Spin Energy          =      -0.6162872822031797 [Eh]
	 Opposite-Spin Energy      =      -1.8188545616025555 [Eh]
	 Correlation Energy        =      -2.4351418438057353 [Eh]
	 Total Energy              =    -581.0630855666209982 [Eh]

	 ================> DF-SCS-MP2 Energies <==================
	-----------------------------------------------------------
	 SCS Same-Spin Scale       =       0.3333333333333333 [-]
	 SCS Opposite-Spin Scale   =       1.2000000000000000 [-]
	 SCS Same-Spin Energy      =      -0.2054290940677266 [Eh]
	 SCS Opposite-Spin Energy  =      -2.1826254739230664 [Eh]
	 SCS Correlation Energy    =      -2.3880545679907930 [Eh]
	 SCS Total Energy          =    -581.0159982908061238 [Eh]
	-----------------------------------------------------------

  Dipole Moment: [D]
     X:     0.1800      Y:    -6.7923      Z:    -0.9441     Total:     6.8600

*** Psi4 exiting successfully. Buy a developer a beer!
