                               Psi4 1.3.2 release

  ==> Input File <==

--------------------------------------------------------------------------
#psi4
#
memory 32 gb

molecule  {
0 1
  O       -1.4697740     2.5644010     0.0803940
  N        1.9191590    -0.5831280    -0.0556370
  N       -1.9102790     0.3061000     0.0485010
  N       -0.3427170    -1.4672350    -0.0387560
  N        1.5166440     1.6409000    -0.0105650
  N       -2.6294290    -1.9169300     0.1110730
  C        0.5576980    -0.4369160    -0.0295360
  C        0.3337570     0.9396730    -0.0094060
  C       -1.0221650     1.4237120     0.0351730
  C        2.4390620     0.6894910    -0.0699270
  C       -1.5730580    -1.0260450     0.0187980
  C        2.7340701    -2.0192642    -0.0668888
  H        3.5092610     0.8590810    -0.0866130
  H        2.3729340    -2.4304260     0.8177420
  H        2.3794720    -2.4140780    -0.9605130
  H        3.7041390    -1.6305860    -0.0592400
  H       -2.8879820     0.5691470     0.1693100
  H       -2.3258040    -2.8676930    -0.0642460
  H       -3.4596940    -1.6726380    -0.4173570
units angstrom
no_reorient  #important for SAPT in psi4, default
symmetry c1  #important for SAPT in psi4, default
}

set PROPERTIES_ORIGIN ["COM"]
properties('MP2/aug-cc-pvtz', properties = ['dipole'])
--------------------------------------------------------------------------

    Molecular point group: c1
  Charge       = 0
  Multiplicity = 1
  Basis Set: AUG-CC-PVTZ
    Blend: AUG-CC-PVTZ
  Basis Set: (AUG-CC-PVTZ AUX)
    Blend: AUG-CC-PVTZ-JKFIT

    Orbital Energies [Eh]
    ---------------------

    Doubly Occupied:

       1A    -20.516488     2A    -15.625332     3A    -15.623158
       4A    -15.607990     5A    -15.566860     6A    -15.552381
       7A    -11.392007     8A    -11.359618     9A    -11.311962
      10A    -11.302788    11A    -11.299952    12A    -11.240577
      13A     -1.385136    14A     -1.347425    15A     -1.325727
      16A     -1.215399    17A     -1.210443    18A     -1.166226
      19A     -1.022928    20A     -0.995875    21A     -0.893791
      22A     -0.877634    23A     -0.801695    24A     -0.754488
      25A     -0.733524    26A     -0.724191    27A     -0.687233
      28A     -0.672117    29A     -0.649137    30A     -0.636851
      31A     -0.625096    32A     -0.613324    33A     -0.592543
      34A     -0.574322    35A     -0.569235    36A     -0.540448
      37A     -0.484532    38A     -0.455615    39A     -0.434184
      40A     -0.424966    41A     -0.423633    42A     -0.388581
      43A     -0.292846

  @DF-RHF Final Energy:  -578.60298745500381

   => Energetics <=

    Nuclear Repulsion Energy =            689.4134041899080785
    One-Electron Energy =               -2156.1962676310276947
    Two-Electron Energy =                 888.1798759861158032
    Total Energy =                       -578.6029874550038130
  Basis Set: (AUG-CC-PVTZ AUX)
    Blend: AUG-CC-PVTZ-RI
    Molecular point group: c1

    Geometry (in Angstrom), charge = 0, multiplicity = 1:

       Center              X                  Y                   Z               Mass
    ------------   -----------------  -----------------  -----------------  -----------------
         O           -1.476949311332     2.577046564362     0.080493195670    15.994914619570
         N            1.911983688668    -0.570482435638    -0.055537804330    14.003074004430
         N           -1.917454311332     0.318745564362     0.048600195670    14.003074004430
         N           -0.349892311332    -1.454589435638    -0.038656804330    14.003074004430
         N            1.509468688668     1.653545564362    -0.010465804330    14.003074004430
         N           -2.636604311332    -1.904284435638     0.111172195670    14.003074004430
         C            0.550522688668    -0.424270435638    -0.029436804330    12.000000000000
         C            0.326581688668     0.952318564362    -0.009306804330    12.000000000000
         C           -1.029340311332     1.436357564362     0.035272195670    12.000000000000
         C            2.431886688668     0.702136564362    -0.069827804330    12.000000000000
         C           -1.580233311332    -1.013399435638     0.018897195670    12.000000000000
         C            2.726894788668    -2.006618635638    -0.066789604330    12.000000000000
         H            3.502085688668     0.871726564362    -0.086513804330     1.007825032230
         H            2.365758688668    -2.417780435638     0.817841195670     1.007825032230
         H            2.372296688668    -2.401432435638    -0.960413804330     1.007825032230
         H            3.696963688668    -1.617940435638    -0.059140804330     1.007825032230
         H           -2.895157311332     0.581792564362     0.169409195670     1.007825032230
         H           -2.332979311332    -2.855047435638    -0.064146804330     1.007825032230
         H           -3.466869311332    -1.659992435638    -0.417257804330     1.007825032230

  Basis Set: AUG-CC-PVTZ
    Blend: AUG-CC-PVTZ
  Basis Set: (AUG-CC-PVTZ AUX)
    Blend: AUG-CC-PVTZ-JKFIT
	 Reference Energy          =    -578.6029874550038130 [Eh]
	 Singles Energy            =      -0.0000000000000000 [Eh]
	 Same-Spin Energy          =      -0.6161924175032811 [Eh]
	 Opposite-Spin Energy      =      -1.8215503181701753 [Eh]
	 Correlation Energy        =      -2.4377427356734565 [Eh]
	 Total Energy              =    -581.0407301906773228 [Eh]

	 ================> DF-SCS-MP2 Energies <==================
	-----------------------------------------------------------
	 SCS Same-Spin Scale       =       0.3333333333333333 [-]
	 SCS Opposite-Spin Scale   =       1.2000000000000000 [-]
	 SCS Same-Spin Energy      =      -0.2053974725010937 [Eh]
	 SCS Opposite-Spin Energy  =      -2.1858603818042104 [Eh]
	 SCS Correlation Energy    =      -2.3912578543053042 [Eh]
	 SCS Total Energy          =    -580.9942453093091217 [Eh]
	-----------------------------------------------------------

  Dipole Moment: [D]
     X:     0.3834      Y:    -7.2638      Z:    -0.9466     Total:     7.3352

*** Psi4 exiting successfully. Buy a developer a beer!
