                               Psi4 1.4a3.dev225

  ==> Input File <==

--------------------------------------------------------------------------
#psi4
#
memory 32 gb

molecule  {
0 1
  O        1.6617960     2.5152110     0.0229320
  N       -1.9329240    -0.4005880    -0.0147920
  N        1.9545050     0.2323110     0.0113410
  N        0.2669280    -1.4301930    -0.0208730
  N       -1.3834780     1.7915450    -0.0193170
  N        2.5221760    -2.0364130     0.0734370
  C       -0.5634760    -0.3442740    -0.0026930
  C       -0.2488450     1.0144850    -0.0147620
  C        1.1572723     1.4130973     0.0033995
  C       -2.3683130     0.9036150    -0.0164120
  C        1.5275980    -1.0721200    -0.0057920
  C       -2.7322540    -1.6127190     0.0339130
  H       -3.4247340     1.1445090    -0.0228960
  H       -2.2735910    -2.3629350    -0.6109560
  H       -2.7853950    -1.9995380     1.0543320
  H       -3.7366260    -1.3828770    -0.3245450
  H        2.9468270     0.4301980     0.1174830
  H        2.1372730    -2.9631930    -0.0801050
  H        3.3349710    -1.8642740    -0.5097710
units angstrom
no_reorient  #important for SAPT in psi4, default
symmetry c1  #important for SAPT in psi4, default
}

set PROPERTIES_ORIGIN ["COM"]
properties('MP2/aug-cc-pvtz', properties = ['dipole'])
--------------------------------------------------------------------------

    Molecular point group: c1
  Charge       = 0
  Multiplicity = 1
  Basis Set: AUG-CC-PVTZ
    Blend: AUG-CC-PVTZ
  Basis Set: (AUG-CC-PVTZ AUX)
    Blend: AUG-CC-PVTZ-JKFIT

    Orbital Energies [Eh]
    ---------------------

    Doubly Occupied:

       1A    -20.524659     2A    -15.631328     3A    -15.629595
       4A    -15.610564     5A    -15.570369     6A    -15.558766
       7A    -11.395885     8A    -11.365551     9A    -11.316894
      10A    -11.305428    11A    -11.288140    12A    -11.247214
      13A     -1.396328    14A     -1.362527    15A     -1.335016
      16A     -1.220275    17A     -1.215332    18A     -1.189237
      19A     -1.025894    20A     -0.983855    21A     -0.899212
      22A     -0.882801    23A     -0.807133    24A     -0.764986
      25A     -0.740277    26A     -0.727531    27A     -0.691485
      28A     -0.669610    29A     -0.650338    30A     -0.641440
      31A     -0.625743    32A     -0.614946    33A     -0.593003
      34A     -0.577459    35A     -0.560159    36A     -0.545137
      37A     -0.492266    38A     -0.460195    39A     -0.441771
      40A     -0.431292    41A     -0.428101    42A     -0.391599
      43A     -0.296857

  @DF-RHF Final Energy:  -578.63101839057106

   => Energetics <=

    Nuclear Repulsion Energy =            693.0564585271062015
    One-Electron Energy =               -2163.1625567007267819
    Two-Electron Energy =                 891.4750797830494093
    Total Energy =                       -578.6310183905710574
  Basis Set: (AUG-CC-PVTZ AUX)
    Blend: AUG-CC-PVTZ-RI
    Molecular point group: c1

    Geometry (in Angstrom), charge = 0, multiplicity = 1:

       Center              X                  Y                   Z               Mass
    ------------   -----------------  -----------------  -----------------  -----------------
         O            1.637573200338     2.460840451366     0.020651267909    15.994914619570
         N           -1.957146799662    -0.454958548634    -0.017072732091    14.003074004430
         N            1.930282200338     0.177940451366     0.009060267909    14.003074004430
         N            0.242705200338    -1.484563548634    -0.023153732091    14.003074004430
         N           -1.407700799662     1.737174451366    -0.021597732091    14.003074004430
         N            2.497953200338    -2.090783548634     0.071156267909    14.003074004430
         C           -0.587698799662    -0.398644548634    -0.004973732091    12.000000000000
         C           -0.273067799662     0.960114451366    -0.017042732091    12.000000000000
         C            1.133049500338     1.358726751366     0.001118767909    12.000000000000
         C           -2.392535799662     0.849244451366    -0.018692732091    12.000000000000
         C            1.503375200338    -1.126490548634    -0.008072732091    12.000000000000
         C           -2.756476799662    -1.667089548634     0.031632267909    12.000000000000
         H           -3.448956799662     1.090138451366    -0.025176732091     1.007825032230
         H           -2.297813799662    -2.417305548634    -0.613236732091     1.007825032230
         H           -2.809617799662    -2.053908548634     1.052051267909     1.007825032230
         H           -3.760848799662    -1.437247548634    -0.326825732091     1.007825032230
         H            2.922604200338     0.375827451366     0.115202267909     1.007825032230
         H            2.113050200338    -3.017563548634    -0.082385732091     1.007825032230
         H            3.310748200338    -1.918644548634    -0.512051732091     1.007825032230

  Basis Set: AUG-CC-PVTZ
    Blend: AUG-CC-PVTZ
  Basis Set: (AUG-CC-PVTZ AUX)
    Blend: AUG-CC-PVTZ-JKFIT
	 Reference Energy          =    -578.6310183905710574 [Eh]
	 Singles Energy            =      -0.0000000000000000 [Eh]
	 Same-Spin Energy          =      -0.6157880950748107 [Eh]
	 Opposite-Spin Energy      =      -1.8192984265206369 [Eh]
	 Correlation Energy        =      -2.4350865215954478 [Eh]
	 Total Energy              =    -581.0661049121664519 [Eh]

	 ================> DF-SCS-MP2 Energies <==================
	-----------------------------------------------------------
	 SCS Same-Spin Scale       =       0.3333333333333333 [-]
	 SCS Opposite-Spin Scale   =       1.2000000000000000 [-]
	 SCS Same-Spin Energy      =      -0.2052626983582702 [Eh]
	 SCS Opposite-Spin Energy  =      -2.1831581118247643 [Eh]
	 SCS Correlation Energy    =      -2.3884208101830344 [Eh]
	 SCS Total Energy          =    -581.0194392007540500 [Eh]
	-----------------------------------------------------------

  Dipole Moment: [D]
     X:    -0.3999      Y:    -6.6585      Z:    -0.8503     Total:     6.7244

*** Psi4 exiting successfully. Buy a developer a beer!
