                               Psi4 1.3.2 release

  ==> Input File <==

--------------------------------------------------------------------------
#psi4
#
memory 32 gb

molecule  {
0 1
  O       -1.4697740     2.5644010     0.0803940
  N        1.9414470    -0.5920103    -0.0559200
  N       -1.9102790     0.3061000     0.0485010
  N       -0.3427170    -1.4672350    -0.0387560
  N        1.5166440     1.6409000    -0.0105650
  N       -2.6294290    -1.9169300     0.1110730
  C        0.5576980    -0.4369160    -0.0295360
  C        0.3337570     0.9396730    -0.0094060
  C       -1.0221650     1.4237120     0.0351730
  C        2.4390620     0.6894910    -0.0699270
  C       -1.5730580    -1.0260450     0.0187980
  C        2.6353690    -1.8453210    -0.0655260
  H        3.5120589     0.8403756    -0.0865571
  H        2.3729340    -2.4304260     0.8177420
  H        2.3794720    -2.4140780    -0.9605130
  H        3.7041390    -1.6305860    -0.0592400
  H       -2.8879820     0.5691470     0.1693100
  H       -2.3258040    -2.8676930    -0.0642460
  H       -3.4596940    -1.6726380    -0.4173570
units angstrom
no_reorient  #important for SAPT in psi4, default
symmetry c1  #important for SAPT in psi4, default
}

set PROPERTIES_ORIGIN ["COM"]
properties('MP2/aug-cc-pvtz', properties = ['dipole'])
--------------------------------------------------------------------------

    Molecular point group: c1
  Charge       = 0
  Multiplicity = 1
  Basis Set: AUG-CC-PVTZ
    Blend: AUG-CC-PVTZ
  Basis Set: (AUG-CC-PVTZ AUX)
    Blend: AUG-CC-PVTZ-JKFIT

    Orbital Energies [Eh]
    ---------------------

    Doubly Occupied:

       1A    -20.521809     2A    -15.632306     3A    -15.630097
       4A    -15.610903     5A    -15.571563     6A    -15.559725
       7A    -11.396315     8A    -11.365289     9A    -11.321243
      10A    -11.309142    11A    -11.287366    12A    -11.248968
      13A     -1.390747    14A     -1.358383    15A     -1.333929
      16A     -1.219647    17A     -1.216285    18A     -1.193426
      19A     -1.028360    20A     -0.987117    21A     -0.901519
      22A     -0.882411    23A     -0.808015    24A     -0.766699
      25A     -0.740995    26A     -0.728960    27A     -0.692503
      28A     -0.670738    29A     -0.653222    30A     -0.641721
      31A     -0.627410    32A     -0.612498    33A     -0.594440
      34A     -0.573640    35A     -0.559599    36A     -0.541263
      37A     -0.494927    38A     -0.459627    39A     -0.440571
      40A     -0.429820    41A     -0.429256    42A     -0.392653
      43A     -0.298458

  @DF-RHF Final Energy:  -578.62896866035146

   => Energetics <=

    Nuclear Repulsion Energy =            693.0216285262937390
    One-Electron Energy =               -2163.0540660448796189
    Two-Electron Energy =                 891.4034688582345325
    Total Energy =                       -578.6289686603514610
  Basis Set: (AUG-CC-PVTZ AUX)
    Blend: AUG-CC-PVTZ-RI
    Molecular point group: c1

    Geometry (in Angstrom), charge = 0, multiplicity = 1:

       Center              X                  Y                   Z               Mass
    ------------   -----------------  -----------------  -----------------  -----------------
         O           -1.471681734453     2.565268862122     0.080417788630    15.994914619570
         N            1.939539265547    -0.591142437878    -0.055896211370    14.003074004430
         N           -1.912186734453     0.306967862122     0.048524788630    14.003074004430
         N           -0.344624734453    -1.466367137878    -0.038732211370    14.003074004430
         N            1.514736265547     1.641767862122    -0.010541211370    14.003074004430
         N           -2.631336734453    -1.916062137878     0.111096788630    14.003074004430
         C            0.555790265547    -0.436048137878    -0.029512211370    12.000000000000
         C            0.331849265547     0.940540862122    -0.009382211370    12.000000000000
         C           -1.024072734453     1.424579862122     0.035196788630    12.000000000000
         C            2.437154265547     0.690358862122    -0.069903211370    12.000000000000
         C           -1.574965734453    -1.025177137878     0.018821788630    12.000000000000
         C            2.633461265547    -1.844453137878    -0.065502211370    12.000000000000
         H            3.510151165547     0.841243462122    -0.086533311370     1.007825032230
         H            2.371026265547    -2.429558137878     0.817765788630     1.007825032230
         H            2.377564265547    -2.413210137878    -0.960489211370     1.007825032230
         H            3.702231265547    -1.629718137878    -0.059216211370     1.007825032230
         H           -2.889889734453     0.570014862122     0.169333788630     1.007825032230
         H           -2.327711734453    -2.866825137878    -0.064222211370     1.007825032230
         H           -3.461601734453    -1.671770137878    -0.417333211370     1.007825032230

  Basis Set: AUG-CC-PVTZ
    Blend: AUG-CC-PVTZ
  Basis Set: (AUG-CC-PVTZ AUX)
    Blend: AUG-CC-PVTZ-JKFIT
	 Reference Energy          =    -578.6289686603514610 [Eh]
	 Singles Energy            =      -0.0000000000000000 [Eh]
	 Same-Spin Energy          =      -0.6162886672574874 [Eh]
	 Opposite-Spin Energy      =      -1.8203324203147901 [Eh]
	 Correlation Energy        =      -2.4366210875722776 [Eh]
	 Total Energy              =    -581.0655897479236955 [Eh]

	 ================> DF-SCS-MP2 Energies <==================
	-----------------------------------------------------------
	 SCS Same-Spin Scale       =       0.3333333333333333 [-]
	 SCS Opposite-Spin Scale   =       1.2000000000000000 [-]
	 SCS Same-Spin Energy      =      -0.2054295557524958 [Eh]
	 SCS Opposite-Spin Energy  =      -2.1843989043777481 [Eh]
	 SCS Correlation Energy    =      -2.3898284601302437 [Eh]
	 SCS Total Energy          =    -581.0187971204817359 [Eh]
	-----------------------------------------------------------

  Dipole Moment: [D]
     X:    -0.0870      Y:    -6.7548      Z:    -0.9358     Total:     6.8198

*** Psi4 exiting successfully. Buy a developer a beer!
