                               Psi4 1.3.2 release

  ==> Input File <==

--------------------------------------------------------------------------
#psi4
#
memory 32 gb

molecule  {
0 1
  O       -1.4697740     2.5644010     0.0803940
  N        1.9191590    -0.5831280    -0.0556370
  N       -1.9563880     0.2934741     0.0525327
  N       -0.3427170    -1.4672350    -0.0387560
  N        1.5166440     1.6409000    -0.0105650
  N       -2.6597581    -1.8793801     0.1137319
  C        0.5576980    -0.4369160    -0.0295360
  C        0.3337570     0.9396730    -0.0094060
  C       -1.0221650     1.4237120     0.0351730
  C        2.4390620     0.6894910    -0.0699270
  C       -1.5730580    -1.0260450     0.0187980
  C        2.6353690    -1.8453210    -0.0655260
  H        3.5092610     0.8590810    -0.0866130
  H        2.3729340    -2.4304260     0.8177420
  H        2.3794720    -2.4140780    -0.9605130
  H        3.7041390    -1.6305860    -0.0592400
  H       -2.8879820     0.5691470     0.1693100
  H       -2.3258040    -2.8676930    -0.0642460
  H       -3.4596940    -1.6726380    -0.4173570
units angstrom
no_reorient  #important for SAPT in psi4, default
symmetry c1  #important for SAPT in psi4, default
}

set PROPERTIES_ORIGIN ["COM"]
properties('MP2/aug-cc-pvtz', properties = ['dipole'])
--------------------------------------------------------------------------

    Molecular point group: c1
  Charge       = 0
  Multiplicity = 1
  Basis Set: AUG-CC-PVTZ
    Blend: AUG-CC-PVTZ
  Basis Set: (AUG-CC-PVTZ AUX)
    Blend: AUG-CC-PVTZ-JKFIT

    Orbital Energies [Eh]
    ---------------------

    Doubly Occupied:

       1A    -20.523909     2A    -15.634279     3A    -15.622964
       4A    -15.608541     5A    -15.572959     6A    -15.561148
       7A    -11.396081     8A    -11.367204     9A    -11.321500
      10A    -11.308416    11A    -11.290270    12A    -11.248790
      13A     -1.388894    14A     -1.361731    15A     -1.334255
      16A     -1.219424    17A     -1.211642    18A     -1.192460
      19A     -1.029342    20A     -0.987427    21A     -0.901923
      22A     -0.879392    23A     -0.808191    24A     -0.769551
      25A     -0.747016    26A     -0.732224    27A     -0.680629
      28A     -0.670816    29A     -0.649309    30A     -0.641308
      31A     -0.625202    32A     -0.609454    33A     -0.596461
      34A     -0.579710    35A     -0.562111    36A     -0.539757
      37A     -0.495887    38A     -0.459513    39A     -0.440181
      40A     -0.430149    41A     -0.429582    42A     -0.394137
      43A     -0.299550

  @DF-RHF Final Energy:  -578.62427613084606

   => Energetics <=

    Nuclear Repulsion Energy =            692.5361417659562449
    One-Electron Energy =               -2162.0742506340006912
    Two-Electron Energy =                 890.9138327371983905
    Total Energy =                       -578.6242761308460558
  Basis Set: (AUG-CC-PVTZ AUX)
    Blend: AUG-CC-PVTZ-RI
    Molecular point group: c1

    Geometry (in Angstrom), charge = 0, multiplicity = 1:

       Center              X                  Y                   Z               Mass
    ------------   -----------------  -----------------  -----------------  -----------------
         O           -1.463289354628     2.562286741669     0.079826533888    15.994914619570
         N            1.925643645372    -0.585242258331    -0.056204466112    14.003074004430
         N           -1.949903354628     0.291359841669     0.051965233888    14.003074004430
         N           -0.336232354628    -1.469349258331    -0.039323466112    14.003074004430
         N            1.523128645372     1.638785741669    -0.011132466112    14.003074004430
         N           -2.653273454628    -1.881494358331     0.113164433888    14.003074004430
         C            0.564182645372    -0.439030258331    -0.030103466112    12.000000000000
         C            0.340241645372     0.937558741669    -0.009973466112    12.000000000000
         C           -1.015680354628     1.421597741669     0.034605533888    12.000000000000
         C            2.445546645372     0.687376741669    -0.070494466112    12.000000000000
         C           -1.566573354628    -1.028159258331     0.018230533888    12.000000000000
         C            2.641853645372    -1.847435258331    -0.066093466112    12.000000000000
         H            3.515745645372     0.856966741669    -0.087180466112     1.007825032230
         H            2.379418645372    -2.432540258331     0.817174533888     1.007825032230
         H            2.385956645372    -2.416192258331    -0.961080466112     1.007825032230
         H            3.710623645372    -1.632700258331    -0.059807466112     1.007825032230
         H           -2.881497354628     0.567032741669     0.168742533888     1.007825032230
         H           -2.319319354628    -2.869807258331    -0.064813466112     1.007825032230
         H           -3.453209354628    -1.674752258331    -0.417924466112     1.007825032230

  Basis Set: AUG-CC-PVTZ
    Blend: AUG-CC-PVTZ
  Basis Set: (AUG-CC-PVTZ AUX)
    Blend: AUG-CC-PVTZ-JKFIT
	 Reference Energy          =    -578.6242761308460558 [Eh]
	 Singles Energy            =      -0.0000000000000000 [Eh]
	 Same-Spin Energy          =      -0.6158517084719366 [Eh]
	 Opposite-Spin Energy      =      -1.8201742535189807 [Eh]
	 Correlation Energy        =      -2.4360259619909170 [Eh]
	 Total Energy              =    -581.0603020928369915 [Eh]

	 ================> DF-SCS-MP2 Energies <==================
	-----------------------------------------------------------
	 SCS Same-Spin Scale       =       0.3333333333333333 [-]
	 SCS Opposite-Spin Scale   =       1.2000000000000000 [-]
	 SCS Same-Spin Energy      =      -0.2052839028239788 [Eh]
	 SCS Opposite-Spin Energy  =      -2.1842091042227767 [Eh]
	 SCS Correlation Energy    =      -2.3894930070467555 [Eh]
	 SCS Total Energy          =    -581.0137691378928366 [Eh]
	-----------------------------------------------------------

  Dipole Moment: [D]
     X:     0.1693      Y:    -6.6792      Z:    -0.9538     Total:     6.7491

*** Psi4 exiting successfully. Buy a developer a beer!
