                               Psi4 1.4a3.dev225

  ==> Input File <==

--------------------------------------------------------------------------
#psi4
#
memory 32 gb

molecule  {
0 1
  O        1.6617960     2.5152110     0.0229320
  N       -1.9329240    -0.4005880    -0.0147920
  N        1.9545050     0.2323110     0.0113410
  N        0.2669280    -1.4301930    -0.0208730
  N       -1.3834780     1.7915450    -0.0193170
  N        2.5221760    -2.0364130     0.0734370
  C       -0.5634760    -0.3442740    -0.0026930
  C       -0.2488450     1.0144850    -0.0147620
  C        1.1380320     1.4076430     0.0031510
  C       -2.3683130     0.9036150    -0.0164120
  C        1.5275980    -1.0721200    -0.0057920
  C       -2.7322540    -1.6127190     0.0339130
  H       -3.4247340     1.1445090    -0.0228960
  H       -2.2735910    -2.3629350    -0.6109560
  H       -2.7853950    -1.9995380     1.0543320
  H       -3.7366260    -1.3828770    -0.3245450
  H        2.8980601     0.4204730     0.1122667
  H        2.1372730    -2.9631930    -0.0801050
  H        3.3349710    -1.8642740    -0.5097710
units angstrom
no_reorient  #important for SAPT in psi4, default
symmetry c1  #important for SAPT in psi4, default
}

set PROPERTIES_ORIGIN ["COM"]
properties('MP2/aug-cc-pvtz', properties = ['dipole'])
--------------------------------------------------------------------------

    Molecular point group: c1
  Charge       = 0
  Multiplicity = 1
  Basis Set: AUG-CC-PVTZ
    Blend: AUG-CC-PVTZ
  Basis Set: (AUG-CC-PVTZ AUX)
    Blend: AUG-CC-PVTZ-JKFIT

    Orbital Energies [Eh]
    ---------------------

    Doubly Occupied:

       1A    -20.521857     2A    -15.633011     3A    -15.625160
       4A    -15.611161     5A    -15.571406     6A    -15.560163
       7A    -11.396479     8A    -11.365201     9A    -11.319896
      10A    -11.307271    11A    -11.289316    12A    -11.247398
      13A     -1.392366    14A     -1.360964    15A     -1.335062
      16A     -1.222450    17A     -1.216860    18A     -1.191721
      19A     -1.029589    20A     -0.986515    21A     -0.903842
      22A     -0.884597    23A     -0.808559    24A     -0.768397
      25A     -0.748994    26A     -0.729278    27A     -0.691942
      28A     -0.671031    29A     -0.649803    30A     -0.643949
      31A     -0.626103    32A     -0.611085    33A     -0.595449
      34A     -0.578511    35A     -0.561469    36A     -0.541992
      37A     -0.493670    38A     -0.460715    39A     -0.440510
      40A     -0.430595    41A     -0.429319    42A     -0.393080
      43A     -0.298798

  @DF-RHF Final Energy:  -578.63034988967809

   => Energetics <=

    Nuclear Repulsion Energy =            693.5100973565130289
    One-Electron Energy =               -2163.9898280744755539
    Two-Electron Energy =                 891.8493808282843247
    Total Energy =                       -578.6303498896780866
  Basis Set: (AUG-CC-PVTZ AUX)
    Blend: AUG-CC-PVTZ-RI
    Molecular point group: c1

    Geometry (in Angstrom), charge = 0, multiplicity = 1:

       Center              X                  Y                   Z               Mass
    ------------   -----------------  -----------------  -----------------  -----------------
         O            1.639269695664     2.461296348565     0.020701182275    15.994914619570
         N           -1.955450304336    -0.454502651435    -0.017022817725    14.003074004430
         N            1.931978695664     0.178396348565     0.009110182275    14.003074004430
         N            0.244401695664    -1.484107651435    -0.023103817725    14.003074004430
         N           -1.406004304336     1.737630348565    -0.021547817725    14.003074004430
         N            2.499649695664    -2.090327651435     0.071206182275    14.003074004430
         C           -0.586002304336    -0.398188651435    -0.004923817725    12.000000000000
         C           -0.271371304336     0.960570348565    -0.016992817725    12.000000000000
         C            1.115505695664     1.353728348565     0.000920182275    12.000000000000
         C           -2.390839304336     0.849700348565    -0.018642817725    12.000000000000
         C            1.505071695664    -1.126034651435    -0.008022817725    12.000000000000
         C           -2.754780304336    -1.666633651435     0.031682182275    12.000000000000
         H           -3.447260304336     1.090594348565    -0.025126817725     1.007825032230
         H           -2.296117304336    -2.416849651435    -0.613186817725     1.007825032230
         H           -2.807921304336    -2.053452651435     1.052101182275     1.007825032230
         H           -3.759152304336    -1.436791651435    -0.326775817725     1.007825032230
         H            2.875533795664     0.366558348565     0.110035882275     1.007825032230
         H            2.114746695664    -3.017107651435    -0.082335817725     1.007825032230
         H            3.312444695664    -1.918188651435    -0.512001817725     1.007825032230

  Basis Set: AUG-CC-PVTZ
    Blend: AUG-CC-PVTZ
  Basis Set: (AUG-CC-PVTZ AUX)
    Blend: AUG-CC-PVTZ-JKFIT
	 Reference Energy          =    -578.6303498896780866 [Eh]
	 Singles Energy            =      -0.0000000000000000 [Eh]
	 Same-Spin Energy          =      -0.6156451631622488 [Eh]
	 Opposite-Spin Energy      =      -1.8189632785850627 [Eh]
	 Correlation Energy        =      -2.4346084417473115 [Eh]
	 Total Energy              =    -581.0649583314253732 [Eh]

	 ================> DF-SCS-MP2 Energies <==================
	-----------------------------------------------------------
	 SCS Same-Spin Scale       =       0.3333333333333333 [-]
	 SCS Opposite-Spin Scale   =       1.2000000000000000 [-]
	 SCS Same-Spin Energy      =      -0.2052150543874163 [Eh]
	 SCS Opposite-Spin Energy  =      -2.1827559343020750 [Eh]
	 SCS Correlation Energy    =      -2.3879709886894913 [Eh]
	 SCS Total Energy          =    -581.0183208783676037 [Eh]
	-----------------------------------------------------------

  Dipole Moment: [D]
     X:    -0.5771      Y:    -6.7639      Z:    -0.8579     Total:     6.8425

*** Psi4 exiting successfully. Buy a developer a beer!
