                               Psi4 1.3.2 release

  ==> Input File <==

--------------------------------------------------------------------------
#psi4
#
memory 32 gb

molecule  {
0 1
  O       -1.4697740     2.5644010     0.0803940
  N        1.9191590    -0.5831280    -0.0556370
  N       -1.9102790     0.3061000     0.0485010
  N       -0.3427170    -1.4672350    -0.0387560
  N        1.5166440     1.6409000    -0.0105650
  N       -2.6294290    -1.9169300     0.1110730
  C        0.5576980    -0.4369160    -0.0295360
  C        0.3337570     0.9396730    -0.0094060
  C       -1.0221650     1.4237120     0.0351730
  C        2.4390620     0.6894910    -0.0699270
  C       -1.5730580    -1.0260450     0.0187980
  C        2.6353690    -1.8453210    -0.0655260
  H        3.5092610     0.8590810    -0.0866130
  H        2.3729340    -2.4304260     0.8177420
  H        2.3794720    -2.4140780    -0.9605130
  H        3.7041390    -1.6305860    -0.0592400
  H       -2.8879820     0.5691470     0.1693100
  H       -2.2658789    -3.0553408    -0.0988479
  H       -3.4596940    -1.6726380    -0.4173570
units angstrom
no_reorient  #important for SAPT in psi4, default
symmetry c1  #important for SAPT in psi4, default
}

set PROPERTIES_ORIGIN ["COM"]
properties('MP2/aug-cc-pvtz', properties = ['dipole'])
--------------------------------------------------------------------------

    Molecular point group: c1
  Charge       = 0
  Multiplicity = 1
  Basis Set: AUG-CC-PVTZ
    Blend: AUG-CC-PVTZ
  Basis Set: (AUG-CC-PVTZ AUX)
    Blend: AUG-CC-PVTZ-JKFIT

    Orbital Energies [Eh]
    ---------------------

    Doubly Occupied:

       1A    -20.520457     2A    -15.632327     3A    -15.629015
       4A    -15.624929     5A    -15.569563     6A    -15.559100
       7A    -11.395276     8A    -11.363862     9A    -11.318373
      10A    -11.306725    11A    -11.289191    12A    -11.246197
      13A     -1.389712    14A     -1.359972    15A     -1.330218
      16A     -1.215904    17A     -1.200967    18A     -1.190042
      19A     -1.026529    20A     -0.985951    21A     -0.900060
      22A     -0.875029    23A     -0.805971    24A     -0.764823
      25A     -0.739931    26A     -0.724421    27A     -0.672174
      28A     -0.660265    29A     -0.641894    30A     -0.634631
      31A     -0.623255    32A     -0.607862    33A     -0.593092
      34A     -0.578124    35A     -0.559637    36A     -0.540301
      37A     -0.492956    38A     -0.455721    39A     -0.439395
      40A     -0.428729    41A     -0.427925    42A     -0.392235
      43A     -0.297473

  @DF-RHF Final Energy:  -578.60165416813993

   => Energetics <=

    Nuclear Repulsion Energy =            692.4893368084973417
    One-Electron Energy =               -2162.1615509695375295
    Two-Electron Energy =                 891.0705599929003711
    Total Energy =                       -578.6016541681399303
  Basis Set: (AUG-CC-PVTZ AUX)
    Blend: AUG-CC-PVTZ-RI
    Molecular point group: c1

    Geometry (in Angstrom), charge = 0, multiplicity = 1:

       Center              X                  Y                   Z               Mass
    ------------   -----------------  -----------------  -----------------  -----------------
         O           -1.470139758874     2.565546842668     0.080605388165    15.994914619570
         N            1.918793241126    -0.581982157332    -0.055425611835    14.003074004430
         N           -1.910644758874     0.307245842668     0.048712388165    14.003074004430
         N           -0.343082758874    -1.466089157332    -0.038544611835    14.003074004430
         N            1.516278241126     1.642045842668    -0.010353611835    14.003074004430
         N           -2.629794758874    -1.915784157332     0.111284388165    14.003074004430
         C            0.557332241126    -0.435770157332    -0.029324611835    12.000000000000
         C            0.333391241126     0.940818842668    -0.009194611835    12.000000000000
         C           -1.022530758874     1.424857842668     0.035384388165    12.000000000000
         C            2.438696241126     0.690636842668    -0.069715611835    12.000000000000
         C           -1.573423758874    -1.024899157332     0.019009388165    12.000000000000
         C            2.635003241126    -1.844175157332    -0.065314611835    12.000000000000
         H            3.508895241126     0.860226842668    -0.086401611835     1.007825032230
         H            2.372568241126    -2.429280157332     0.817953388165     1.007825032230
         H            2.379106241126    -2.412932157332    -0.960301611835     1.007825032230
         H            3.703773241126    -1.629440157332    -0.059028611835     1.007825032230
         H           -2.888347758874     0.570292842668     0.169521388165     1.007825032230
         H           -2.266244658874    -3.054194957332    -0.098636511835     1.007825032230
         H           -3.460059758874    -1.671492157332    -0.417145611835     1.007825032230

  Basis Set: AUG-CC-PVTZ
    Blend: AUG-CC-PVTZ
  Basis Set: (AUG-CC-PVTZ AUX)
    Blend: AUG-CC-PVTZ-JKFIT
	 Reference Energy          =    -578.6016541681399303 [Eh]
	 Singles Energy            =      -0.0000000000000000 [Eh]
	 Same-Spin Energy          =      -0.6173398011358988 [Eh]
	 Opposite-Spin Energy      =      -1.8236884513828655 [Eh]
	 Correlation Energy        =      -2.4410282525187643 [Eh]
	 Total Energy              =    -581.0426824206587071 [Eh]

	 ================> DF-SCS-MP2 Energies <==================
	-----------------------------------------------------------
	 SCS Same-Spin Scale       =       0.3333333333333333 [-]
	 SCS Opposite-Spin Scale   =       1.2000000000000000 [-]
	 SCS Same-Spin Energy      =      -0.2057799337119663 [Eh]
	 SCS Opposite-Spin Energy  =      -2.1884261416594386 [Eh]
	 SCS Correlation Energy    =      -2.3942060753714047 [Eh]
	 SCS Total Energy          =    -580.9958602435112880 [Eh]
	-----------------------------------------------------------

  Dipole Moment: [D]
     X:     0.0174      Y:    -6.9730      Z:    -0.9514     Total:     7.0377

*** Psi4 exiting successfully. Buy a developer a beer!
