                               Psi4 1.3.2 release

  ==> Input File <==

--------------------------------------------------------------------------
#psi4
#
memory 32 gb

molecule  {
0 1
  O       -1.4697740     2.5644010     0.0803940
  N        1.9191590    -0.5831280    -0.0556370
  N       -1.9102790     0.3061000     0.0485010
  N       -0.3427170    -1.4672350    -0.0387560
  N        1.5166440     1.6409000    -0.0105650
  N       -2.6294290    -1.9169300     0.1110730
  C        0.5534286    -0.4845279    -0.0292983
  C        0.3337570     0.9396730    -0.0094060
  C       -1.0221650     1.4237120     0.0351730
  C        2.4390620     0.6894910    -0.0699270
  C       -1.5730580    -1.0260450     0.0187980
  C        2.5908925    -1.8695493    -0.0645793
  H        3.5092610     0.8590810    -0.0866130
  H        2.3729340    -2.4304260     0.8177420
  H        2.3794720    -2.4140780    -0.9605130
  H        3.7041390    -1.6305860    -0.0592400
  H       -2.8879820     0.5691470     0.1693100
  H       -2.3258040    -2.8676930    -0.0642460
  H       -3.4596940    -1.6726380    -0.4173570
units angstrom
no_reorient  #important for SAPT in psi4, default
symmetry c1  #important for SAPT in psi4, default
}

set PROPERTIES_ORIGIN ["COM"]
properties('MP2/aug-cc-pvtz', properties = ['dipole'])
--------------------------------------------------------------------------

    Molecular point group: c1
  Charge       = 0
  Multiplicity = 1
  Basis Set: AUG-CC-PVTZ
    Blend: AUG-CC-PVTZ
  Basis Set: (AUG-CC-PVTZ AUX)
    Blend: AUG-CC-PVTZ-JKFIT

    Orbital Energies [Eh]
    ---------------------

    Doubly Occupied:

       1A    -20.516803     2A    -15.633749     3A    -15.630827
       4A    -15.613060     5A    -15.571845     6A    -15.561290
       7A    -11.399900     8A    -11.361015     9A    -11.322561
      10A    -11.307196    11A    -11.289155    12A    -11.248024
      13A     -1.390200    14A     -1.359106    15A     -1.335311
      16A     -1.225721    17A     -1.219729    18A     -1.191850
      19A     -1.022910    20A     -0.985225    21A     -0.903995
      22A     -0.887137    23A     -0.809601    24A     -0.761575
      25A     -0.742788    26A     -0.731755    27A     -0.693753
      28A     -0.675813    29A     -0.648415    30A     -0.646056
      31A     -0.631028    32A     -0.608176    33A     -0.592552
      34A     -0.565737    35A     -0.560686    36A     -0.543391
      37A     -0.495035    38A     -0.464139    39A     -0.438753
      40A     -0.431094    41A     -0.424638    42A     -0.393839
      43A     -0.290437

  @DF-RHF Final Energy:  -578.62263563877559

   => Energetics <=

    Nuclear Repulsion Energy =            693.4092125005042817
    One-Electron Energy =               -2163.8119515705020603
    Two-Electron Energy =                 891.7801034312221873
    Total Energy =                       -578.6226356387755914
  Basis Set: (AUG-CC-PVTZ AUX)
    Blend: AUG-CC-PVTZ-RI
    Molecular point group: c1

    Geometry (in Angstrom), charge = 0, multiplicity = 1:

       Center              X                  Y                   Z               Mass
    ------------   -----------------  -----------------  -----------------  -----------------
         O           -1.466230119751     2.569623818440     0.080308017777    15.994914619570
         N            1.922702880249    -0.577905181560    -0.055722982223    14.003074004430
         N           -1.906735119751     0.311322818440     0.048415017777    14.003074004430
         N           -0.339173119751    -1.462012181560    -0.038841982223    14.003074004430
         N            1.520187880249     1.646122818440    -0.010650982223    14.003074004430
         N           -2.625885119751    -1.911707181560     0.110987017777    14.003074004430
         C            0.556972480249    -0.479305081560    -0.029384282223    12.000000000000
         C            0.337300880249     0.944895818440    -0.009491982223    12.000000000000
         C           -1.018621119751     1.428934818440     0.035087017777    12.000000000000
         C            2.442605880249     0.694713818440    -0.070012982223    12.000000000000
         C           -1.569514119751    -1.020822181560     0.018712017777    12.000000000000
         C            2.594436380249    -1.864326481560    -0.064665282223    12.000000000000
         H            3.512804880249     0.864303818440    -0.086698982223     1.007825032230
         H            2.376477880249    -2.425203181560     0.817656017777     1.007825032230
         H            2.383015880249    -2.408855181560    -0.960598982223     1.007825032230
         H            3.707682880249    -1.625363181560    -0.059325982223     1.007825032230
         H           -2.884438119751     0.574369818440     0.169224017777     1.007825032230
         H           -2.322260119751    -2.862470181560    -0.064331982223     1.007825032230
         H           -3.456150119751    -1.667415181560    -0.417442982223     1.007825032230

  Basis Set: AUG-CC-PVTZ
    Blend: AUG-CC-PVTZ
  Basis Set: (AUG-CC-PVTZ AUX)
    Blend: AUG-CC-PVTZ-JKFIT
	 Reference Energy          =    -578.6226356387755914 [Eh]
	 Singles Energy            =      -0.0000000000000000 [Eh]
	 Same-Spin Energy          =      -0.6172942418259955 [Eh]
	 Opposite-Spin Energy      =      -1.8208160998691651 [Eh]
	 Correlation Energy        =      -2.4381103416951606 [Eh]
	 Total Energy              =    -581.0607459804707560 [Eh]

	 ================> DF-SCS-MP2 Energies <==================
	-----------------------------------------------------------
	 SCS Same-Spin Scale       =       0.3333333333333333 [-]
	 SCS Opposite-Spin Scale   =       1.2000000000000000 [-]
	 SCS Same-Spin Energy      =      -0.2057647472753318 [Eh]
	 SCS Opposite-Spin Energy  =      -2.1849793198429981 [Eh]
	 SCS Correlation Energy    =      -2.3907440671183298 [Eh]
	 SCS Total Energy          =    -581.0133797058939535 [Eh]
	-----------------------------------------------------------

  Dipole Moment: [D]
     X:    -0.0668      Y:    -6.9127      Z:    -0.9390     Total:     6.9765

*** Psi4 exiting successfully. Buy a developer a beer!
