                               Psi4 1.3.2 release

  ==> Input File <==

--------------------------------------------------------------------------
#psi4
#
memory 32 gb

molecule  {
0 1
  O       -1.4697740     2.5644010     0.0803940
  N        1.9191590    -0.5831280    -0.0556370
  N       -1.9794859     0.2865765     0.0512285
  N       -0.3675053    -1.5310871    -0.0384329
  N        1.5166440     1.6409000    -0.0105650
  N       -2.6294290    -1.9169300     0.1110730
  C        0.5576980    -0.4369160    -0.0295360
  C        0.3337570     0.9396730    -0.0094060
  C       -1.0221650     1.4237120     0.0351730
  C        2.4390620     0.6894910    -0.0699270
  C       -1.5730580    -1.0260450     0.0187980
  C        2.6353690    -1.8453210    -0.0655260
  H        3.5092610     0.8590810    -0.0866130
  H        2.3729340    -2.4304260     0.8177420
  H        2.3794720    -2.4140780    -0.9605130
  H        3.7041390    -1.6305860    -0.0592400
  H       -2.8879820     0.5691470     0.1693100
  H       -2.3258040    -2.8676930    -0.0642460
  H       -3.4596940    -1.6726380    -0.4173570
units angstrom
no_reorient  #important for SAPT in psi4, default
symmetry c1  #important for SAPT in psi4, default
}

set PROPERTIES_ORIGIN ["COM"]
properties('MP2/aug-cc-pvtz', properties = ['dipole'])
--------------------------------------------------------------------------

    Molecular point group: c1
  Charge       = 0
  Multiplicity = 1
  Basis Set: AUG-CC-PVTZ
    Blend: AUG-CC-PVTZ
  Basis Set: (AUG-CC-PVTZ AUX)
    Blend: AUG-CC-PVTZ-JKFIT

    Orbital Energies [Eh]
    ---------------------

    Doubly Occupied:

       1A    -20.529934     2A    -15.637150     3A    -15.622899
       4A    -15.600942     5A    -15.577016     6A    -15.563854
       7A    -11.392823     8A    -11.372587     9A    -11.325889
      10A    -11.310311    11A    -11.291084    12A    -11.253393
      13A     -1.388859    14A     -1.362661    15A     -1.332867
      16A     -1.215065    17A     -1.204895    18A     -1.191640
      19A     -1.030691    20A     -0.988978    21A     -0.900530
      22A     -0.873249    23A     -0.804966    24A     -0.770996
      25A     -0.748140    26A     -0.723656    27A     -0.685739
      28A     -0.670225    29A     -0.649632    30A     -0.635919
      31A     -0.620470    32A     -0.611355    33A     -0.598866
      34A     -0.579309    35A     -0.562986    36A     -0.539271
      37A     -0.499320    38A     -0.451141    39A     -0.443941
      40A     -0.434522    41A     -0.429821    42A     -0.395825
      43A     -0.305072

  @DF-RHF Final Energy:  -578.61850056119192

   => Energetics <=

    Nuclear Repulsion Energy =            690.4675785336356739
    One-Electron Energy =               -2157.9151753038540846
    Two-Electron Energy =                 888.8290962090263747
    Total Energy =                       -578.6185005611919223
  Basis Set: (AUG-CC-PVTZ AUX)
    Blend: AUG-CC-PVTZ-RI
    Molecular point group: c1

    Geometry (in Angstrom), charge = 0, multiplicity = 1:

       Center              X                  Y                   Z               Mass
    ------------   -----------------  -----------------  -----------------  -----------------
         O           -1.461799921487     2.571474193663     0.080135328429    15.994914619570
         N            1.927133078513    -0.576054806337    -0.055895671571    14.003074004430
         N           -1.971511821487     0.293649693663     0.050969828429    14.003074004430
         N           -0.359531221487    -1.524013906337    -0.038691571571    14.003074004430
         N            1.524618078513     1.647973193663    -0.010823671571    14.003074004430
         N           -2.621454921487    -1.909856806337     0.110814328429    14.003074004430
         C            0.565672078513    -0.429842806337    -0.029794671571    12.000000000000
         C            0.341731078513     0.946746193663    -0.009664671571    12.000000000000
         C           -1.014190921487     1.430785193663     0.034914328429    12.000000000000
         C            2.447036078513     0.696564193663    -0.070185671571    12.000000000000
         C           -1.565083921487    -1.018971806337     0.018539328429    12.000000000000
         C            2.643343078513    -1.838247806337    -0.065784671571    12.000000000000
         H            3.517235078513     0.866154193663    -0.086871671571     1.007825032230
         H            2.380908078513    -2.423352806337     0.817483328429     1.007825032230
         H            2.387446078513    -2.407004806337    -0.960771671571     1.007825032230
         H            3.712113078513    -1.623512806337    -0.059498671571     1.007825032230
         H           -2.880007921487     0.576220193663     0.169051328429     1.007825032230
         H           -2.317829921487    -2.860619806337    -0.064504671571     1.007825032230
         H           -3.451719921487    -1.665564806337    -0.417615671571     1.007825032230

  Basis Set: AUG-CC-PVTZ
    Blend: AUG-CC-PVTZ
  Basis Set: (AUG-CC-PVTZ AUX)
    Blend: AUG-CC-PVTZ-JKFIT
	 Reference Energy          =    -578.6185005611919223 [Eh]
	 Singles Energy            =      -0.0000000000000000 [Eh]
	 Same-Spin Energy          =      -0.6153590376713401 [Eh]
	 Opposite-Spin Energy      =      -1.8211067040929609 [Eh]
	 Correlation Energy        =      -2.4364657417643012 [Eh]
	 Total Energy              =    -581.0549663029562453 [Eh]

	 ================> DF-SCS-MP2 Energies <==================
	-----------------------------------------------------------
	 SCS Same-Spin Scale       =       0.3333333333333333 [-]
	 SCS Opposite-Spin Scale   =       1.2000000000000000 [-]
	 SCS Same-Spin Energy      =      -0.2051196792237800 [Eh]
	 SCS Opposite-Spin Energy  =      -2.1853280449115529 [Eh]
	 SCS Correlation Energy    =      -2.3904477241353330 [Eh]
	 SCS Total Energy          =    -581.0089482853272784 [Eh]
	-----------------------------------------------------------

  Dipole Moment: [D]
     X:     0.3031      Y:    -6.3369      Z:    -0.9304     Total:     6.4121

*** Psi4 exiting successfully. Buy a developer a beer!
