                               Psi4 1.3.2 release

  ==> Input File <==

--------------------------------------------------------------------------
#psi4
#
memory 32 gb

molecule  {
0 1
  O       -1.4697740     2.5644010     0.0803940
  N        1.9191590    -0.5831280    -0.0556370
  N       -1.9102790     0.3061000     0.0485010
  N       -0.3427170    -1.4672350    -0.0387560
  N        1.5166440     1.6409000    -0.0105650
  N       -2.6294290    -1.9169300     0.1110730
  C        0.5576980    -0.4369160    -0.0295360
  C        0.3100324     0.9813399    -0.0072082
  C       -1.0221650     1.4237120     0.0351730
  C        2.4717497     0.7222786    -0.0694358
  C       -1.5730580    -1.0260450     0.0187980
  C        2.6353690    -1.8453210    -0.0655260
  H        3.5092610     0.8590810    -0.0866130
  H        2.3729340    -2.4304260     0.8177420
  H        2.3794720    -2.4140780    -0.9605130
  H        3.7041390    -1.6305860    -0.0592400
  H       -2.8879820     0.5691470     0.1693100
  H       -2.3258040    -2.8676930    -0.0642460
  H       -3.4596940    -1.6726380    -0.4173570
units angstrom
no_reorient  #important for SAPT in psi4, default
symmetry c1  #important for SAPT in psi4, default
}

set PROPERTIES_ORIGIN ["COM"]
properties('MP2/aug-cc-pvtz', properties = ['dipole'])
--------------------------------------------------------------------------

    Molecular point group: c1
  Charge       = 0
  Multiplicity = 1
  Basis Set: AUG-CC-PVTZ
    Blend: AUG-CC-PVTZ
  Basis Set: (AUG-CC-PVTZ AUX)
    Blend: AUG-CC-PVTZ-JKFIT

    Orbital Energies [Eh]
    ---------------------

    Doubly Occupied:

       1A    -20.514435     2A    -15.633031     3A    -15.629710
       4A    -15.612367     5A    -15.572789     6A    -15.564686
       7A    -11.398543     8A    -11.359113     9A    -11.328506
      10A    -11.308776    11A    -11.288036    12A    -11.248135
      13A     -1.388335    14A     -1.351949    15A     -1.330799
      16A     -1.219654    17A     -1.216962    18A     -1.187975
      19A     -1.029374    20A     -0.984044    21A     -0.903138
      22A     -0.883454    23A     -0.810455    24A     -0.760627
      25A     -0.741536    26A     -0.733917    27A     -0.693278
      28A     -0.667509    29A     -0.647610    30A     -0.642837
      31A     -0.626754    32A     -0.611832    33A     -0.604248
      34A     -0.577949    35A     -0.558432    36A     -0.540148
      37A     -0.492447    38A     -0.460291    39A     -0.436873
      40A     -0.428931    41A     -0.422788    42A     -0.390671
      43A     -0.296872

  @DF-RHF Final Energy:  -578.62345998188516

   => Energetics <=

    Nuclear Repulsion Energy =            691.9586998780763452
    One-Electron Energy =               -2160.9646892625860346
    Two-Electron Energy =                 890.3825294026244137
    Total Energy =                       -578.6234599818851621
  Basis Set: (AUG-CC-PVTZ AUX)
    Blend: AUG-CC-PVTZ-RI
    Molecular point group: c1

    Geometry (in Angstrom), charge = 0, multiplicity = 1:

       Center              X                  Y                   Z               Mass
    ------------   -----------------  -----------------  -----------------  -----------------
         O           -1.470425483692     2.558988397465     0.080198635452    15.994914619570
         N            1.918507516308    -0.588540602535    -0.055832364548    14.003074004430
         N           -1.910930483692     0.300687397465     0.048305635452    14.003074004430
         N           -0.343368483692    -1.472647602535    -0.038951364548    14.003074004430
         N            1.515992516308     1.635487397465    -0.010760364548    14.003074004430
         N           -2.630080483692    -1.922342602535     0.110877635452    14.003074004430
         C            0.557046516308    -0.442328602535    -0.029731364548    12.000000000000
         C            0.309380916308     0.975927297465    -0.007403564548    12.000000000000
         C           -1.022816483692     1.418299397465     0.034977635452    12.000000000000
         C            2.471098216308     0.716865997465    -0.069631164548    12.000000000000
         C           -1.573709483692    -1.031457602535     0.018602635452    12.000000000000
         C            2.634717516308    -1.850733602535    -0.065721364548    12.000000000000
         H            3.508609516308     0.853668397465    -0.086808364548     1.007825032230
         H            2.372282516308    -2.435838602535     0.817546635452     1.007825032230
         H            2.378820516308    -2.419490602535    -0.960708364548     1.007825032230
         H            3.703487516308    -1.635998602535    -0.059435364548     1.007825032230
         H           -2.888633483692     0.563734397465     0.169114635452     1.007825032230
         H           -2.326455483692    -2.873105602535    -0.064441364548     1.007825032230
         H           -3.460345483692    -1.678050602535    -0.417552364548     1.007825032230

  Basis Set: AUG-CC-PVTZ
    Blend: AUG-CC-PVTZ
  Basis Set: (AUG-CC-PVTZ AUX)
    Blend: AUG-CC-PVTZ-JKFIT
	 Reference Energy          =    -578.6234599818851621 [Eh]
	 Singles Energy            =      -0.0000000000000000 [Eh]
	 Same-Spin Energy          =      -0.6164775557638547 [Eh]
	 Opposite-Spin Energy      =      -1.8206745104452398 [Eh]
	 Correlation Energy        =      -2.4371520662090944 [Eh]
	 Total Energy              =    -581.0606120480942991 [Eh]

	 ================> DF-SCS-MP2 Energies <==================
	-----------------------------------------------------------
	 SCS Same-Spin Scale       =       0.3333333333333333 [-]
	 SCS Opposite-Spin Scale   =       1.2000000000000000 [-]
	 SCS Same-Spin Energy      =      -0.2054925185879515 [Eh]
	 SCS Opposite-Spin Energy  =      -2.1848094125342876 [Eh]
	 SCS Correlation Energy    =      -2.3903019311222393 [Eh]
	 SCS Total Energy          =    -581.0137619130074427 [Eh]
	-----------------------------------------------------------

  Dipole Moment: [D]
     X:     0.0745      Y:    -6.8123      Z:    -0.9410     Total:     6.8774

*** Psi4 exiting successfully. Buy a developer a beer!
