                               Psi4 1.4a3.dev225

  ==> Input File <==

--------------------------------------------------------------------------
#psi4
#
memory 32 gb

molecule  {
0 1
  O        1.6617960     2.5152110     0.0229320
  N       -1.9329240    -0.4005880    -0.0147920
  N        1.9545050     0.2323110     0.0113410
  N        0.2669280    -1.4301930    -0.0208730
  N       -1.3834780     1.7915450    -0.0193170
  N        2.5221760    -2.0364130     0.0734370
  C       -0.5634760    -0.3442740    -0.0026930
  C       -0.2488450     1.0144850    -0.0147620
  C        1.1187917     1.4021887     0.0029025
  C       -2.3683130     0.9036150    -0.0164120
  C        1.5275980    -1.0721200    -0.0057920
  C       -2.7322540    -1.6127190     0.0339130
  H       -3.4247340     1.1445090    -0.0228960
  H       -2.2735910    -2.3629350    -0.6109560
  H       -2.7853950    -1.9995380     1.0543320
  H       -3.7366260    -1.3828770    -0.3245450
  H        2.9468270     0.4301980     0.1174830
  H        2.1372730    -2.9631930    -0.0801050
  H        3.3349710    -1.8642740    -0.5097710
units angstrom
no_reorient  #important for SAPT in psi4, default
symmetry c1  #important for SAPT in psi4, default
}

set PROPERTIES_ORIGIN ["COM"]
properties('MP2/aug-cc-pvtz', properties = ['dipole'])
--------------------------------------------------------------------------

    Molecular point group: c1
  Charge       = 0
  Multiplicity = 1
  Basis Set: AUG-CC-PVTZ
    Blend: AUG-CC-PVTZ
  Basis Set: (AUG-CC-PVTZ AUX)
    Blend: AUG-CC-PVTZ-JKFIT

    Orbital Energies [Eh]
    ---------------------

    Doubly Occupied:

       1A    -20.518126     2A    -15.634310     3A    -15.629292
       4A    -15.610966     5A    -15.571936     6A    -15.561249
       7A    -11.396337     8A    -11.364272     9A    -11.322514
      10A    -11.308829    11A    -11.290210    12A    -11.247236
      13A     -1.387168    14A     -1.357971    15A     -1.331860
      16A     -1.217889    17A     -1.216080    18A     -1.191512
      19A     -1.032669    20A     -0.988250    21A     -0.903944
      22A     -0.880880    23A     -0.807427    24A     -0.768125
      25A     -0.742406    26A     -0.729544    27A     -0.691065
      28A     -0.671896    29A     -0.649271    30A     -0.643104
      31A     -0.625125    32A     -0.605976    33A     -0.595890
      34A     -0.579148    35A     -0.562311    36A     -0.538127
      37A     -0.494090    38A     -0.460696    39A     -0.438727
      40A     -0.429510    41A     -0.427938    42A     -0.394047
      43A     -0.300336

  @DF-RHF Final Energy:  -578.62897425776816

   => Energetics <=

    Nuclear Repulsion Energy =            693.2859786680153320
    One-Electron Energy =               -2163.5933865101615083
    Two-Electron Energy =                 891.6784335843780127
    Total Energy =                       -578.6289742577681636
  Basis Set: (AUG-CC-PVTZ AUX)
    Blend: AUG-CC-PVTZ-RI
    Molecular point group: c1

    Geometry (in Angstrom), charge = 0, multiplicity = 1:

       Center              X                  Y                   Z               Mass
    ------------   -----------------  -----------------  -----------------  -----------------
         O            1.640370686374     2.461633491396     0.020687399117    15.994914619570
         N           -1.954349313626    -0.454165508604    -0.017036600883    14.003074004430
         N            1.933079686374     0.178733491396     0.009096399117    14.003074004430
         N            0.245502686374    -1.483770508604    -0.023117600883    14.003074004430
         N           -1.404903313626     1.737967491396    -0.021561600883    14.003074004430
         N            2.500750686374    -2.089990508604     0.071192399117    14.003074004430
         C           -0.584901313626    -0.397851508604    -0.004937600883    12.000000000000
         C           -0.270270313626     0.960907491396    -0.017006600883    12.000000000000
         C            1.097366386374     1.348611191396     0.000657899117    12.000000000000
         C           -2.389738313626     0.850037491396    -0.018656600883    12.000000000000
         C            1.506172686374    -1.125697508604    -0.008036600883    12.000000000000
         C           -2.753679313626    -1.666296508604     0.031668399117    12.000000000000
         H           -3.446159313626     1.090931491396    -0.025140600883     1.007825032230
         H           -2.295016313626    -2.416512508604    -0.613200600883     1.007825032230
         H           -2.806820313626    -2.053115508604     1.052087399117     1.007825032230
         H           -3.758051313626    -1.436454508604    -0.326789600883     1.007825032230
         H            2.925401686374     0.376620491396     0.115238399117     1.007825032230
         H            2.115847686374    -3.016770508604    -0.082349600883     1.007825032230
         H            3.313545686374    -1.917851508604    -0.512015600883     1.007825032230

  Basis Set: AUG-CC-PVTZ
    Blend: AUG-CC-PVTZ
  Basis Set: (AUG-CC-PVTZ AUX)
    Blend: AUG-CC-PVTZ-JKFIT
	 Reference Energy          =    -578.6289742577681636 [Eh]
	 Singles Energy            =      -0.0000000000000000 [Eh]
	 Same-Spin Energy          =      -0.6163818011055280 [Eh]
	 Opposite-Spin Energy      =      -1.8203891879277467 [Eh]
	 Correlation Energy        =      -2.4367709890332749 [Eh]
	 Total Energy              =    -581.0657452468013844 [Eh]

	 ================> DF-SCS-MP2 Energies <==================
	-----------------------------------------------------------
	 SCS Same-Spin Scale       =       0.3333333333333333 [-]
	 SCS Opposite-Spin Scale   =       1.2000000000000000 [-]
	 SCS Same-Spin Energy      =      -0.2054606003685093 [Eh]
	 SCS Opposite-Spin Energy  =      -2.1844670255132961 [Eh]
	 SCS Correlation Energy    =      -2.3899276258818052 [Eh]
	 SCS Total Energy          =    -581.0189018836499599 [Eh]
	-----------------------------------------------------------

  Dipole Moment: [D]
     X:    -0.6475      Y:    -6.8394      Z:    -0.8516     Total:     6.9226

*** Psi4 exiting successfully. Buy a developer a beer!
