                               Psi4 1.3.2 release

  ==> Input File <==

--------------------------------------------------------------------------
#psi4
#
memory 32 gb

molecule  {
0 1
  O       -1.4697740     2.5644010     0.0803940
  N        1.9191590    -0.5831280    -0.0556370
  N       -1.9102790     0.3061000     0.0485010
  N       -0.3427170    -1.4672350    -0.0387560
  N        1.5166440     1.6409000    -0.0105650
  N       -2.6294290    -1.9169300     0.1110730
  C        0.5576980    -0.4369160    -0.0295360
  C        0.3337570     0.9396730    -0.0094060
  C       -1.0221650     1.4237120     0.0351730
  C        2.4390620     0.6894910    -0.0699270
  C       -1.5730580    -1.0260450     0.0187980
  C        2.6353690    -1.8453210    -0.0655260
  H        3.5092610     0.8590810    -0.0866130
  H        2.3729340    -2.4304260     0.8177420
  H        2.3794720    -2.4140780    -0.9605130
  H        3.7041390    -1.6305860    -0.0592400
  H       -2.7920961     0.5433493     0.1574619
  H       -2.3258040    -2.8676930    -0.0642460
  H       -3.4596940    -1.6726380    -0.4173570
units angstrom
no_reorient  #important for SAPT in psi4, default
symmetry c1  #important for SAPT in psi4, default
}

set PROPERTIES_ORIGIN ["COM"]
properties('MP2/aug-cc-pvtz', properties = ['dipole'])
--------------------------------------------------------------------------

    Molecular point group: c1
  Charge       = 0
  Multiplicity = 1
  Basis Set: AUG-CC-PVTZ
    Blend: AUG-CC-PVTZ
  Basis Set: (AUG-CC-PVTZ AUX)
    Blend: AUG-CC-PVTZ-JKFIT

    Orbital Energies [Eh]
    ---------------------

    Doubly Occupied:

       1A    -20.521677     2A    -15.633287     3A    -15.620324
       4A    -15.611478     5A    -15.571415     6A    -15.559901
       7A    -11.396801     8A    -11.364715     9A    -11.319585
      10A    -11.307604    11A    -11.289686    12A    -11.247149
      13A     -1.394002    14A     -1.361222    15A     -1.336526
      16A     -1.227435    17A     -1.217724    18A     -1.193130
      19A     -1.030308    20A     -0.987506    21A     -0.907244
      22A     -0.887344    23A     -0.810645    24A     -0.771545
      25A     -0.755142    26A     -0.730695    27A     -0.693498
      28A     -0.671775    29A     -0.650214    30A     -0.645330
      31A     -0.627973    32A     -0.611077    33A     -0.595651
      34A     -0.578900    35A     -0.561551    36A     -0.542391
      37A     -0.494701    38A     -0.459905    39A     -0.440582
      40A     -0.430915    41A     -0.429386    42A     -0.393182
      43A     -0.298802

  @DF-RHF Final Energy:  -578.62521815921627

   => Energetics <=

    Nuclear Repulsion Energy =            694.1564481732137892
    One-Electron Energy =               -2165.2034905924560917
    Two-Electron Energy =                 892.4218242600259146
    Total Energy =                       -578.6252181592162742
  Basis Set: (AUG-CC-PVTZ AUX)
    Blend: AUG-CC-PVTZ-RI
    Molecular point group: c1

    Geometry (in Angstrom), charge = 0, multiplicity = 1:

       Center              X                  Y                   Z               Mass
    ------------   -----------------  -----------------  -----------------  -----------------
         O           -1.470359321963     2.564558646969     0.080466462040    15.994914619570
         N            1.918573678037    -0.582970353031    -0.055564537960    14.003074004430
         N           -1.910864321963     0.306257646969     0.048573462040    14.003074004430
         N           -0.343302321963    -1.467077353031    -0.038683537960    14.003074004430
         N            1.516058678037     1.641057646969    -0.010492537960    14.003074004430
         N           -2.630014321963    -1.916772353031     0.111145462040    14.003074004430
         C            0.557112678037    -0.436758353031    -0.029463537960    12.000000000000
         C            0.333171678037     0.939830646969    -0.009333537960    12.000000000000
         C           -1.022750321963     1.423869646969     0.035245462040    12.000000000000
         C            2.438476678037     0.689648646969    -0.069854537960    12.000000000000
         C           -1.573643321963    -1.025887353031     0.018870462040    12.000000000000
         C            2.634783678037    -1.845163353031    -0.065453537960    12.000000000000
         H            3.508675678037     0.859238646969    -0.086540537960     1.007825032230
         H            2.372348678037    -2.430268353031     0.817814462040     1.007825032230
         H            2.378886678037    -2.413920353031    -0.960440537960     1.007825032230
         H            3.703553678037    -1.630428353031    -0.059167537960     1.007825032230
         H           -2.792681421963     0.543506946969     0.157534362040     1.007825032230
         H           -2.326389321963    -2.867535353031    -0.064173537960     1.007825032230
         H           -3.460279321963    -1.672480353031    -0.417284537960     1.007825032230

  Basis Set: AUG-CC-PVTZ
    Blend: AUG-CC-PVTZ
  Basis Set: (AUG-CC-PVTZ AUX)
    Blend: AUG-CC-PVTZ-JKFIT
	 Reference Energy          =    -578.6252181592162742 [Eh]
	 Singles Energy            =      -0.0000000000000000 [Eh]
	 Same-Spin Energy          =      -0.6152383183297919 [Eh]
	 Opposite-Spin Energy      =      -1.8182040897084226 [Eh]
	 Correlation Energy        =      -2.4334424080382147 [Eh]
	 Total Energy              =    -581.0586605672544920 [Eh]

	 ================> DF-SCS-MP2 Energies <==================
	-----------------------------------------------------------
	 SCS Same-Spin Scale       =       0.3333333333333333 [-]
	 SCS Opposite-Spin Scale   =       1.2000000000000000 [-]
	 SCS Same-Spin Energy      =      -0.2050794394432640 [Eh]
	 SCS Opposite-Spin Energy  =      -2.1818449076501070 [Eh]
	 SCS Correlation Energy    =      -2.3869243470933710 [Eh]
	 SCS Total Energy          =    -581.0121425063096012 [Eh]
	-----------------------------------------------------------

  Dipole Moment: [D]
     X:     0.0892      Y:    -6.8279      Z:    -0.9525     Total:     6.8946

*** Psi4 exiting successfully. Buy a developer a beer!
