                               Psi4 1.3.2 release

  ==> Input File <==

--------------------------------------------------------------------------
#psi4
#
memory 32 gb

molecule  {
0 1
  O       -1.4697740     2.5644010     0.0803940
  N        1.9191590    -0.5831280    -0.0556370
  N       -1.9102790     0.3061000     0.0485010
  N       -0.3427170    -1.4672350    -0.0387560
  N        1.5166440     1.6409000    -0.0105650
  N       -2.6294290    -1.9169300     0.1110730
  C        0.5672101    -0.3658503    -0.0299520
  C        0.3337570     0.9396730    -0.0094060
  C       -1.0221650     1.4237120     0.0351730
  C        2.4390620     0.6894910    -0.0699270
  C       -1.5730580    -1.0260450     0.0187980
  C        2.7004309    -1.8061049    -0.0669231
  H        3.5092610     0.8590810    -0.0866130
  H        2.3729340    -2.4304260     0.8177420
  H        2.3794720    -2.4140780    -0.9605130
  H        3.7041390    -1.6305860    -0.0592400
  H       -2.8879820     0.5691470     0.1693100
  H       -2.3258040    -2.8676930    -0.0642460
  H       -3.4596940    -1.6726380    -0.4173570
units angstrom
no_reorient  #important for SAPT in psi4, default
symmetry c1  #important for SAPT in psi4, default
}

set PROPERTIES_ORIGIN ["COM"]
properties('MP2/aug-cc-pvtz', properties = ['dipole'])
--------------------------------------------------------------------------

    Molecular point group: c1
  Charge       = 0
  Multiplicity = 1
  Basis Set: AUG-CC-PVTZ
    Blend: AUG-CC-PVTZ
  Basis Set: (AUG-CC-PVTZ AUX)
    Blend: AUG-CC-PVTZ-JKFIT

    Orbital Energies [Eh]
    ---------------------

    Doubly Occupied:

       1A    -20.527029     2A    -15.631809     3A    -15.627484
       4A    -15.607585     5A    -15.569565     6A    -15.557127
       7A    -11.390895     8A    -11.369196     9A    -11.313938
      10A    -11.307491    11A    -11.291294    12A    -11.244171
      13A     -1.392759    14A     -1.363938    15A     -1.331881
      16A     -1.218326    17A     -1.205022    18A     -1.187596
      19A     -1.039760    20A     -0.989725    21A     -0.899829
      22A     -0.874824    23A     -0.808603    24A     -0.774632
      25A     -0.738444    26A     -0.726081    27A     -0.691154
      28A     -0.667096    29A     -0.658021    30A     -0.635909
      31A     -0.622406    32A     -0.614122    33A     -0.595291
      34A     -0.589217    35A     -0.556487    36A     -0.537832
      37A     -0.490968    38A     -0.453715    39A     -0.441404
      40A     -0.433139    41A     -0.425049    42A     -0.390963
      43A     -0.310765

  @DF-RHF Final Energy:  -578.61770013975354

   => Energetics <=

    Nuclear Repulsion Energy =            693.6287717827176493
    One-Electron Energy =               -2164.2878618619661211
    Two-Electron Energy =                 892.0413899394949340
    Total Energy =                       -578.6177001397535378
  Basis Set: (AUG-CC-PVTZ AUX)
    Blend: AUG-CC-PVTZ-RI
    Molecular point group: c1

    Geometry (in Angstrom), charge = 0, multiplicity = 1:

       Center              X                  Y                   Z               Mass
    ------------   -----------------  -----------------  -----------------  -----------------
         O           -1.475195304759     2.556383802644     0.080525931853    15.994914619570
         N            1.913737695241    -0.591145197356    -0.055505068147    14.003074004430
         N           -1.915700304759     0.298082802644     0.048632931853    14.003074004430
         N           -0.348138304759    -1.475252197356    -0.038624068147    14.003074004430
         N            1.511222695241     1.632882802644    -0.010433068147    14.003074004430
         N           -2.634850304759    -1.924947197356     0.111204931853    14.003074004430
         C            0.561788795241    -0.373867497356    -0.029820068147    12.000000000000
         C            0.328335695241     0.931655802644    -0.009274068147    12.000000000000
         C           -1.027586304759     1.415694802644     0.035304931853    12.000000000000
         C            2.433640695241     0.681473802644    -0.069795068147    12.000000000000
         C           -1.578479304759    -1.034062197356     0.018929931853    12.000000000000
         C            2.695009595241    -1.814122097356    -0.066791168147    12.000000000000
         H            3.503839695241     0.851063802644    -0.086481068147     1.007825032230
         H            2.367512695241    -2.438443197356     0.817873931853     1.007825032230
         H            2.374050695241    -2.422095197356    -0.960381068147     1.007825032230
         H            3.698717695241    -1.638603197356    -0.059108068147     1.007825032230
         H           -2.893403304759     0.561129802644     0.169441931853     1.007825032230
         H           -2.331225304759    -2.875710197356    -0.064114068147     1.007825032230
         H           -3.465115304759    -1.680655197356    -0.417225068147     1.007825032230

  Basis Set: AUG-CC-PVTZ
    Blend: AUG-CC-PVTZ
  Basis Set: (AUG-CC-PVTZ AUX)
    Blend: AUG-CC-PVTZ-JKFIT
	 Reference Energy          =    -578.6177001397535378 [Eh]
	 Singles Energy            =      -0.0000000000000000 [Eh]
	 Same-Spin Energy          =      -0.6147831166114897 [Eh]
	 Opposite-Spin Energy      =      -1.8196246350117704 [Eh]
	 Correlation Energy        =      -2.4344077516232598 [Eh]
	 Total Energy              =    -581.0521078913767496 [Eh]

	 ================> DF-SCS-MP2 Energies <==================
	-----------------------------------------------------------
	 SCS Same-Spin Scale       =       0.3333333333333333 [-]
	 SCS Opposite-Spin Scale   =       1.2000000000000000 [-]
	 SCS Same-Spin Energy      =      -0.2049277055371632 [Eh]
	 SCS Opposite-Spin Energy  =      -2.1835495620141243 [Eh]
	 SCS Correlation Energy    =      -2.3884772675512878 [Eh]
	 SCS Total Energy          =    -581.0061774073047900 [Eh]
	-----------------------------------------------------------

  Dipole Moment: [D]
     X:     0.0430      Y:    -6.5869      Z:    -0.9355     Total:     6.6531

*** Psi4 exiting successfully. Buy a developer a beer!
