                               Psi4 1.3.2 release

  ==> Input File <==

--------------------------------------------------------------------------
#psi4
#
memory 32 gb

molecule  {
0 1
  O       -1.4697740     2.5644010     0.0803940
  N        1.9191590    -0.5831280    -0.0556370
  N       -1.9565314     0.2934869     0.0503289
  N       -0.3588719    -1.5099483    -0.0385581
  N        1.5166440     1.6409000    -0.0105650
  N       -2.6294290    -1.9169300     0.1110730
  C        0.5576980    -0.4369160    -0.0295360
  C        0.3337570     0.9396730    -0.0094060
  C       -1.0221650     1.4237120     0.0351730
  C        2.4390620     0.6894910    -0.0699270
  C       -1.5730580    -1.0260450     0.0187980
  C        2.6353690    -1.8453210    -0.0655260
  H        3.5092610     0.8590810    -0.0866130
  H        2.3729340    -2.4304260     0.8177420
  H        2.3794720    -2.4140780    -0.9605130
  H        3.7041390    -1.6305860    -0.0592400
  H       -2.8879820     0.5691470     0.1693100
  H       -2.3258040    -2.8676930    -0.0642460
  H       -3.4596940    -1.6726380    -0.4173570
units angstrom
no_reorient  #important for SAPT in psi4, default
symmetry c1  #important for SAPT in psi4, default
}

set PROPERTIES_ORIGIN ["COM"]
properties('MP2/aug-cc-pvtz', properties = ['dipole'])
--------------------------------------------------------------------------

    Molecular point group: c1
  Charge       = 0
  Multiplicity = 1
  Basis Set: AUG-CC-PVTZ
    Blend: AUG-CC-PVTZ
  Basis Set: (AUG-CC-PVTZ AUX)
    Blend: AUG-CC-PVTZ-JKFIT

    Orbital Energies [Eh]
    ---------------------

    Doubly Occupied:

       1A    -20.526958     2A    -15.635751     3A    -15.625051
       4A    -15.604196     5A    -15.574902     6A    -15.562440
       7A    -11.393758     8A    -11.369881     9A    -11.323759
      10A    -11.309267    11A    -11.290512    12A    -11.251223
      13A     -1.389175    14A     -1.361938    15A     -1.333266
      16A     -1.215746    17A     -1.208646    18A     -1.191688
      19A     -1.030104    20A     -0.988132    21A     -0.900679
      22A     -0.875790    23A     -0.805587    24A     -0.769143
      25A     -0.747020    26A     -0.725284    27A     -0.687655
      28A     -0.670396    29A     -0.649890    30A     -0.638118
      31A     -0.622404    32A     -0.611424    33A     -0.597384
      34A     -0.579045    35A     -0.562311    36A     -0.539898
      37A     -0.497584    38A     -0.453745    39A     -0.442788
      40A     -0.432917    41A     -0.429636    42A     -0.394796
      43A     -0.302852

  @DF-RHF Final Energy:  -578.62521045385813

   => Energetics <=

    Nuclear Repulsion Energy =            691.4407757593234010
    One-Electron Energy =               -2159.8864966368532805
    Two-Electron Energy =                 889.8205104236716352
    Total Energy =                       -578.6252104538581307
  Basis Set: (AUG-CC-PVTZ AUX)
    Blend: AUG-CC-PVTZ-RI
    Molecular point group: c1

    Geometry (in Angstrom), charge = 0, multiplicity = 1:

       Center              X                  Y                   Z               Mass
    ------------   -----------------  -----------------  -----------------  -----------------
         O           -1.464479638816     2.569094677225     0.080222265969    15.994914619570
         N            1.924453361184    -0.578434322775    -0.055808734031    14.003074004430
         N           -1.951237038816     0.298180577225     0.050157165969    14.003074004430
         N           -0.353577538816    -1.505254622775    -0.038729834031    14.003074004430
         N            1.521938361184     1.645593677225    -0.010736734031    14.003074004430
         N           -2.624134638816    -1.912236322775     0.110901265969    14.003074004430
         C            0.562992361184    -0.432222322775    -0.029707734031    12.000000000000
         C            0.339051361184     0.944366677225    -0.009577734031    12.000000000000
         C           -1.016870638816     1.428405677225     0.035001265969    12.000000000000
         C            2.444356361184     0.694184677225    -0.070098734031    12.000000000000
         C           -1.567763638816    -1.021351322775     0.018626265969    12.000000000000
         C            2.640663361184    -1.840627322775    -0.065697734031    12.000000000000
         H            3.514555361184     0.863774677225    -0.086784734031     1.007825032230
         H            2.378228361184    -2.425732322775     0.817570265969     1.007825032230
         H            2.384766361184    -2.409384322775    -0.960684734031     1.007825032230
         H            3.709433361184    -1.625892322775    -0.059411734031     1.007825032230
         H           -2.882687638816     0.573840677225     0.169138265969     1.007825032230
         H           -2.320509638816    -2.862999322775    -0.064417734031     1.007825032230
         H           -3.454399638816    -1.667944322775    -0.417528734031     1.007825032230

  Basis Set: AUG-CC-PVTZ
    Blend: AUG-CC-PVTZ
  Basis Set: (AUG-CC-PVTZ AUX)
    Blend: AUG-CC-PVTZ-JKFIT
	 Reference Energy          =    -578.6252104538581307 [Eh]
	 Singles Energy            =      -0.0000000000000000 [Eh]
	 Same-Spin Energy          =      -0.6154898336139456 [Eh]
	 Opposite-Spin Energy      =      -1.8204691259096584 [Eh]
	 Correlation Energy        =      -2.4359589595236040 [Eh]
	 Total Energy              =    -581.0611694133817764 [Eh]

	 ================> DF-SCS-MP2 Energies <==================
	-----------------------------------------------------------
	 SCS Same-Spin Scale       =       0.3333333333333333 [-]
	 SCS Opposite-Spin Scale   =       1.2000000000000000 [-]
	 SCS Same-Spin Energy      =      -0.2051632778713152 [Eh]
	 SCS Opposite-Spin Energy  =      -2.1845629510915900 [Eh]
	 SCS Correlation Energy    =      -2.3897262289629051 [Eh]
	 SCS Total Energy          =    -581.0149366828210304 [Eh]
	-----------------------------------------------------------

  Dipole Moment: [D]
     X:     0.1909      Y:    -6.4869      Z:    -0.9326     Total:     6.5564

*** Psi4 exiting successfully. Buy a developer a beer!
