                               Psi4 1.4a3.dev225

  ==> Input File <==

--------------------------------------------------------------------------
#psi4
#
memory 32 gb

molecule  {
0 1
  O        1.6617960     2.5152110     0.0229320
  N       -1.9329240    -0.4005880    -0.0147920
  N        1.9545050     0.2323110     0.0113410
  N        0.2669280    -1.4301930    -0.0208730
  N       -1.3834780     1.7915450    -0.0193170
  N        2.5221760    -2.0364130     0.0734370
  C       -0.5634760    -0.3442740    -0.0026930
  C       -0.2488450     1.0144850    -0.0147620
  C        1.1380320     1.4076430     0.0031510
  C       -2.3683130     0.9036150    -0.0164120
  C        1.5275980    -1.0721200    -0.0057920
  C       -2.7322540    -1.6127190     0.0339130
  H       -3.4734818     1.1556249    -0.0231952
  H       -2.2735910    -2.3629350    -0.6109560
  H       -2.7853950    -1.9995380     1.0543320
  H       -3.7366260    -1.3828770    -0.3245450
  H        2.9468270     0.4301980     0.1174830
  H        2.1372730    -2.9631930    -0.0801050
  H        3.3349710    -1.8642740    -0.5097710
units angstrom
no_reorient  #important for SAPT in psi4, default
symmetry c1  #important for SAPT in psi4, default
}

set PROPERTIES_ORIGIN ["COM"]
properties('MP2/aug-cc-pvtz', properties = ['dipole'])
--------------------------------------------------------------------------

    Molecular point group: c1
  Charge       = 0
  Multiplicity = 1
  Basis Set: AUG-CC-PVTZ
    Blend: AUG-CC-PVTZ
  Basis Set: (AUG-CC-PVTZ AUX)
    Blend: AUG-CC-PVTZ-JKFIT

    Orbital Energies [Eh]
    ---------------------

    Doubly Occupied:

       1A    -20.521518     2A    -15.633234     3A    -15.629535
       4A    -15.610812     5A    -15.571236     6A    -15.560275
       7A    -11.396176     8A    -11.365085     9A    -11.319879
      10A    -11.312434    11A    -11.289089    12A    -11.247569
      13A     -1.390959    14A     -1.360799    15A     -1.333926
      16A     -1.218831    17A     -1.216108    18A     -1.190624
      19A     -1.028304    20A     -0.985990    21A     -0.899524
      22A     -0.881649    23A     -0.804277    24A     -0.766626
      25A     -0.741459    26A     -0.725989    27A     -0.690618
      28A     -0.670660    29A     -0.649339    30A     -0.640401
      31A     -0.625374    32A     -0.610859    33A     -0.588672
      34A     -0.578077    35A     -0.561272    36A     -0.541667
      37A     -0.493207    38A     -0.460472    39A     -0.440093
      40A     -0.429828    41A     -0.429170    42A     -0.393084
      43A     -0.298673

  @DF-RHF Final Energy:  -578.62801253043381

   => Energetics <=

    Nuclear Repulsion Energy =            692.8911745674922713
    One-Electron Energy =               -2162.8316329150006823
    Two-Electron Energy =                 891.3124458170746038
    Total Energy =                       -578.6280125304338071
  Basis Set: (AUG-CC-PVTZ AUX)
    Blend: AUG-CC-PVTZ-RI
    Molecular point group: c1

    Geometry (in Angstrom), charge = 0, multiplicity = 1:

       Center              X                  Y                   Z               Mass
    ------------   -----------------  -----------------  -----------------  -----------------
         O            1.639269579046     2.461169101886     0.020671160316    15.994914619570
         N           -1.955450420954    -0.454629898114    -0.017052839684    14.003074004430
         N            1.931978579046     0.178269101886     0.009080160316    14.003074004430
         N            0.244401579046    -1.484234898114    -0.023133839684    14.003074004430
         N           -1.406004420954     1.737503101886    -0.021577839684    14.003074004430
         N            2.499649579046    -2.090454898114     0.071176160316    14.003074004430
         C           -0.586002420954    -0.398315898114    -0.004953839684    12.000000000000
         C           -0.271371420954     0.960443101886    -0.017022839684    12.000000000000
         C            1.115505579046     1.353601101886     0.000890160316    12.000000000000
         C           -2.390839420954     0.849573101886    -0.018672839684    12.000000000000
         C            1.505071579046    -1.126161898114    -0.008052839684    12.000000000000
         C           -2.754780420954    -1.666760898114     0.031652160316    12.000000000000
         H           -3.496008220954     1.101583001886    -0.025456039684     1.007825032230
         H           -2.296117420954    -2.416976898114    -0.613216839684     1.007825032230
         H           -2.807921420954    -2.053579898114     1.052071160316     1.007825032230
         H           -3.759152420954    -1.436918898114    -0.326805839684     1.007825032230
         H            2.924300579046     0.376156101886     0.115222160316     1.007825032230
         H            2.114746579046    -3.017234898114    -0.082365839684     1.007825032230
         H            3.312444579046    -1.918315898114    -0.512031839684     1.007825032230

  Basis Set: AUG-CC-PVTZ
    Blend: AUG-CC-PVTZ
  Basis Set: (AUG-CC-PVTZ AUX)
    Blend: AUG-CC-PVTZ-JKFIT
	 Reference Energy          =    -578.6280125304338071 [Eh]
	 Singles Energy            =      -0.0000000000000000 [Eh]
	 Same-Spin Energy          =      -0.6162212943069607 [Eh]
	 Opposite-Spin Energy      =      -1.8202531854762731 [Eh]
	 Correlation Energy        =      -2.4364744797832341 [Eh]
	 Total Energy              =    -581.0644870102170216 [Eh]

	 ================> DF-SCS-MP2 Energies <==================
	-----------------------------------------------------------
	 SCS Same-Spin Scale       =       0.3333333333333333 [-]
	 SCS Opposite-Spin Scale   =       1.2000000000000000 [-]
	 SCS Same-Spin Energy      =      -0.2054070981023202 [Eh]
	 SCS Opposite-Spin Energy  =      -2.1843038225715277 [Eh]
	 SCS Correlation Energy    =      -2.3897109206738478 [Eh]
	 SCS Total Energy          =    -581.0177234511075994 [Eh]
	-----------------------------------------------------------

  Dipole Moment: [D]
     X:    -0.5213      Y:    -6.7431      Z:    -0.8509     Total:     6.8165

*** Psi4 exiting successfully. Buy a developer a beer!
