                               Psi4 1.3.2 release

  ==> Input File <==

--------------------------------------------------------------------------
#psi4
#
memory 32 gb

molecule  {
0 1
  O       -1.4697740     2.5644010     0.0803940
  N        1.9249742    -0.5116811    -0.0540550
  N       -1.9102790     0.3061000     0.0485010
  N       -0.3953947    -1.4187265    -0.0367392
  N        1.5166440     1.6409000    -0.0105650
  N       -2.6294290    -1.9169300     0.1110730
  C        0.5576980    -0.4369160    -0.0295360
  C        0.3337570     0.9396730    -0.0094060
  C       -1.0221650     1.4237120     0.0351730
  C        2.4390620     0.6894910    -0.0699270
  C       -1.5730580    -1.0260450     0.0187980
  C        2.6353690    -1.8453210    -0.0655260
  H        3.5092610     0.8590810    -0.0866130
  H        2.3729340    -2.4304260     0.8177420
  H        2.3794720    -2.4140780    -0.9605130
  H        3.7041390    -1.6305860    -0.0592400
  H       -2.8879820     0.5691470     0.1693100
  H       -2.3258040    -2.8676930    -0.0642460
  H       -3.4596940    -1.6726380    -0.4173570
units angstrom
no_reorient  #important for SAPT in psi4, default
symmetry c1  #important for SAPT in psi4, default
}

set PROPERTIES_ORIGIN ["COM"]
properties('MP2/aug-cc-pvtz', properties = ['dipole'])
--------------------------------------------------------------------------

    Molecular point group: c1
  Charge       = 0
  Multiplicity = 1
  Basis Set: AUG-CC-PVTZ
    Blend: AUG-CC-PVTZ
  Basis Set: (AUG-CC-PVTZ AUX)
    Blend: AUG-CC-PVTZ-JKFIT

    Orbital Energies [Eh]
    ---------------------

    Doubly Occupied:

       1A    -20.519798     2A    -15.639240     3A    -15.620506
       4A    -15.603062     5A    -15.563583     6A    -15.551942
       7A    -11.380548     8A    -11.362425     9A    -11.316661
      10A    -11.301885    11A    -11.299088    12A    -11.247472
      13A     -1.394801    14A     -1.369105    15A     -1.342605
      16A     -1.218696    17A     -1.213558    18A     -1.185178
      19A     -1.036761    20A     -0.988699    21A     -0.911829
      22A     -0.877795    23A     -0.813621    24A     -0.763674
      25A     -0.741873    26A     -0.730268    27A     -0.689670
      28A     -0.674538    29A     -0.655868    30A     -0.642622
      31A     -0.629777    32A     -0.611468    33A     -0.590404
      34A     -0.580588    35A     -0.569596    36A     -0.543702
      37A     -0.485045    38A     -0.458617    39A     -0.435578
      40A     -0.426023    41A     -0.424711    42A     -0.395468
      43A     -0.301869

  @DF-RHF Final Energy:  -578.62210756064644

   => Energetics <=

    Nuclear Repulsion Energy =            695.6377457480253952
    One-Electron Energy =               -2168.2992728866497600
    Two-Electron Energy =                 894.0394195779780375
    Total Energy =                       -578.6221075606464410
  Basis Set: (AUG-CC-PVTZ AUX)
    Blend: AUG-CC-PVTZ-RI
    Molecular point group: c1

    Geometry (in Angstrom), charge = 0, multiplicity = 1:

       Center              X                  Y                   Z               Mass
    ------------   -----------------  -----------------  -----------------  -----------------
         O           -1.465798361173     2.554224879710     0.080088822613    15.994914619570
         N            1.928949838827    -0.521857220290    -0.054360177387    14.003074004430
         N           -1.906303361173     0.295923879710     0.048195822613    14.003074004430
         N           -0.391419061173    -1.428902620290    -0.037044377387    14.003074004430
         N            1.520619638827     1.630723879710    -0.010870177387    14.003074004430
         N           -2.625453361173    -1.927106120290     0.110767822613    14.003074004430
         C            0.561673638827    -0.447092120290    -0.029841177387    12.000000000000
         C            0.337732638827     0.929496879710    -0.009711177387    12.000000000000
         C           -1.018189361173     1.413535879710     0.034867822613    12.000000000000
         C            2.443037638827     0.679314879710    -0.070232177387    12.000000000000
         C           -1.569082361173    -1.036221120290     0.018492822613    12.000000000000
         C            2.639344638827    -1.855497120290    -0.065831177387    12.000000000000
         H            3.513236638827     0.848904879710    -0.086918177387     1.007825032230
         H            2.376909638827    -2.440602120290     0.817436822613     1.007825032230
         H            2.383447638827    -2.424254120290    -0.960818177387     1.007825032230
         H            3.708114638827    -1.640762120290    -0.059545177387     1.007825032230
         H           -2.884006361173     0.558970879710     0.169004822613     1.007825032230
         H           -2.321828361173    -2.877869120290    -0.064551177387     1.007825032230
         H           -3.455718361173    -1.682814120290    -0.417662177387     1.007825032230

  Basis Set: AUG-CC-PVTZ
    Blend: AUG-CC-PVTZ
  Basis Set: (AUG-CC-PVTZ AUX)
    Blend: AUG-CC-PVTZ-JKFIT
	 Reference Energy          =    -578.6221075606464410 [Eh]
	 Singles Energy            =      -0.0000000000000000 [Eh]
	 Same-Spin Energy          =      -0.6154801300148546 [Eh]
	 Opposite-Spin Energy      =      -1.8175513413831326 [Eh]
	 Correlation Energy        =      -2.4330314713979870 [Eh]
	 Total Energy              =    -581.0551390320443943 [Eh]

	 ================> DF-SCS-MP2 Energies <==================
	-----------------------------------------------------------
	 SCS Same-Spin Scale       =       0.3333333333333333 [-]
	 SCS Opposite-Spin Scale   =       1.2000000000000000 [-]
	 SCS Same-Spin Energy      =      -0.2051600433382849 [Eh]
	 SCS Opposite-Spin Energy  =      -2.1810616096597588 [Eh]
	 SCS Correlation Energy    =      -2.3862216529980436 [Eh]
	 SCS Total Energy          =    -581.0083292136445152 [Eh]
	-----------------------------------------------------------

  Dipole Moment: [D]
     X:     0.4043      Y:    -7.0292      Z:    -0.9594     Total:     7.1059

*** Psi4 exiting successfully. Buy a developer a beer!
