                               Psi4 1.3.2 release

  ==> Input File <==

--------------------------------------------------------------------------
#psi4
#
memory 32 gb

molecule  {
0 1
  O       -1.4697740     2.5644010     0.0803940
  N        1.9191590    -0.5831280    -0.0556370
  N       -1.9102790     0.3061000     0.0485010
  N       -0.3427170    -1.4672350    -0.0387560
  N        1.5166440     1.6409000    -0.0105650
  N       -2.6294290    -1.9169300     0.1110730
  C        0.5576980    -0.4369160    -0.0295360
  C        0.3337570     0.9396730    -0.0094060
  C       -1.0221650     1.4237120     0.0351730
  C        2.4390620     0.6894910    -0.0699270
  C       -1.5881856    -1.0079038     0.0239291
  C        2.6353690    -1.8453210    -0.0655260
  H        3.5092610     0.8590810    -0.0866130
  H        2.3729340    -2.4304260     0.8177420
  H        2.3794720    -2.4140780    -0.9605130
  H        3.7041390    -1.6305860    -0.0592400
  H       -2.8879820     0.5691470     0.1693100
  H       -2.3423974    -2.8732859    -0.0617607
  H       -3.4596940    -1.6726380    -0.4173570
units angstrom
no_reorient  #important for SAPT in psi4, default
symmetry c1  #important for SAPT in psi4, default
}

set PROPERTIES_ORIGIN ["COM"]
properties('MP2/aug-cc-pvtz', properties = ['dipole'])
--------------------------------------------------------------------------

    Molecular point group: c1
  Charge       = 0
  Multiplicity = 1
  Basis Set: AUG-CC-PVTZ
    Blend: AUG-CC-PVTZ
  Basis Set: (AUG-CC-PVTZ AUX)
    Blend: AUG-CC-PVTZ-JKFIT

    Orbital Energies [Eh]
    ---------------------

    Doubly Occupied:

       1A    -20.521788     2A    -15.632991     3A    -15.631485
       4A    -15.611513     5A    -15.569538     6A    -15.558772
       7A    -11.397454     8A    -11.365491     9A    -11.318227
      10A    -11.306635    11A    -11.288501    12A    -11.245712
      13A     -1.392438    14A     -1.359888    15A     -1.334948
      16A     -1.222244    17A     -1.213006    18A     -1.189305
      19A     -1.028177    20A     -0.985935    21A     -0.902710
      22A     -0.885073    23A     -0.806585    24A     -0.766457
      25A     -0.743501    26A     -0.730806    27A     -0.693154
      28A     -0.670474    29A     -0.650724    30A     -0.640156
      31A     -0.626105    32A     -0.610525    33A     -0.593566
      34A     -0.577439    35A     -0.560549    36A     -0.540706
      37A     -0.492580    38A     -0.458499    39A     -0.440890
      40A     -0.430838    41A     -0.428342    42A     -0.391978
      43A     -0.296010

  @DF-RHF Final Energy:  -578.62969907818024

   => Energetics <=

    Nuclear Repulsion Energy =            693.4062658694091397
    One-Electron Energy =               -2163.8485010979657091
    Two-Electron Energy =                 891.8125361503762178
    Total Energy =                       -578.6296990781802378
  Basis Set: (AUG-CC-PVTZ AUX)
    Blend: AUG-CC-PVTZ-RI
    Molecular point group: c1

    Geometry (in Angstrom), charge = 0, multiplicity = 1:

       Center              X                  Y                   Z               Mass
    ------------   -----------------  -----------------  -----------------  -----------------
         O           -1.468572810303     2.563116444098     0.080005923877    15.994914619570
         N            1.920360189697    -0.584412555902    -0.056025076123    14.003074004430
         N           -1.909077810303     0.304815444098     0.048112923877    14.003074004430
         N           -0.341515810303    -1.468519555902    -0.039144076123    14.003074004430
         N            1.517845189697     1.639615444098    -0.010953076123    14.003074004430
         N           -2.628227810303    -1.918214555902     0.110684923877    14.003074004430
         C            0.558899189697    -0.438200555902    -0.029924076123    12.000000000000
         C            0.334958189697     0.938388444098    -0.009794076123    12.000000000000
         C           -1.020963810303     1.422427444098     0.034784923877    12.000000000000
         C            2.440263189697     0.688206444098    -0.070315076123    12.000000000000
         C           -1.586984410303    -1.009188355902     0.023541023877    12.000000000000
         C            2.636570189697    -1.846605555902    -0.065914076123    12.000000000000
         H            3.510462189697     0.857796444098    -0.087001076123     1.007825032230
         H            2.374135189697    -2.431710555902     0.817353923877     1.007825032230
         H            2.380673189697    -2.415362555902    -0.960901076123     1.007825032230
         H            3.705340189697    -1.631870555902    -0.059628076123     1.007825032230
         H           -2.886780810303     0.567862444098     0.168921923877     1.007825032230
         H           -2.341196210303    -2.874570455902    -0.062148776123     1.007825032230
         H           -3.458492810303    -1.673922555902    -0.417745076123     1.007825032230

  Basis Set: AUG-CC-PVTZ
    Blend: AUG-CC-PVTZ
  Basis Set: (AUG-CC-PVTZ AUX)
    Blend: AUG-CC-PVTZ-JKFIT
	 Reference Energy          =    -578.6296990781802378 [Eh]
	 Singles Energy            =      -0.0000000000000000 [Eh]
	 Same-Spin Energy          =      -0.6162438863228222 [Eh]
	 Opposite-Spin Energy      =      -1.8199671878824253 [Eh]
	 Correlation Energy        =      -2.4362110742052474 [Eh]
	 Total Energy              =    -581.0659101523855270 [Eh]

	 ================> DF-SCS-MP2 Energies <==================
	-----------------------------------------------------------
	 SCS Same-Spin Scale       =       0.3333333333333333 [-]
	 SCS Opposite-Spin Scale   =       1.2000000000000000 [-]
	 SCS Same-Spin Energy      =      -0.2054146287742741 [Eh]
	 SCS Opposite-Spin Energy  =      -2.1839606254589103 [Eh]
	 SCS Correlation Energy    =      -2.3893752542331845 [Eh]
	 SCS Total Energy          =    -581.0190743324134246 [Eh]
	-----------------------------------------------------------

  Dipole Moment: [D]
     X:    -0.1345      Y:    -6.7365      Z:    -0.9228     Total:     6.8007

*** Psi4 exiting successfully. Buy a developer a beer!
