                               Psi4 1.3.2 release

  ==> Input File <==

--------------------------------------------------------------------------
#psi4
#
memory 32 gb

molecule  {
0 1
  O       -1.4697740     2.5644010     0.0803940
  N        1.9191590    -0.5831280    -0.0556370
  N       -1.9102790     0.3061000     0.0485010
  N       -0.3352561    -1.4456857    -0.0399227
  N        1.5166440     1.6409000    -0.0105650
  N       -2.6448347    -1.8983058     0.1113515
  C        0.5576980    -0.4369160    -0.0295360
  C        0.3337570     0.9396730    -0.0094060
  C       -1.0221650     1.4237120     0.0351730
  C        2.4390620     0.6894910    -0.0699270
  C       -1.5730580    -1.0260450     0.0187980
  C        2.6353690    -1.8453210    -0.0655260
  H        3.5092610     0.8590810    -0.0866130
  H        2.3729340    -2.4304260     0.8177420
  H        2.3794720    -2.4140780    -0.9605130
  H        3.7041390    -1.6305860    -0.0592400
  H       -2.8879820     0.5691470     0.1693100
  H       -2.3258040    -2.8676930    -0.0642460
  H       -3.4596940    -1.6726380    -0.4173570
units angstrom
no_reorient  #important for SAPT in psi4, default
symmetry c1  #important for SAPT in psi4, default
}

set PROPERTIES_ORIGIN ["COM"]
properties('MP2/aug-cc-pvtz', properties = ['dipole'])
--------------------------------------------------------------------------

    Molecular point group: c1
  Charge       = 0
  Multiplicity = 1
  Basis Set: AUG-CC-PVTZ
    Blend: AUG-CC-PVTZ
  Basis Set: (AUG-CC-PVTZ AUX)
    Blend: AUG-CC-PVTZ-JKFIT

    Orbital Energies [Eh]
    ---------------------

    Doubly Occupied:

       1A    -20.519299     2A    -15.632052     3A    -15.628252
       4A    -15.612755     5A    -15.569865     6A    -15.558907
       7A    -11.397208     8A    -11.362881     9A    -11.317809
      10A    -11.306850    11A    -11.289241    12A    -11.245701
      13A     -1.390768    14A     -1.360452    15A     -1.334365
      16A     -1.221873    17A     -1.217058    18A     -1.190715
      19A     -1.029093    20A     -0.986080    21A     -0.901724
      22A     -0.884560    23A     -0.809424    24A     -0.767018
      25A     -0.741061    26A     -0.732457    27A     -0.688758
      28A     -0.671543    29A     -0.648481    30A     -0.644935
      31A     -0.627880    32A     -0.609515    33A     -0.593135
      34A     -0.578834    35A     -0.560928    36A     -0.541602
      37A     -0.492708    38A     -0.462152    39A     -0.438489
      40A     -0.429141    41A     -0.427383    42A     -0.392350
      43A     -0.296673

  @DF-RHF Final Energy:  -578.62974177388332

   => Energetics <=

    Nuclear Repulsion Energy =            694.0090554372125098
    One-Electron Energy =               -2165.0536443654746108
    Two-Electron Energy =                 892.4148471543787764
    Total Energy =                       -578.6297417738833246
  Basis Set: (AUG-CC-PVTZ AUX)
    Blend: AUG-CC-PVTZ-RI
    Molecular point group: c1

    Geometry (in Angstrom), charge = 0, multiplicity = 1:

       Center              X                  Y                   Z               Mass
    ------------   -----------------  -----------------  -----------------  -----------------
         O           -1.469099892300     2.560993070693     0.080469471269    15.994914619570
         N            1.919833107700    -0.586535929307    -0.055561528731    14.003074004430
         N           -1.909604892300     0.302692070693     0.048576471269    14.003074004430
         N           -0.334581992300    -1.449093629307    -0.039847228731    14.003074004430
         N            1.517318107700     1.637492070693    -0.010489528731    14.003074004430
         N           -2.644160592300    -1.901713729307     0.111426971269    14.003074004430
         C            0.558372107700    -0.440323929307    -0.029460528731    12.000000000000
         C            0.334431107700     0.936265070693    -0.009330528731    12.000000000000
         C           -1.021490892300     1.420304070693     0.035248471269    12.000000000000
         C            2.439736107700     0.686083070693    -0.069851528731    12.000000000000
         C           -1.572383892300    -1.029452929307     0.018873471269    12.000000000000
         C            2.636043107700    -1.848728929307    -0.065450528731    12.000000000000
         H            3.509935107700     0.855673070693    -0.086537528731     1.007825032230
         H            2.373608107700    -2.433833929307     0.817817471269     1.007825032230
         H            2.380146107700    -2.417485929307    -0.960437528731     1.007825032230
         H            3.704813107700    -1.633993929307    -0.059164528731     1.007825032230
         H           -2.887307892300     0.565739070693     0.169385471269     1.007825032230
         H           -2.325129892300    -2.871100929307    -0.064170528731     1.007825032230
         H           -3.459019892300    -1.676045929307    -0.417281528731     1.007825032230

  Basis Set: AUG-CC-PVTZ
    Blend: AUG-CC-PVTZ
  Basis Set: (AUG-CC-PVTZ AUX)
    Blend: AUG-CC-PVTZ-JKFIT
	 Reference Energy          =    -578.6297417738833246 [Eh]
	 Singles Energy            =      -0.0000000000000000 [Eh]
	 Same-Spin Energy          =      -0.6163026711036965 [Eh]
	 Opposite-Spin Energy      =      -1.8197163363184266 [Eh]
	 Correlation Energy        =      -2.4360190074221233 [Eh]
	 Total Energy              =    -581.0657607813054710 [Eh]

	 ================> DF-SCS-MP2 Energies <==================
	-----------------------------------------------------------
	 SCS Same-Spin Scale       =       0.3333333333333333 [-]
	 SCS Opposite-Spin Scale   =       1.2000000000000000 [-]
	 SCS Same-Spin Energy      =      -0.2054342237012322 [Eh]
	 SCS Opposite-Spin Energy  =      -2.1836596035821119 [Eh]
	 SCS Correlation Energy    =      -2.3890938272833440 [Eh]
	 SCS Total Energy          =    -581.0188356011666428 [Eh]
	-----------------------------------------------------------

  Dipole Moment: [D]
     X:    -0.0205      Y:    -6.8914      Z:    -0.9439     Total:     6.9557

*** Psi4 exiting successfully. Buy a developer a beer!
