                               Psi4 1.3.2 release

  ==> Input File <==

--------------------------------------------------------------------------
#psi4
#
memory 32 gb

molecule  {
0 1
  O       -1.4697740     2.5644010     0.0803940
  N        1.9191590    -0.5831280    -0.0556370
  N       -1.9102790     0.3061000     0.0485010
  N       -0.3427170    -1.4672350    -0.0387560
  N        1.5166440     1.6409000    -0.0105650
  N       -2.6294290    -1.9169300     0.1110730
  C        0.5576980    -0.4369160    -0.0295360
  C        0.3337570     0.9396730    -0.0094060
  C       -1.0221650     1.4237120     0.0351730
  C        2.4390620     0.6894910    -0.0699270
  C       -1.5730580    -1.0260450     0.0187980
  C        2.6353690    -1.8453210    -0.0655260
  H        3.5092610     0.8590810    -0.0866130
  H        2.3729340    -2.4304260     0.8177420
  H        2.3794720    -2.4140780    -0.9605130
  H        3.7041390    -1.6305860    -0.0592400
  H       -2.8879820     0.5691470     0.1693100
  H       -2.3393284    -2.8697815    -0.0754498
  H       -3.4598067    -1.6888776    -0.4243911
units angstrom
no_reorient  #important for SAPT in psi4, default
symmetry c1  #important for SAPT in psi4, default
}

set PROPERTIES_ORIGIN ["COM"]
properties('MP2/aug-cc-pvtz', properties = ['dipole'])
--------------------------------------------------------------------------

    Molecular point group: c1
  Charge       = 0
  Multiplicity = 1
  Basis Set: AUG-CC-PVTZ
    Blend: AUG-CC-PVTZ
  Basis Set: (AUG-CC-PVTZ AUX)
    Blend: AUG-CC-PVTZ-JKFIT

    Orbital Energies [Eh]
    ---------------------

    Doubly Occupied:

       1A    -20.520875     2A    -15.632911     3A    -15.629349
       4A    -15.610560     5A    -15.571005     6A    -15.559624
       7A    -11.396382     8A    -11.364277     9A    -11.319125
      10A    -11.307334    11A    -11.289387    12A    -11.247037
      13A     -1.390657    14A     -1.360590    15A     -1.333903
      16A     -1.219118    17A     -1.216218    18A     -1.190670
      19A     -1.029600    20A     -0.986490    21A     -0.901576
      22A     -0.882904    23A     -0.807582    24A     -0.766521
      25A     -0.740962    26A     -0.730884    27A     -0.689746
      28A     -0.671058    29A     -0.649556    30A     -0.642440
      31A     -0.626479    32A     -0.610477    33A     -0.593729
      34A     -0.578545    35A     -0.561040    36A     -0.541602
      37A     -0.493749    38A     -0.459599    39A     -0.439940
      40A     -0.429303    41A     -0.428813    42A     -0.392736
      43A     -0.298493

  @DF-RHF Final Energy:  -578.63060269576806

   => Energetics <=

    Nuclear Repulsion Energy =            693.4017777275909111
    One-Electron Energy =               -2163.8390665282704504
    Two-Electron Energy =                 891.8066861049115914
    Total Energy =                       -578.6306026957680615
  Basis Set: (AUG-CC-PVTZ AUX)
    Blend: AUG-CC-PVTZ-RI
    Molecular point group: c1

    Geometry (in Angstrom), charge = 0, multiplicity = 1:

       Center              X                  Y                   Z               Mass
    ------------   -----------------  -----------------  -----------------  -----------------
         O           -1.469690615811     2.564513040407     0.080505475750    15.994914619570
         N            1.919242384189    -0.583015959593    -0.055525524250    14.003074004430
         N           -1.910195615811     0.306212040407     0.048612475750    14.003074004430
         N           -0.342633615811    -1.467122959593    -0.038644524250    14.003074004430
         N            1.516727384189     1.641012040407    -0.010453524250    14.003074004430
         N           -2.629345615811    -1.916817959593     0.111184475750    14.003074004430
         C            0.557781384189    -0.436803959593    -0.029424524250    12.000000000000
         C            0.333840384189     0.939785040407    -0.009294524250    12.000000000000
         C           -1.022081615811     1.423824040407     0.035284475750    12.000000000000
         C            2.439145384189     0.689603040407    -0.069815524250    12.000000000000
         C           -1.572974615811    -1.025932959593     0.018909475750    12.000000000000
         C            2.635452384189    -1.845208959593    -0.065414524250    12.000000000000
         H            3.509344384189     0.859193040407    -0.086501524250     1.007825032230
         H            2.373017384189    -2.430313959593     0.817853475750     1.007825032230
         H            2.379555384189    -2.413965959593    -0.960401524250     1.007825032230
         H            3.704222384189    -1.630473959593    -0.059128524250     1.007825032230
         H           -2.887898615811     0.569259040407     0.169421475750     1.007825032230
         H           -2.339245015811    -2.869669459593    -0.075338324250     1.007825032230
         H           -3.459723315811    -1.688765559593    -0.424279624250     1.007825032230

  Basis Set: AUG-CC-PVTZ
    Blend: AUG-CC-PVTZ
  Basis Set: (AUG-CC-PVTZ AUX)
    Blend: AUG-CC-PVTZ-JKFIT
	 Reference Energy          =    -578.6306026957680615 [Eh]
	 Singles Energy            =      -0.0000000000000000 [Eh]
	 Same-Spin Energy          =      -0.6160714930175848 [Eh]
	 Opposite-Spin Energy      =      -1.8198338891060586 [Eh]
	 Correlation Energy        =      -2.4359053821236434 [Eh]
	 Total Energy              =    -581.0665080778917400 [Eh]

	 ================> DF-SCS-MP2 Energies <==================
	-----------------------------------------------------------
	 SCS Same-Spin Scale       =       0.3333333333333333 [-]
	 SCS Opposite-Spin Scale   =       1.2000000000000000 [-]
	 SCS Same-Spin Energy      =      -0.2053571643391949 [Eh]
	 SCS Opposite-Spin Energy  =      -2.1838006669272700 [Eh]
	 SCS Correlation Energy    =      -2.3891578312664650 [Eh]
	 SCS Total Energy          =    -581.0197605270345775 [Eh]
	-----------------------------------------------------------

  Dipole Moment: [D]
     X:    -0.0083      Y:    -6.7973      Z:    -0.9601     Total:     6.8648

*** Psi4 exiting successfully. Buy a developer a beer!
