                               Psi4 1.3.2 release

  ==> Input File <==

--------------------------------------------------------------------------
#psi4
#
memory 32 gb

molecule  {
0 1
  O       -1.4697740     2.5644010     0.0803940
  N        1.9191590    -0.5831280    -0.0556370
  N       -1.9333884     0.2999890     0.0505217
  N       -0.3427170    -1.4672350    -0.0387560
  N        1.5166440     1.6409000    -0.0105650
  N       -2.6447568    -1.8982879     0.1124167
  C        0.5576980    -0.4369160    -0.0295360
  C        0.3337570     0.9396730    -0.0094060
  C       -1.0221650     1.4237120     0.0351730
  C        2.4390620     0.6894910    -0.0699270
  C       -1.5730580    -1.0260450     0.0187980
  C        2.6353690    -1.8453210    -0.0655260
  H        3.5092610     0.8590810    -0.0866130
  H        2.3729340    -2.4304260     0.8177420
  H        2.3794720    -2.4140780    -0.9605130
  H        3.7041390    -1.6305860    -0.0592400
  H       -2.8879820     0.5691470     0.1693100
  H       -2.3258040    -2.8676930    -0.0642460
  H       -3.4596940    -1.6726380    -0.4173570
units angstrom
no_reorient  #important for SAPT in psi4, default
symmetry c1  #important for SAPT in psi4, default
}

set PROPERTIES_ORIGIN ["COM"]
properties('MP2/aug-cc-pvtz', properties = ['dipole'])
--------------------------------------------------------------------------

    Molecular point group: c1
  Charge       = 0
  Multiplicity = 1
  Basis Set: AUG-CC-PVTZ
    Blend: AUG-CC-PVTZ
  Basis Set: (AUG-CC-PVTZ AUX)
    Blend: AUG-CC-PVTZ-JKFIT

    Orbital Energies [Eh]
    ---------------------

    Doubly Occupied:

       1A    -20.522383     2A    -15.633556     3A    -15.626128
       4A    -15.609614     5A    -15.571862     6A    -15.560355
       7A    -11.395953     8A    -11.365741     9A    -11.320304
      10A    -11.307826    11A    -11.289813    12A    -11.247842
      13A     -1.389691    14A     -1.361131    15A     -1.334063
      16A     -1.217744    17A     -1.215195    18A     -1.191570
      19A     -1.029285    20A     -0.986924    21A     -0.901333
      22A     -0.880795    23A     -0.808025    24A     -0.768012
      25A     -0.744489    26A     -0.730164    27A     -0.686324
      28A     -0.671027    29A     -0.648764    30A     -0.642979
      31A     -0.625977    32A     -0.610107    33A     -0.595154
      34A     -0.579111    35A     -0.561557    36A     -0.540639
      37A     -0.494802    38A     -0.459336    39A     -0.440079
      40A     -0.429767    41A     -0.429250    42A     -0.393415
      43A     -0.298945

  @DF-RHF Final Energy:  -578.62926043565494

   => Energetics <=

    Nuclear Repulsion Energy =            692.9830383125049593
    One-Electron Energy =               -2162.9905343720029123
    Two-Electron Energy =                 891.3782356238430111
    Total Energy =                       -578.6292604356549418
  Basis Set: (AUG-CC-PVTZ AUX)
    Blend: AUG-CC-PVTZ-RI
    Molecular point group: c1

    Geometry (in Angstrom), charge = 0, multiplicity = 1:

       Center              X                  Y                   Z               Mass
    ------------   -----------------  -----------------  -----------------  -----------------
         O           -1.466513110251     2.563338076797     0.080108707625    15.994914619570
         N            1.922419889749    -0.584190923203    -0.055922292375    14.003074004430
         N           -1.930127510251     0.298926076797     0.050236407625    14.003074004430
         N           -0.339456110251    -1.468297923203    -0.039041292375    14.003074004430
         N            1.519904889749     1.639837076797    -0.010850292375    14.003074004430
         N           -2.641495910251    -1.899350823203     0.112131407625    14.003074004430
         C            0.560958889749    -0.437978923203    -0.029821292375    12.000000000000
         C            0.337017889749     0.938610076797    -0.009691292375    12.000000000000
         C           -1.018904110251     1.422649076797     0.034887707625    12.000000000000
         C            2.442322889749     0.688428076797    -0.070212292375    12.000000000000
         C           -1.569797110251    -1.027107923203     0.018512707625    12.000000000000
         C            2.638629889749    -1.846383923203    -0.065811292375    12.000000000000
         H            3.512521889749     0.858018076797    -0.086898292375     1.007825032230
         H            2.376194889749    -2.431488923203     0.817456707625     1.007825032230
         H            2.382732889749    -2.415140923203    -0.960798292375     1.007825032230
         H            3.707399889749    -1.631648923203    -0.059525292375     1.007825032230
         H           -2.884721110251     0.568084076797     0.169024707625     1.007825032230
         H           -2.322543110251    -2.868755923203    -0.064531292375     1.007825032230
         H           -3.456433110251    -1.673700923203    -0.417642292375     1.007825032230

  Basis Set: AUG-CC-PVTZ
    Blend: AUG-CC-PVTZ
  Basis Set: (AUG-CC-PVTZ AUX)
    Blend: AUG-CC-PVTZ-JKFIT
	 Reference Energy          =    -578.6292604356549418 [Eh]
	 Singles Energy            =      -0.0000000000000000 [Eh]
	 Same-Spin Energy          =      -0.6159167045101053 [Eh]
	 Opposite-Spin Energy      =      -1.8198794086409440 [Eh]
	 Correlation Energy        =      -2.4357961131510493 [Eh]
	 Total Energy              =    -581.0650565488059556 [Eh]

	 ================> DF-SCS-MP2 Energies <==================
	-----------------------------------------------------------
	 SCS Same-Spin Scale       =       0.3333333333333333 [-]
	 SCS Opposite-Spin Scale   =       1.2000000000000000 [-]
	 SCS Same-Spin Energy      =      -0.2053055681700351 [Eh]
	 SCS Opposite-Spin Energy  =      -2.1838552903691326 [Eh]
	 SCS Correlation Energy    =      -2.3891608585391677 [Eh]
	 SCS Total Energy          =    -581.0184212941941269 [Eh]
	-----------------------------------------------------------

  Dipole Moment: [D]
     X:     0.0753      Y:    -6.7368      Z:    -0.9457     Total:     6.8033

*** Psi4 exiting successfully. Buy a developer a beer!
