                               Psi4 1.4a3.dev225

  ==> Input File <==

--------------------------------------------------------------------------
#psi4
#
memory 32 gb

molecule  {
0 1
  O        1.6617960     2.5152110     0.0229320
  N       -1.9329240    -0.4005880    -0.0147920
  N        1.9545050     0.2323110     0.0113410
  N        0.2669280    -1.4301930    -0.0208730
  N       -1.3834780     1.7915450    -0.0193170
  N        2.5221760    -2.0364130     0.0734370
  C       -0.5634760    -0.3442740    -0.0026930
  C       -0.2488450     1.0144850    -0.0147620
  C        1.1380320     1.4076430     0.0031510
  C       -2.3683130     0.9036150    -0.0164120
  C        1.5132624    -1.0582209    -0.0069340
  C       -2.7322540    -1.6127190     0.0339130
  H       -3.4247340     1.1445090    -0.0228960
  H       -2.2735910    -2.3629350    -0.6109560
  H       -2.7853950    -1.9995380     1.0543320
  H       -3.7366260    -1.3828770    -0.3245450
  H        2.9468270     0.4301980     0.1174830
  H        2.1372730    -2.9631930    -0.0801050
  H        3.3349710    -1.8642740    -0.5097710
units angstrom
no_reorient  #important for SAPT in psi4, default
symmetry c1  #important for SAPT in psi4, default
}

set PROPERTIES_ORIGIN ["COM"]
properties('MP2/aug-cc-pvtz', properties = ['dipole'])
--------------------------------------------------------------------------

    Molecular point group: c1
  Charge       = 0
  Multiplicity = 1
  Basis Set: AUG-CC-PVTZ
    Blend: AUG-CC-PVTZ
  Basis Set: (AUG-CC-PVTZ AUX)
    Blend: AUG-CC-PVTZ-JKFIT

    Orbital Energies [Eh]
    ---------------------

    Doubly Occupied:

       1A    -20.522313     2A    -15.633705     3A    -15.630502
       4A    -15.607413     5A    -15.572241     6A    -15.560900
       7A    -11.394835     8A    -11.365601     9A    -11.320605
      10A    -11.307988    11A    -11.289881    12A    -11.248540
      13A     -1.392467    14A     -1.361767    15A     -1.333849
      16A     -1.220354    17A     -1.212253    18A     -1.192268
      19A     -1.030295    20A     -0.986886    21A     -0.902595
      22A     -0.882275    23A     -0.808182    24A     -0.767439
      25A     -0.743098    26A     -0.724062    27A     -0.688977
      28A     -0.671752    29A     -0.650415    30A     -0.640973
      31A     -0.625843    32A     -0.611630    33A     -0.595430
      34A     -0.578949    35A     -0.561089    36A     -0.541500
      37A     -0.495752    38A     -0.459248    39A     -0.441204
      40A     -0.431009    41A     -0.430270    42A     -0.393835
      43A     -0.300271

  @DF-RHF Final Energy:  -578.63042098860410

   => Energetics <=

    Nuclear Repulsion Energy =            693.4363733745517493
    One-Electron Energy =               -2163.8726674866984467
    Two-Electron Energy =                 891.8058731235425967
    Total Energy =                       -578.6304209886041008
  Basis Set: (AUG-CC-PVTZ AUX)
    Blend: AUG-CC-PVTZ-RI
    Molecular point group: c1

    Geometry (in Angstrom), charge = 0, multiplicity = 1:

       Center              X                  Y                   Z               Mass
    ------------   -----------------  -----------------  -----------------  -----------------
         O            1.640014121514     2.460226526165     0.020752355323    15.994914619570
         N           -1.954705878486    -0.455572473835    -0.016971644677    14.003074004430
         N            1.932723121514     0.177326526165     0.009161355323    14.003074004430
         N            0.245146121514    -1.485177473835    -0.023052644677    14.003074004430
         N           -1.405259878486     1.736560526165    -0.021496644677    14.003074004430
         N            2.500394121514    -2.091397473835     0.071257355323    14.003074004430
         C           -0.585257878486    -0.399258473835    -0.004872644677    12.000000000000
         C           -0.270626878486     0.959500526165    -0.016941644677    12.000000000000
         C            1.116250121514     1.352658526165     0.000971355323    12.000000000000
         C           -2.390094878486     0.848630526165    -0.018591644677    12.000000000000
         C            1.491480521514    -1.113205373835    -0.009113644677    12.000000000000
         C           -2.754035878486    -1.667703473835     0.031733355323    12.000000000000
         H           -3.446515878486     1.089524526165    -0.025075644677     1.007825032230
         H           -2.295372878486    -2.417919473835    -0.613135644677     1.007825032230
         H           -2.807176878486    -2.054522473835     1.052152355323     1.007825032230
         H           -3.758407878486    -1.437861473835    -0.326724644677     1.007825032230
         H            2.925045121514     0.375213526165     0.115303355323     1.007825032230
         H            2.115491121514    -3.018177473835    -0.082284644677     1.007825032230
         H            3.313189121514    -1.919258473835    -0.511950644677     1.007825032230

  Basis Set: AUG-CC-PVTZ
    Blend: AUG-CC-PVTZ
  Basis Set: (AUG-CC-PVTZ AUX)
    Blend: AUG-CC-PVTZ-JKFIT
	 Reference Energy          =    -578.6304209886041008 [Eh]
	 Singles Energy            =      -0.0000000000000000 [Eh]
	 Same-Spin Energy          =      -0.6159307570455229 [Eh]
	 Opposite-Spin Energy      =      -1.8197331564809052 [Eh]
	 Correlation Energy        =      -2.4356639135264282 [Eh]
	 Total Energy              =    -581.0660849021305694 [Eh]

	 ================> DF-SCS-MP2 Energies <==================
	-----------------------------------------------------------
	 SCS Same-Spin Scale       =       0.3333333333333333 [-]
	 SCS Opposite-Spin Scale   =       1.2000000000000000 [-]
	 SCS Same-Spin Energy      =      -0.2053102523485076 [Eh]
	 SCS Opposite-Spin Energy  =      -2.1836797877770859 [Eh]
	 SCS Correlation Energy    =      -2.3889900401255937 [Eh]
	 SCS Total Energy          =    -581.0194110287296780 [Eh]
	-----------------------------------------------------------

  Dipole Moment: [D]
     X:    -0.6544      Y:    -6.6311      Z:    -0.8547     Total:     6.7179

*** Psi4 exiting successfully. Buy a developer a beer!
