                               Psi4 1.3.2 release

  ==> Input File <==

--------------------------------------------------------------------------
#psi4
#
memory 32 gb

molecule  {
0 1
  O       -1.4297039     2.5793772     0.0789917
  N        1.9191590    -0.5831280    -0.0556370
  N       -1.8707911     0.2758030     0.0461009
  N       -0.3427170    -1.4672350    -0.0387560
  N        1.5166440     1.6409000    -0.0105650
  N       -2.6294290    -1.9169300     0.1110730
  C        0.5576980    -0.4369160    -0.0295360
  C        0.3337570     0.9396730    -0.0094060
  C       -1.0221650     1.4237120     0.0351730
  C        2.4390620     0.6894910    -0.0699270
  C       -1.5730580    -1.0260450     0.0187980
  C        2.6353690    -1.8453210    -0.0655260
  H        3.5092610     0.8590810    -0.0866130
  H        2.3729340    -2.4304260     0.8177420
  H        2.3794720    -2.4140780    -0.9605130
  H        3.7041390    -1.6305860    -0.0592400
  H       -2.8879820     0.5691470     0.1693100
  H       -2.3258040    -2.8676930    -0.0642460
  H       -3.4596940    -1.6726380    -0.4173570
units angstrom
no_reorient  #important for SAPT in psi4, default
symmetry c1  #important for SAPT in psi4, default
}

set PROPERTIES_ORIGIN ["COM"]
properties('MP2/aug-cc-pvtz', properties = ['dipole'])
--------------------------------------------------------------------------

    Molecular point group: c1
  Charge       = 0
  Multiplicity = 1
  Basis Set: AUG-CC-PVTZ
    Blend: AUG-CC-PVTZ
  Basis Set: (AUG-CC-PVTZ AUX)
    Blend: AUG-CC-PVTZ-JKFIT

    Orbital Energies [Eh]
    ---------------------

    Doubly Occupied:

       1A    -20.524662     2A    -15.635457     3A    -15.631055
       4A    -15.610299     5A    -15.567158     6A    -15.557692
       7A    -11.392280     8A    -11.366531     9A    -11.316947
      10A    -11.306307    11A    -11.288136    12A    -11.244398
      13A     -1.393702    14A     -1.359845    15A     -1.339303
      16A     -1.222450    17A     -1.214531    18A     -1.188725
      19A     -1.030168    20A     -0.985343    21A     -0.904743
      22A     -0.882866    23A     -0.809108    24A     -0.765402
      25A     -0.733417    26A     -0.731487    27A     -0.692107
      28A     -0.671131    29A     -0.651166    30A     -0.639608
      31A     -0.627744    32A     -0.612418    33A     -0.589950
      34A     -0.577359    35A     -0.560919    36A     -0.541257
      37A     -0.491200    38A     -0.460087    39A     -0.441582
      40A     -0.431142    41A     -0.427276    42A     -0.390866
      43A     -0.297005

  @DF-RHF Final Energy:  -578.62469620520324

   => Energetics <=

    Nuclear Repulsion Energy =            694.5400707271047622
    One-Electron Energy =               -2166.1198775324796770
    Two-Electron Energy =                 892.9551106001717926
    Total Energy =                       -578.6246962052032359
  Basis Set: (AUG-CC-PVTZ AUX)
    Blend: AUG-CC-PVTZ-RI
    Molecular point group: c1

    Geometry (in Angstrom), charge = 0, multiplicity = 1:

       Center              X                  Y                   Z               Mass
    ------------   -----------------  -----------------  -----------------  -----------------
         O           -1.436936501556     2.580496337699     0.079331315094    15.994914619570
         N            1.911926398444    -0.582008862301    -0.055297384906    14.003074004430
         N           -1.878023701556     0.276922137699     0.046440515094    14.003074004430
         N           -0.349949601556    -1.466115862301    -0.038416384906    14.003074004430
         N            1.509411398444     1.642019137699    -0.010225384906    14.003074004430
         N           -2.636661601556    -1.915810862301     0.111412615094    14.003074004430
         C            0.550465398444    -0.435796862301    -0.029196384906    12.000000000000
         C            0.326524398444     0.940792137699    -0.009066384906    12.000000000000
         C           -1.029397601556     1.424831137699     0.035512615094    12.000000000000
         C            2.431829398444     0.690610137699    -0.069587384906    12.000000000000
         C           -1.580290601556    -1.024925862301     0.019137615094    12.000000000000
         C            2.628136398444    -1.844201862301    -0.065186384906    12.000000000000
         H            3.502028398444     0.860200137699    -0.086273384906     1.007825032230
         H            2.365701398444    -2.429306862301     0.818081615094     1.007825032230
         H            2.372239398444    -2.412958862301    -0.960173384906     1.007825032230
         H            3.696906398444    -1.629466862301    -0.058900384906     1.007825032230
         H           -2.895214601556     0.570266137699     0.169649615094     1.007825032230
         H           -2.333036601556    -2.866573862301    -0.063906384906     1.007825032230
         H           -3.466926601556    -1.671518862301    -0.417017384906     1.007825032230

  Basis Set: AUG-CC-PVTZ
    Blend: AUG-CC-PVTZ
  Basis Set: (AUG-CC-PVTZ AUX)
    Blend: AUG-CC-PVTZ-JKFIT
	 Reference Energy          =    -578.6246962052032359 [Eh]
	 Singles Energy            =      -0.0000000000000000 [Eh]
	 Same-Spin Energy          =      -0.6169631008705581 [Eh]
	 Opposite-Spin Energy      =      -1.8208900534935812 [Eh]
	 Correlation Energy        =      -2.4378531543641393 [Eh]
	 Total Energy              =    -581.0625493595673561 [Eh]

	 ================> DF-SCS-MP2 Energies <==================
	-----------------------------------------------------------
	 SCS Same-Spin Scale       =       0.3333333333333333 [-]
	 SCS Opposite-Spin Scale   =       1.2000000000000000 [-]
	 SCS Same-Spin Energy      =      -0.2056543669568527 [Eh]
	 SCS Opposite-Spin Energy  =      -2.1850680641922975 [Eh]
	 SCS Correlation Energy    =      -2.3907224311491504 [Eh]
	 SCS Total Energy          =    -581.0154186363523650 [Eh]
	-----------------------------------------------------------

  Dipole Moment: [D]
     X:    -0.1947      Y:    -6.6805      Z:    -0.9362     Total:     6.7485

*** Psi4 exiting successfully. Buy a developer a beer!
