                               Psi4 1.3.2 release

  ==> Input File <==

--------------------------------------------------------------------------
#psi4
#
memory 32 gb

molecule  {
0 1
  O       -1.4697740     2.5644010     0.0803940
  N        1.9191590    -0.5831280    -0.0556370
  N       -1.9102790     0.3061000     0.0485010
  N       -0.3427170    -1.4672350    -0.0387560
  N        1.5166440     1.6409000    -0.0105650
  N       -2.6294290    -1.9169300     0.1110730
  C        0.6235008    -0.3616197    -0.0288622
  C        0.3337570     0.9396730    -0.0094060
  C       -1.0221650     1.4237120     0.0351730
  C        2.4390620     0.6894910    -0.0699270
  C       -1.5730580    -1.0260450     0.0187980
  C        2.6353690    -1.8453210    -0.0655260
  H        3.5092610     0.8590810    -0.0866130
  H        2.3729340    -2.4304260     0.8177420
  H        2.3794720    -2.4140780    -0.9605130
  H        3.7041390    -1.6305860    -0.0592400
  H       -2.8879820     0.5691470     0.1693100
  H       -2.3258040    -2.8676930    -0.0642460
  H       -3.4596940    -1.6726380    -0.4173570
units angstrom
no_reorient  #important for SAPT in psi4, default
symmetry c1  #important for SAPT in psi4, default
}

set PROPERTIES_ORIGIN ["COM"]
properties('MP2/aug-cc-pvtz', properties = ['dipole'])
--------------------------------------------------------------------------

    Molecular point group: c1
  Charge       = 0
  Multiplicity = 1
  Basis Set: AUG-CC-PVTZ
    Blend: AUG-CC-PVTZ
  Basis Set: (AUG-CC-PVTZ AUX)
    Blend: AUG-CC-PVTZ-JKFIT

    Orbital Energies [Eh]
    ---------------------

    Doubly Occupied:

       1A    -20.526728     2A    -15.636287     3A    -15.624479
       4A    -15.605467     5A    -15.566752     6A    -15.560925
       7A    -11.387827     8A    -11.369247     9A    -11.311757
      10A    -11.307251    11A    -11.294674    12A    -11.242573
      13A     -1.394374    14A     -1.374725    15A     -1.328907
      16A     -1.216911    17A     -1.206417    18A     -1.180852
      19A     -1.037668    20A     -0.996447    21A     -0.903152
      22A     -0.870361    23A     -0.806914    24A     -0.773745
      25A     -0.741638    26A     -0.724543    27A     -0.690650
      28A     -0.677357    29A     -0.659609    30A     -0.631842
      31A     -0.620029    32A     -0.613569    33A     -0.596151
      34A     -0.583793    35A     -0.567560    36A     -0.540505
      37A     -0.486286    38A     -0.450311    39A     -0.439968
      40A     -0.431279    41A     -0.421311    42A     -0.396891
      43A     -0.311075

  @DF-RHF Final Energy:  -578.61902444378086

   => Energetics <=

    Nuclear Repulsion Energy =            693.9528744563228884
    One-Electron Energy =               -2164.9261809164954684
    Two-Electron Energy =                 892.3542820163917213
    Total Energy =                       -578.6190244437808587
  Basis Set: (AUG-CC-PVTZ AUX)
    Blend: AUG-CC-PVTZ-RI
    Molecular point group: c1

    Geometry (in Angstrom), charge = 0, multiplicity = 1:

       Center              X                  Y                   Z               Mass
    ------------   -----------------  -----------------  -----------------  -----------------
         O           -1.474557650733     2.558927199777     0.080345137686    15.994914619570
         N            1.914375349267    -0.588601800223    -0.055685862314    14.003074004430
         N           -1.915062650733     0.300626199777     0.048452137686    14.003074004430
         N           -0.347500650733    -1.472708800223    -0.038804862314    14.003074004430
         N            1.511860349267     1.635426199777    -0.010613862314    14.003074004430
         N           -2.634212650733    -1.922403800223     0.111024137686    14.003074004430
         C            0.618717149267    -0.367093500223    -0.028911062314    12.000000000000
         C            0.328973349267     0.934199199777    -0.009454862314    12.000000000000
         C           -1.026948650733     1.418238199777     0.035124137686    12.000000000000
         C            2.434278349267     0.684017199777    -0.069975862314    12.000000000000
         C           -1.577841650733    -1.031518800223     0.018749137686    12.000000000000
         C            2.630585349267    -1.850794800223    -0.065574862314    12.000000000000
         H            3.504477349267     0.853607199777    -0.086661862314     1.007825032230
         H            2.368150349267    -2.435899800223     0.817693137686     1.007825032230
         H            2.374688349267    -2.419551800223    -0.960561862314     1.007825032230
         H            3.699355349267    -1.636059800223    -0.059288862314     1.007825032230
         H           -2.892765650733     0.563673199777     0.169261137686     1.007825032230
         H           -2.330587650733    -2.873166800223    -0.064294862314     1.007825032230
         H           -3.464477650733    -1.678111800223    -0.417405862314     1.007825032230

  Basis Set: AUG-CC-PVTZ
    Blend: AUG-CC-PVTZ
  Basis Set: (AUG-CC-PVTZ AUX)
    Blend: AUG-CC-PVTZ-JKFIT
	 Reference Energy          =    -578.6190244437808587 [Eh]
	 Singles Energy            =      -0.0000000000000000 [Eh]
	 Same-Spin Energy          =      -0.6146131707945085 [Eh]
	 Opposite-Spin Energy      =      -1.8193735138880109 [Eh]
	 Correlation Energy        =      -2.4339866846825196 [Eh]
	 Total Energy              =    -581.0530111284633676 [Eh]

	 ================> DF-SCS-MP2 Energies <==================
	-----------------------------------------------------------
	 SCS Same-Spin Scale       =       0.3333333333333333 [-]
	 SCS Opposite-Spin Scale   =       1.2000000000000000 [-]
	 SCS Same-Spin Energy      =      -0.2048710569315028 [Eh]
	 SCS Opposite-Spin Energy  =      -2.1832482166656129 [Eh]
	 SCS Correlation Energy    =      -2.3881192735971157 [Eh]
	 SCS Total Energy          =    -581.0071437173779714 [Eh]
	-----------------------------------------------------------

  Dipole Moment: [D]
     X:     0.2733      Y:    -6.6012      Z:    -0.9372     Total:     6.6730

*** Psi4 exiting successfully. Buy a developer a beer!
