                               Psi4 1.3.2 release

  ==> Input File <==

--------------------------------------------------------------------------
#psi4
#
memory 32 gb

molecule  {
0 1
  O       -1.4697740     2.5644010     0.0803940
  N        1.9191590    -0.5831280    -0.0556370
  N       -1.9102790     0.3061000     0.0485010
  N       -0.3427170    -1.4672350    -0.0387560
  N        1.5166440     1.6409000    -0.0105650
  N       -2.6294290    -1.9169300     0.1110730
  C        0.5576980    -0.4369160    -0.0295360
  C        0.3337570     0.9396730    -0.0094060
  C       -1.0028108     1.4080442     0.0343211
  C        2.4390620     0.6894910    -0.0699270
  C       -1.5498676    -1.0199436     0.0181262
  C        2.6353690    -1.8453210    -0.0655260
  H        3.5092610     0.8590810    -0.0866130
  H        2.3729340    -2.4304260     0.8177420
  H        2.3794720    -2.4140780    -0.9605130
  H        3.7041390    -1.6305860    -0.0592400
  H       -2.8879820     0.5691470     0.1693100
  H       -2.3258040    -2.8676930    -0.0642460
  H       -3.4596940    -1.6726380    -0.4173570
units angstrom
no_reorient  #important for SAPT in psi4, default
symmetry c1  #important for SAPT in psi4, default
}

set PROPERTIES_ORIGIN ["COM"]
properties('MP2/aug-cc-pvtz', properties = ['dipole'])
--------------------------------------------------------------------------

    Molecular point group: c1
  Charge       = 0
  Multiplicity = 1
  Basis Set: AUG-CC-PVTZ
    Blend: AUG-CC-PVTZ
  Basis Set: (AUG-CC-PVTZ AUX)
    Blend: AUG-CC-PVTZ-JKFIT

    Orbital Energies [Eh]
    ---------------------

    Doubly Occupied:

       1A    -20.515868     2A    -15.636347     3A    -15.630069
       4A    -15.607345     5A    -15.574298     6A    -15.562568
       7A    -11.395082     8A    -11.363245     9A    -11.323899
      10A    -11.310782    11A    -11.291894    12A    -11.248994
      13A     -1.388061    14A     -1.356898    15A     -1.330301
      16A     -1.220885    17A     -1.212324    18A     -1.194928
      19A     -1.035668    20A     -0.990321    21A     -0.906440
      22A     -0.881058    23A     -0.810215    24A     -0.769727
      25A     -0.744598    26A     -0.726107    27A     -0.689286
      28A     -0.674211    29A     -0.650340    30A     -0.642735
      31A     -0.627704    32A     -0.603373    33A     -0.596859
      34A     -0.580456    35A     -0.562454    36A     -0.536949
      37A     -0.498366    38A     -0.459102    39A     -0.439576
      40A     -0.429028    41A     -0.426917    42A     -0.395595
      43A     -0.303410

  @DF-RHF Final Energy:  -578.62764666888881

   => Energetics <=

    Nuclear Repulsion Energy =            693.9448847908810194
    One-Electron Energy =               -2164.8564945639081998
    Two-Electron Energy =                 892.2839631041382518
    Total Energy =                       -578.6276466688888149
  Basis Set: (AUG-CC-PVTZ AUX)
    Blend: AUG-CC-PVTZ-RI
    Molecular point group: c1

    Geometry (in Angstrom), charge = 0, multiplicity = 1:

       Center              X                  Y                   Z               Mass
    ------------   -----------------  -----------------  -----------------  -----------------
         O           -1.472866811980     2.565096599896     0.080504892876    15.994914619570
         N            1.916066188020    -0.582432400104    -0.055526107124    14.003074004430
         N           -1.913371811980     0.306795599896     0.048611892876    14.003074004430
         N           -0.345809811980    -1.466539400104    -0.038645107124    14.003074004430
         N            1.513551188020     1.641595599896    -0.010454107124    14.003074004430
         N           -2.632521811980    -1.916234400104     0.111183892876    14.003074004430
         C            0.554605188020    -0.436220400104    -0.029425107124    12.000000000000
         C            0.330664188020     0.940368599896    -0.009295107124    12.000000000000
         C           -1.005903611980     1.408739799896     0.034431992876    12.000000000000
         C            2.435969188020     0.690186599896    -0.069816107124    12.000000000000
         C           -1.552960411980    -1.019248000104     0.018237092876    12.000000000000
         C            2.632276188020    -1.844625400104    -0.065415107124    12.000000000000
         H            3.506168188020     0.859776599896    -0.086502107124     1.007825032230
         H            2.369841188020    -2.429730400104     0.817852892876     1.007825032230
         H            2.376379188020    -2.413382400104    -0.960402107124     1.007825032230
         H            3.701046188020    -1.629890400104    -0.059129107124     1.007825032230
         H           -2.891074811980     0.569842599896     0.169420892876     1.007825032230
         H           -2.328896811980    -2.866997400104    -0.064135107124     1.007825032230
         H           -3.462786811980    -1.671942400104    -0.417246107124     1.007825032230

  Basis Set: AUG-CC-PVTZ
    Blend: AUG-CC-PVTZ
  Basis Set: (AUG-CC-PVTZ AUX)
    Blend: AUG-CC-PVTZ-JKFIT
	 Reference Energy          =    -578.6276466688888149 [Eh]
	 Singles Energy            =      -0.0000000000000000 [Eh]
	 Same-Spin Energy          =      -0.6163223975810923 [Eh]
	 Opposite-Spin Energy      =      -1.8205284577775784 [Eh]
	 Correlation Energy        =      -2.4368508553586707 [Eh]
	 Total Energy              =    -581.0644975242474857 [Eh]

	 ================> DF-SCS-MP2 Energies <==================
	-----------------------------------------------------------
	 SCS Same-Spin Scale       =       0.3333333333333333 [-]
	 SCS Opposite-Spin Scale   =       1.2000000000000000 [-]
	 SCS Same-Spin Energy      =      -0.2054407991936974 [Eh]
	 SCS Opposite-Spin Energy  =      -2.1846341493330939 [Eh]
	 SCS Correlation Energy    =      -2.3900749485267911 [Eh]
	 SCS Total Energy          =    -581.0177216174156456 [Eh]
	-----------------------------------------------------------

  Dipole Moment: [D]
     X:     0.3260      Y:    -6.8860      Z:    -0.9532     Total:     6.9593

*** Psi4 exiting successfully. Buy a developer a beer!
