                               Psi4 1.3.2 release

  ==> Input File <==

--------------------------------------------------------------------------
#psi4
#
memory 32 gb

molecule  {
0 1
  O       -1.4697740     2.5644010     0.0803940
  N        1.9191590    -0.5831280    -0.0556370
  N       -1.9102790     0.3061000     0.0485010
  N       -0.3427170    -1.4672350    -0.0387560
  N        1.5166440     1.6409000    -0.0105650
  N       -2.6294290    -1.9169300     0.1110730
  C        0.5576980    -0.4369160    -0.0295360
  C        0.3337570     0.9396730    -0.0094060
  C       -1.0616790     1.4540215     0.0368888
  C        2.4390620     0.6894910    -0.0699270
  C       -1.6197398    -1.0370287     0.0201686
  C        2.6353690    -1.8453210    -0.0655260
  H        3.5092610     0.8590810    -0.0866130
  H        2.3729340    -2.4304260     0.8177420
  H        2.3794720    -2.4140780    -0.9605130
  H        3.7041390    -1.6305860    -0.0592400
  H       -2.8879820     0.5691470     0.1693100
  H       -2.3258040    -2.8676930    -0.0642460
  H       -3.4596940    -1.6726380    -0.4173570
units angstrom
no_reorient  #important for SAPT in psi4, default
symmetry c1  #important for SAPT in psi4, default
}

set PROPERTIES_ORIGIN ["COM"]
properties('MP2/aug-cc-pvtz', properties = ['dipole'])
--------------------------------------------------------------------------

    Molecular point group: c1
  Charge       = 0
  Multiplicity = 1
  Basis Set: AUG-CC-PVTZ
    Blend: AUG-CC-PVTZ
  Basis Set: (AUG-CC-PVTZ AUX)
    Blend: AUG-CC-PVTZ-JKFIT

    Orbital Energies [Eh]
    ---------------------

    Doubly Occupied:

       1A    -20.530665     2A    -15.628096     3A    -15.625976
       4A    -15.617395     5A    -15.563830     6A    -15.553606
       7A    -11.398238     8A    -11.365818     9A    -11.309898
      10A    -11.300235    11A    -11.284382    12A    -11.242142
      13A     -1.411480    14A     -1.361579    15A     -1.338486
      16A     -1.231675    17A     -1.205771    18A     -1.181249
      19A     -1.017471    20A     -0.978852    21A     -0.895981
      22A     -0.880740    23A     -0.804773    24A     -0.762022
      25A     -0.738382    26A     -0.733947    27A     -0.696767
      28A     -0.665313    29A     -0.656398    30A     -0.637637
      31A     -0.624319    32A     -0.619922    33A     -0.588123
      34A     -0.574363    35A     -0.561570    36A     -0.549604
      37A     -0.483976    38A     -0.461050    39A     -0.443602
      40A     -0.430504    41A     -0.422519    42A     -0.386601
      43A     -0.287973

  @DF-RHF Final Energy:  -578.62461480881404

   => Energetics <=

    Nuclear Repulsion Energy =            692.5632651044819568
    One-Electron Energy =               -2162.2699042565373020
    Two-Electron Energy =                 891.0820243432411871
    Total Energy =                       -578.6246148088140444
  Basis Set: (AUG-CC-PVTZ AUX)
    Blend: AUG-CC-PVTZ-RI
    Molecular point group: c1

    Geometry (in Angstrom), charge = 0, multiplicity = 1:

       Center              X                  Y                   Z               Mass
    ------------   -----------------  -----------------  -----------------  -----------------
         O           -1.463507564170     2.562996177188     0.080169745025    15.994914619570
         N            1.925425435830    -0.584532822812    -0.055861254975    14.003074004430
         N           -1.904012564170     0.304695177188     0.048276745025    14.003074004430
         N           -0.336450564170    -1.468639822812    -0.038980254975    14.003074004430
         N            1.522910435830     1.639495177188    -0.010789254975    14.003074004430
         N           -2.623162564170    -1.918334822812     0.110848745025    14.003074004430
         C            0.563964435830    -0.438320822812    -0.029760254975    12.000000000000
         C            0.340023435830     0.938268177188    -0.009630254975    12.000000000000
         C           -1.055412564170     1.452616677188     0.036664545025    12.000000000000
         C            2.445328435830     0.688086177188    -0.070151254975    12.000000000000
         C           -1.613473364170    -1.038433522812     0.019944345025    12.000000000000
         C            2.641635435830    -1.846725822812    -0.065750254975    12.000000000000
         H            3.515527435830     0.857676177188    -0.086837254975     1.007825032230
         H            2.379200435830    -2.431830822812     0.817517745025     1.007825032230
         H            2.385738435830    -2.415482822812    -0.960737254975     1.007825032230
         H            3.710405435830    -1.631990822812    -0.059464254975     1.007825032230
         H           -2.881715564170     0.567742177188     0.169085745025     1.007825032230
         H           -2.319537564170    -2.869097822812    -0.064470254975     1.007825032230
         H           -3.453427564170    -1.674042822812    -0.417581254975     1.007825032230

  Basis Set: AUG-CC-PVTZ
    Blend: AUG-CC-PVTZ
  Basis Set: (AUG-CC-PVTZ AUX)
    Blend: AUG-CC-PVTZ-JKFIT
	 Reference Energy          =    -578.6246148088140444 [Eh]
	 Singles Energy            =      -0.0000000000000000 [Eh]
	 Same-Spin Energy          =      -0.6158017021112160 [Eh]
	 Opposite-Spin Energy      =      -1.8188664327859061 [Eh]
	 Correlation Energy        =      -2.4346681348971222 [Eh]
	 Total Energy              =    -581.0592829437111959 [Eh]

	 ================> DF-SCS-MP2 Energies <==================
	-----------------------------------------------------------
	 SCS Same-Spin Scale       =       0.3333333333333333 [-]
	 SCS Opposite-Spin Scale   =       1.2000000000000000 [-]
	 SCS Same-Spin Energy      =      -0.2052672340370720 [Eh]
	 SCS Opposite-Spin Energy  =      -2.1826397193430873 [Eh]
	 SCS Correlation Energy    =      -2.3879069533801593 [Eh]
	 SCS Total Energy          =    -581.0125217621941829 [Eh]
	-----------------------------------------------------------

  Dipole Moment: [D]
     X:    -0.6980      Y:    -6.5890      Z:    -0.9047     Total:     6.6873

*** Psi4 exiting successfully. Buy a developer a beer!
