                               Psi4 1.3.2 release

  ==> Input File <==

--------------------------------------------------------------------------
#psi4
#
memory 32 gb

molecule  {
0 1
  O       -1.4697740     2.5644010     0.0803940
  N        1.9191590    -0.5831280    -0.0556370
  N       -1.9218828     0.3030983     0.0489614
  N       -0.3466159    -1.4779658    -0.0387131
  N        1.5166440     1.6409000    -0.0105650
  N       -2.6294290    -1.9169300     0.1110730
  C        0.5576980    -0.4369160    -0.0295360
  C        0.3337570     0.9396730    -0.0094060
  C       -1.0221650     1.4237120     0.0351730
  C        2.4390620     0.6894910    -0.0699270
  C       -1.5730580    -1.0260450     0.0187980
  C        2.6353690    -1.8453210    -0.0655260
  H        3.5092610     0.8590810    -0.0866130
  H        2.3729340    -2.4304260     0.8177420
  H        2.3794720    -2.4140780    -0.9605130
  H        3.7041390    -1.6305860    -0.0592400
  H       -2.8879820     0.5691470     0.1693100
  H       -2.3258040    -2.8676930    -0.0642460
  H       -3.4596940    -1.6726380    -0.4173570
units angstrom
no_reorient  #important for SAPT in psi4, default
symmetry c1  #important for SAPT in psi4, default
}

set PROPERTIES_ORIGIN ["COM"]
properties('MP2/aug-cc-pvtz', properties = ['dipole'])
--------------------------------------------------------------------------

    Molecular point group: c1
  Charge       = 0
  Multiplicity = 1
  Basis Set: AUG-CC-PVTZ
    Blend: AUG-CC-PVTZ
  Basis Set: (AUG-CC-PVTZ AUX)
    Blend: AUG-CC-PVTZ-JKFIT

    Orbital Energies [Eh]
    ---------------------

    Doubly Occupied:

       1A    -20.522412     2A    -15.633598     3A    -15.628247
       4A    -15.609073     5A    -15.571852     6A    -15.560301
       7A    -11.395428     8A    -11.365690     9A    -11.320327
      10A    -11.307754    11A    -11.289660    12A    -11.248004
      13A     -1.390177    14A     -1.360896    15A     -1.333835
      16A     -1.217727    17A     -1.214655    18A     -1.190978
      19A     -1.029515    20A     -0.986877    21A     -0.901301
      22A     -0.880471    23A     -0.807200    24A     -0.767223
      25A     -0.743007    26A     -0.728228    27A     -0.690978
      28A     -0.670896    29A     -0.649777    30A     -0.641231
      31A     -0.625544    32A     -0.610783    33A     -0.594709
      34A     -0.578650    35A     -0.561341    36A     -0.541114
      37A     -0.494729    38A     -0.457859    39A     -0.440695
      40A     -0.430136    41A     -0.429198    42A     -0.393236
      43A     -0.299509

  @DF-RHF Final Energy:  -578.63036457561532

   => Energetics <=

    Nuclear Repulsion Energy =            692.9408040635840962
    One-Electron Energy =               -2162.9126917427361150
    Two-Electron Energy =                 891.3415231035368151
    Total Energy =                       -578.6303645756153173
  Basis Set: (AUG-CC-PVTZ AUX)
    Blend: AUG-CC-PVTZ-RI
    Molecular point group: c1

    Geometry (in Angstrom), charge = 0, multiplicity = 1:

       Center              X                  Y                   Z               Mass
    ------------   -----------------  -----------------  -----------------  -----------------
         O           -1.468458727943     2.565566114243     0.080351425224    15.994914619570
         N            1.920474272057    -0.581962885757    -0.055679574776    14.003074004430
         N           -1.920567527943     0.304263414243     0.048918825224    14.003074004430
         N           -0.345300627943    -1.476800685757    -0.038755674776    14.003074004430
         N            1.517959272057     1.642065114243    -0.010607574776    14.003074004430
         N           -2.628113727943    -1.915764885757     0.111030425224    14.003074004430
         C            0.559013272057    -0.435750885757    -0.029578574776    12.000000000000
         C            0.335072272057     0.940838114243    -0.009448574776    12.000000000000
         C           -1.020849727943     1.424877114243     0.035130425224    12.000000000000
         C            2.440377272057     0.690656114243    -0.069969574776    12.000000000000
         C           -1.571742727943    -1.024879885757     0.018755425224    12.000000000000
         C            2.636684272057    -1.844155885757    -0.065568574776    12.000000000000
         H            3.510576272057     0.860246114243    -0.086655574776     1.007825032230
         H            2.374249272057    -2.429260885757     0.817699425224     1.007825032230
         H            2.380787272057    -2.412912885757    -0.960555574776     1.007825032230
         H            3.705454272057    -1.629420885757    -0.059282574776     1.007825032230
         H           -2.886666727943     0.570312114243     0.169267425224     1.007825032230
         H           -2.324488727943    -2.866527885757    -0.064288574776     1.007825032230
         H           -3.458378727943    -1.671472885757    -0.417399574776     1.007825032230

  Basis Set: AUG-CC-PVTZ
    Blend: AUG-CC-PVTZ
  Basis Set: (AUG-CC-PVTZ AUX)
    Blend: AUG-CC-PVTZ-JKFIT
	 Reference Energy          =    -578.6303645756153173 [Eh]
	 Singles Energy            =      -0.0000000000000000 [Eh]
	 Same-Spin Energy          =      -0.6158872987393889 [Eh]
	 Opposite-Spin Energy      =      -1.8199004106224497 [Eh]
	 Correlation Energy        =      -2.4357877093618385 [Eh]
	 Total Energy              =    -581.0661522849771927 [Eh]

	 ================> DF-SCS-MP2 Energies <==================
	-----------------------------------------------------------
	 SCS Same-Spin Scale       =       0.3333333333333333 [-]
	 SCS Opposite-Spin Scale   =       1.2000000000000000 [-]
	 SCS Same-Spin Energy      =      -0.2052957662464630 [Eh]
	 SCS Opposite-Spin Energy  =      -2.1838804927469395 [Eh]
	 SCS Correlation Energy    =      -2.3891762589934027 [Eh]
	 SCS Total Energy          =    -581.0195408346087333 [Eh]
	-----------------------------------------------------------

  Dipole Moment: [D]
     X:     0.0352      Y:    -6.7146      Z:    -0.9362     Total:     6.7797

*** Psi4 exiting successfully. Buy a developer a beer!
