                               Psi4 1.4a3.dev225

  ==> Input File <==

--------------------------------------------------------------------------
#psi4
#
memory 32 gb

molecule  {
0 1
  O        1.6617960     2.5152110     0.0229320
  N       -1.9329240    -0.4005880    -0.0147920
  N        1.9545050     0.2323110     0.0113410
  N        0.2669280    -1.4301930    -0.0208730
  N       -1.3834780     1.7915450    -0.0193170
  N        2.5221760    -2.0364130     0.0734370
  C       -0.5634760    -0.3442740    -0.0026930
  C       -0.2488450     1.0144850    -0.0147620
  C        1.1494423     1.3912176     0.0032655
  C       -2.3683130     0.9036150    -0.0164120
  C        1.5275980    -1.0721200    -0.0057920
  C       -2.7322540    -1.6127190     0.0339130
  H       -3.4247340     1.1445090    -0.0228960
  H       -2.2735910    -2.3629350    -0.6109560
  H       -2.7853950    -1.9995380     1.0543320
  H       -3.7366260    -1.3828770    -0.3245450
  H        2.9468270     0.4301980     0.1174830
  H        2.1372730    -2.9631930    -0.0801050
  H        3.3349710    -1.8642740    -0.5097710
units angstrom
no_reorient  #important for SAPT in psi4, default
symmetry c1  #important for SAPT in psi4, default
}

set PROPERTIES_ORIGIN ["COM"]
properties('MP2/aug-cc-pvtz', properties = ['dipole'])
--------------------------------------------------------------------------

    Molecular point group: c1
  Charge       = 0
  Multiplicity = 1
  Basis Set: AUG-CC-PVTZ
    Blend: AUG-CC-PVTZ
  Basis Set: (AUG-CC-PVTZ AUX)
    Blend: AUG-CC-PVTZ-JKFIT

    Orbital Energies [Eh]
    ---------------------

    Doubly Occupied:

       1A    -20.518605     2A    -15.632662     3A    -15.632618
       4A    -15.612022     5A    -15.572714     6A    -15.560052
       7A    -11.397561     8A    -11.364463     9A    -11.318774
      10A    -11.307158    11A    -11.289151    12A    -11.247908
      13A     -1.389769    14A     -1.358131    15A     -1.333305
      16A     -1.222163    17A     -1.217040    18A     -1.190993
      19A     -1.028932    20A     -0.985500    21A     -0.902560
      22A     -0.885396    23A     -0.808948    24A     -0.766126
      25A     -0.743752    26A     -0.729270    27A     -0.692485
      28A     -0.671079    29A     -0.648480    30A     -0.643357
      31A     -0.627119    32A     -0.607427    33A     -0.594029
      34A     -0.577931    35A     -0.561166    36A     -0.540410
      37A     -0.493865    38A     -0.460868    39A     -0.439576
      40A     -0.429358    41A     -0.427185    42A     -0.392727
      43A     -0.298397

  @DF-RHF Final Energy:  -578.62965418939871

   => Energetics <=

    Nuclear Repulsion Energy =            693.2450032656757912
    One-Electron Energy =               -2163.5072469616879971
    Two-Electron Energy =                 891.6325895066136127
    Total Energy =                       -578.6296541893987069
  Basis Set: (AUG-CC-PVTZ AUX)
    Blend: AUG-CC-PVTZ-RI
    Molecular point group: c1

    Geometry (in Angstrom), charge = 0, multiplicity = 1:

       Center              X                  Y                   Z               Mass
    ------------   -----------------  -----------------  -----------------  -----------------
         O            1.638142430435     2.462431075089     0.020661009523    15.994914619570
         N           -1.956577569565    -0.453367924911    -0.017062990477    14.003074004430
         N            1.930851430435     0.179531075089     0.009070009523    14.003074004430
         N            0.243274430435    -1.482972924911    -0.023143990477    14.003074004430
         N           -1.407131569565     1.738765075089    -0.021587990477    14.003074004430
         N            2.498522430435    -2.089192924911     0.071166009523    14.003074004430
         C           -0.587129569565    -0.397053924911    -0.004963990477    12.000000000000
         C           -0.272498569565     0.961705075089    -0.017032990477    12.000000000000
         C            1.125788730435     1.338437675089     0.000994509523    12.000000000000
         C           -2.391966569565     0.850835075089    -0.018682990477    12.000000000000
         C            1.503944430435    -1.124899924911    -0.008062990477    12.000000000000
         C           -2.755907569565    -1.665498924911     0.031642009523    12.000000000000
         H           -3.448387569565     1.091729075089    -0.025166990477     1.007825032230
         H           -2.297244569565    -2.415714924911    -0.613226990477     1.007825032230
         H           -2.809048569565    -2.052317924911     1.052061009523     1.007825032230
         H           -3.760279569565    -1.435656924911    -0.326815990477     1.007825032230
         H            2.923173430435     0.377418075089     0.115212009523     1.007825032230
         H            2.113619430435    -3.015972924911    -0.082375990477     1.007825032230
         H            3.311317430435    -1.917053924911    -0.512041990477     1.007825032230

  Basis Set: AUG-CC-PVTZ
    Blend: AUG-CC-PVTZ
  Basis Set: (AUG-CC-PVTZ AUX)
    Blend: AUG-CC-PVTZ-JKFIT
	 Reference Energy          =    -578.6296541893987069 [Eh]
	 Singles Energy            =      -0.0000000000000000 [Eh]
	 Same-Spin Energy          =      -0.6162579269330153 [Eh]
	 Opposite-Spin Energy      =      -1.8201303796394470 [Eh]
	 Correlation Energy        =      -2.4363883065724625 [Eh]
	 Total Energy              =    -581.0660424959711463 [Eh]

	 ================> DF-SCS-MP2 Energies <==================
	-----------------------------------------------------------
	 SCS Same-Spin Scale       =       0.3333333333333333 [-]
	 SCS Opposite-Spin Scale   =       1.2000000000000000 [-]
	 SCS Same-Spin Energy      =      -0.2054193089776717 [Eh]
	 SCS Opposite-Spin Energy  =      -2.1841564555673365 [Eh]
	 SCS Correlation Energy    =      -2.3895757645450084 [Eh]
	 SCS Total Energy          =    -581.0192299539437499 [Eh]
	-----------------------------------------------------------

  Dipole Moment: [D]
     X:    -0.4967      Y:    -6.8854      Z:    -0.8524     Total:     6.9558

*** Psi4 exiting successfully. Buy a developer a beer!
