                               Psi4 1.4a3.dev225

  ==> Input File <==

--------------------------------------------------------------------------
#psi4
#
memory 32 gb

molecule  {
0 1
  O        1.6617960     2.5152110     0.0229320
  N       -1.9329240    -0.4005880    -0.0147920
  N        1.9545050     0.2323110     0.0113410
  N        0.2669280    -1.4301930    -0.0208730
  N       -1.3834780     1.7915450    -0.0193170
  N        2.5221760    -2.0364130     0.0734370
  C       -0.5634760    -0.3442740    -0.0026930
  C       -0.2900977     1.0427372    -0.0149276
  C        1.1380320     1.4076430     0.0031510
  C       -2.3683130     0.9036150    -0.0164120
  C        1.5275980    -1.0721200    -0.0057920
  C       -2.7322540    -1.6127190     0.0339130
  H       -3.4247340     1.1445090    -0.0228960
  H       -2.2735910    -2.3629350    -0.6109560
  H       -2.7853950    -1.9995380     1.0543320
  H       -3.7366260    -1.3828770    -0.3245450
  H        2.9468270     0.4301980     0.1174830
  H        2.1372730    -2.9631930    -0.0801050
  H        3.3349710    -1.8642740    -0.5097710
units angstrom
no_reorient  #important for SAPT in psi4, default
symmetry c1  #important for SAPT in psi4, default
}

set PROPERTIES_ORIGIN ["COM"]
properties('MP2/aug-cc-pvtz', properties = ['dipole'])
--------------------------------------------------------------------------

    Molecular point group: c1
  Charge       = 0
  Multiplicity = 1
  Basis Set: AUG-CC-PVTZ
    Blend: AUG-CC-PVTZ
  Basis Set: (AUG-CC-PVTZ AUX)
    Blend: AUG-CC-PVTZ-JKFIT

    Orbital Energies [Eh]
    ---------------------

    Doubly Occupied:

       1A    -20.522698     2A    -15.633965     3A    -15.630460
       4A    -15.610409     5A    -15.571186     6A    -15.558285
       7A    -11.395295     8A    -11.367045     9A    -11.316293
      10A    -11.304871    11A    -11.288649    12A    -11.250043
      13A     -1.390968    14A     -1.362890    15A     -1.334851
      16A     -1.221154    17A     -1.217602    18A     -1.195901
      19A     -1.023029    20A     -0.986346    21A     -0.898100
      22A     -0.881656    23A     -0.807730    24A     -0.764444
      25A     -0.743846    26A     -0.728914    27A     -0.691130
      28A     -0.670247    29A     -0.646505    30A     -0.642836
      31A     -0.625064    32A     -0.609583    33A     -0.597027
      34A     -0.577503    35A     -0.563505    36A     -0.541168
      37A     -0.495391    38A     -0.460908    39A     -0.444346
      40A     -0.430300    41A     -0.424297    42A     -0.397605
      43A     -0.291100

  @DF-RHF Final Energy:  -578.62640836307878

   => Energetics <=

    Nuclear Repulsion Energy =            692.9634705354205835
    One-Electron Energy =               -2162.9494607289939268
    Two-Electron Energy =                 891.3595818304945624
    Total Energy =                       -578.6264083630787809
  Basis Set: (AUG-CC-PVTZ AUX)
    Blend: AUG-CC-PVTZ-RI
    Molecular point group: c1

    Geometry (in Angstrom), charge = 0, multiplicity = 1:

       Center              X                  Y                   Z               Mass
    ------------   -----------------  -----------------  -----------------  -----------------
         O            1.641970957202     2.459183075782     0.020681372403    15.994914619570
         N           -1.952749042798    -0.456615924218    -0.017042627597    14.003074004430
         N            1.934679957202     0.176283075782     0.009090372403    14.003074004430
         N            0.247102957202    -1.486220924218    -0.023123627597    14.003074004430
         N           -1.403303042798     1.735517075782    -0.021567627597    14.003074004430
         N            2.502350957202    -2.092440924218     0.071186372403    14.003074004430
         C           -0.583301042798    -0.400301924218    -0.004943627597    12.000000000000
         C           -0.309922742798     0.986709275782    -0.017178227597    12.000000000000
         C            1.118206957202     1.351615075782     0.000900372403    12.000000000000
         C           -2.388138042798     0.847587075782    -0.018662627597    12.000000000000
         C            1.507772957202    -1.128147924218    -0.008042627597    12.000000000000
         C           -2.752079042798    -1.668746924218     0.031662372403    12.000000000000
         H           -3.444559042798     1.088481075782    -0.025146627597     1.007825032230
         H           -2.293416042798    -2.418962924218    -0.613206627597     1.007825032230
         H           -2.805220042798    -2.055565924218     1.052081372403     1.007825032230
         H           -3.756451042798    -1.438904924218    -0.326795627597     1.007825032230
         H            2.927001957202     0.374170075782     0.115232372403     1.007825032230
         H            2.117447957202    -3.019220924218    -0.082355627597     1.007825032230
         H            3.315145957202    -1.920301924218    -0.512021627597     1.007825032230

  Basis Set: AUG-CC-PVTZ
    Blend: AUG-CC-PVTZ
  Basis Set: (AUG-CC-PVTZ AUX)
    Blend: AUG-CC-PVTZ-JKFIT
	 Reference Energy          =    -578.6264083630787809 [Eh]
	 Singles Energy            =      -0.0000000000000000 [Eh]
	 Same-Spin Energy          =      -0.6168354710369002 [Eh]
	 Opposite-Spin Energy      =      -1.8202562067185828 [Eh]
	 Correlation Energy        =      -2.4370916777554830 [Eh]
	 Total Energy              =    -581.0635000408342421 [Eh]

	 ================> DF-SCS-MP2 Energies <==================
	-----------------------------------------------------------
	 SCS Same-Spin Scale       =       0.3333333333333333 [-]
	 SCS Opposite-Spin Scale   =       1.2000000000000000 [-]
	 SCS Same-Spin Energy      =      -0.2056118236789667 [Eh]
	 SCS Opposite-Spin Energy  =      -2.1843074480622993 [Eh]
	 SCS Correlation Energy    =      -2.3899192717412658 [Eh]
	 SCS Total Energy          =    -581.0163276348200725 [Eh]
	-----------------------------------------------------------

  Dipole Moment: [D]
     X:    -0.5099      Y:    -6.6756      Z:    -0.8500     Total:     6.7488

*** Psi4 exiting successfully. Buy a developer a beer!
