                               Psi4 1.3.2 release

  ==> Input File <==

--------------------------------------------------------------------------
#psi4
#
memory 32 gb

molecule  {
0 1
  O       -1.4697740     2.5644010     0.0803940
  N        1.9191590    -0.5831280    -0.0556370
  N       -1.9102790     0.3061000     0.0485010
  N       -0.3427170    -1.4672350    -0.0387560
  N        1.5166440     1.6409000    -0.0105650
  N       -2.6294290    -1.9169300     0.1110730
  C        0.5534286    -0.4845278    -0.0292977
  C        0.3337570     0.9396730    -0.0094060
  C       -1.0221650     1.4237120     0.0351730
  C        2.4831520     0.6705652    -0.0707261
  C       -1.5730580    -1.0260450     0.0187980
  C        2.6353690    -1.8453210    -0.0655260
  H        3.5092610     0.8590810    -0.0866130
  H        2.3729340    -2.4304260     0.8177420
  H        2.3794720    -2.4140780    -0.9605130
  H        3.7041390    -1.6305860    -0.0592400
  H       -2.8879820     0.5691470     0.1693100
  H       -2.3258040    -2.8676930    -0.0642460
  H       -3.4596940    -1.6726380    -0.4173570
units angstrom
no_reorient  #important for SAPT in psi4, default
symmetry c1  #important for SAPT in psi4, default
}

set PROPERTIES_ORIGIN ["COM"]
properties('MP2/aug-cc-pvtz', properties = ['dipole'])
--------------------------------------------------------------------------

    Molecular point group: c1
  Charge       = 0
  Multiplicity = 1
  Basis Set: AUG-CC-PVTZ
    Blend: AUG-CC-PVTZ
  Basis Set: (AUG-CC-PVTZ AUX)
    Blend: AUG-CC-PVTZ-JKFIT

    Orbital Energies [Eh]
    ---------------------

    Doubly Occupied:

       1A    -20.518494     2A    -15.637021     3A    -15.631274
       4A    -15.612820     5A    -15.571937     6A    -15.563817
       7A    -11.399511     8A    -11.362538     9A    -11.322774
      10A    -11.306993    11A    -11.288010    12A    -11.249532
      13A     -1.390194    14A     -1.357302    15A     -1.333698
      16A     -1.223434    17A     -1.219602    18A     -1.183637
      19A     -1.022602    20A     -0.984355    21A     -0.906405
      22A     -0.886560    23A     -0.813441    24A     -0.760841
      25A     -0.740520    26A     -0.735071    27A     -0.694029
      28A     -0.671373    29A     -0.654159    30A     -0.644657
      31A     -0.628791    32A     -0.608433    33A     -0.593939
      34A     -0.579196    35A     -0.556361    36A     -0.542556
      37A     -0.492347    38A     -0.462313    39A     -0.438447
      40A     -0.430403    41A     -0.423911    42A     -0.390240
      43A     -0.287592

  @DF-RHF Final Energy:  -578.61867563558701

   => Energetics <=

    Nuclear Repulsion Energy =            692.2542653021340584
    One-Electron Energy =               -2161.5036175406376060
    Two-Electron Energy =                 890.6306766029164237
    Total Energy =                       -578.6186756355870102
  Basis Set: (AUG-CC-PVTZ AUX)
    Blend: AUG-CC-PVTZ-RI
    Molecular point group: c1

    Geometry (in Angstrom), charge = 0, multiplicity = 1:

       Center              X                  Y                   Z               Mass
    ------------   -----------------  -----------------  -----------------  -----------------
         O           -1.472668780973     2.569238326804     0.080434891386    15.994914619570
         N            1.916264219027    -0.578290673196    -0.055596108614    14.003074004430
         N           -1.913173780973     0.310937326804     0.048541891386    14.003074004430
         N           -0.345611780973    -1.462397673196    -0.038715108614    14.003074004430
         N            1.513749219027     1.645737326804    -0.010524108614    14.003074004430
         N           -2.632323780973    -1.912092673196     0.111113891386    14.003074004430
         C            0.550533819027    -0.479690473196    -0.029256808614    12.000000000000
         C            0.330862219027     0.944510326804    -0.009365108614    12.000000000000
         C           -1.025059780973     1.428549326804     0.035213891386    12.000000000000
         C            2.480257219027     0.675402526804    -0.070685208614    12.000000000000
         C           -1.575952780973    -1.021207673196     0.018838891386    12.000000000000
         C            2.632474219027    -1.840483673196    -0.065485108614    12.000000000000
         H            3.506366219027     0.863918326804    -0.086572108614     1.007825032230
         H            2.370039219027    -2.425588673196     0.817782891386     1.007825032230
         H            2.376577219027    -2.409240673196    -0.960472108614     1.007825032230
         H            3.701244219027    -1.625748673196    -0.059199108614     1.007825032230
         H           -2.890876780973     0.573984326804     0.169350891386     1.007825032230
         H           -2.328698780973    -2.862855673196    -0.064205108614     1.007825032230
         H           -3.462588780973    -1.667800673196    -0.417316108614     1.007825032230

  Basis Set: AUG-CC-PVTZ
    Blend: AUG-CC-PVTZ
  Basis Set: (AUG-CC-PVTZ AUX)
    Blend: AUG-CC-PVTZ-JKFIT
	 Reference Energy          =    -578.6186756355870102 [Eh]
	 Singles Energy            =      -0.0000000000000000 [Eh]
	 Same-Spin Energy          =      -0.6183740011313280 [Eh]
	 Opposite-Spin Energy      =      -1.8229504315946403 [Eh]
	 Correlation Energy        =      -2.4413244327259682 [Eh]
	 Total Energy              =    -581.0600000683130020 [Eh]

	 ================> DF-SCS-MP2 Energies <==================
	-----------------------------------------------------------
	 SCS Same-Spin Scale       =       0.3333333333333333 [-]
	 SCS Opposite-Spin Scale   =       1.2000000000000000 [-]
	 SCS Same-Spin Energy      =      -0.2061246670437760 [Eh]
	 SCS Opposite-Spin Energy  =      -2.1875405179135683 [Eh]
	 SCS Correlation Energy    =      -2.3936651849573445 [Eh]
	 SCS Total Energy          =    -581.0123408205444093 [Eh]
	-----------------------------------------------------------

  Dipole Moment: [D]
     X:    -0.0449      Y:    -6.9382      Z:    -0.9393     Total:     7.0016

*** Psi4 exiting successfully. Buy a developer a beer!
