                               Psi4 1.3.2 release

  ==> Input File <==

--------------------------------------------------------------------------
#psi4
#
memory 32 gb

molecule  {
0 1
  O       -1.4697740     2.5644010     0.0803940
  N        1.9191590    -0.5831280    -0.0556370
  N       -1.9102790     0.3061000     0.0485010
  N       -0.3427170    -1.4672350    -0.0387560
  N        1.5166440     1.6409000    -0.0105650
  N       -2.6294290    -1.9169300     0.1110730
  C        0.5576980    -0.4369160    -0.0295360
  C        0.3337570     0.9396730    -0.0094060
  C       -1.0221650     1.4237120     0.0351730
  C        2.4390620     0.6894910    -0.0699270
  C       -1.5656146    -1.0352177     0.0162429
  C        2.6353690    -1.8453210    -0.0655260
  H        3.5092610     0.8590810    -0.0866130
  H        2.3729340    -2.4304260     0.8177420
  H        2.3794720    -2.4140780    -0.9605130
  H        3.7041390    -1.6305860    -0.0592400
  H       -2.8879820     0.5691470     0.1693100
  H       -2.3175417    -2.8647879    -0.0654687
  H       -3.4596940    -1.6726380    -0.4173570
units angstrom
no_reorient  #important for SAPT in psi4, default
symmetry c1  #important for SAPT in psi4, default
}

set PROPERTIES_ORIGIN ["COM"]
properties('MP2/aug-cc-pvtz', properties = ['dipole'])
--------------------------------------------------------------------------

    Molecular point group: c1
  Charge       = 0
  Multiplicity = 1
  Basis Set: AUG-CC-PVTZ
    Blend: AUG-CC-PVTZ
  Basis Set: (AUG-CC-PVTZ AUX)
    Blend: AUG-CC-PVTZ-JKFIT

    Orbital Energies [Eh]
    ---------------------

    Doubly Occupied:

       1A    -20.520418     2A    -15.633555     3A    -15.627419
       4A    -15.610294     5A    -15.571501     6A    -15.559994
       7A    -11.395314     8A    -11.363634     9A    -11.319576
      10A    -11.307595    11A    -11.289819    12A    -11.247573
      13A     -1.389951    14A     -1.360872    15A     -1.333808
      16A     -1.218555    17A     -1.216693    18A     -1.191174
      19A     -1.030070    20A     -0.986732    21A     -0.901326
      22A     -0.880558    23A     -0.808535    24A     -0.766990
      25A     -0.740512    26A     -0.728357    27A     -0.691565
      28A     -0.671510    29A     -0.649119    30A     -0.643244
      31A     -0.626573    32A     -0.610398    33A     -0.593747
      34A     -0.579051    35A     -0.561313    36A     -0.541997
      37A     -0.494220    38A     -0.459739    39A     -0.439494
      40A     -0.429270    41A     -0.428097    42A     -0.393084
      43A     -0.299582

  @DF-RHF Final Energy:  -578.63061345613380

   => Energetics <=

    Nuclear Repulsion Energy =            693.4752591096853394
    One-Electron Energy =               -2163.9860883091605501
    Two-Electron Energy =                 891.8802157433414095
    Total Energy =                       -578.6306134561338013
  Basis Set: (AUG-CC-PVTZ AUX)
    Blend: AUG-CC-PVTZ-RI
    Molecular point group: c1

    Geometry (in Angstrom), charge = 0, multiplicity = 1:

       Center              X                  Y                   Z               Mass
    ------------   -----------------  -----------------  -----------------  -----------------
         O           -1.470365450107     2.565050241009     0.080587339565    15.994914619570
         N            1.918567549893    -0.582478758991    -0.055443660435    14.003074004430
         N           -1.910870450107     0.306749241009     0.048694339565    14.003074004430
         N           -0.343308450107    -1.466585758991    -0.038562660435    14.003074004430
         N            1.516052549893     1.641549241009    -0.010371660435    14.003074004430
         N           -2.630020450107    -1.916280758991     0.111266339565    14.003074004430
         C            0.557106549893    -0.436266758991    -0.029342660435    12.000000000000
         C            0.333165549893     0.940322241009    -0.009212660435    12.000000000000
         C           -1.022756450107     1.424361241009     0.035366339565    12.000000000000
         C            2.438470549893     0.690140241009    -0.069733660435    12.000000000000
         C           -1.566206050107    -1.034568458991     0.016436239565    12.000000000000
         C            2.634777549893    -1.844671758991    -0.065332660435    12.000000000000
         H            3.508669549893     0.859730241009    -0.086419660435     1.007825032230
         H            2.372342549893    -2.429776758991     0.817935339565     1.007825032230
         H            2.378880549893    -2.413428758991    -0.960319660435     1.007825032230
         H            3.703547549893    -1.629936758991    -0.059046660435     1.007825032230
         H           -2.888573450107     0.569796241009     0.169503339565     1.007825032230
         H           -2.318133150107    -2.864138658991    -0.065275360435     1.007825032230
         H           -3.460285450107    -1.671988758991    -0.417163660435     1.007825032230

  Basis Set: AUG-CC-PVTZ
    Blend: AUG-CC-PVTZ
  Basis Set: (AUG-CC-PVTZ AUX)
    Blend: AUG-CC-PVTZ-JKFIT
	 Reference Energy          =    -578.6306134561338013 [Eh]
	 Singles Energy            =      -0.0000000000000000 [Eh]
	 Same-Spin Energy          =      -0.6159955617164998 [Eh]
	 Opposite-Spin Energy      =      -1.8197641290069959 [Eh]
	 Correlation Energy        =      -2.4357596907234957 [Eh]
	 Total Energy              =    -581.0663731468572450 [Eh]

	 ================> DF-SCS-MP2 Energies <==================
	-----------------------------------------------------------
	 SCS Same-Spin Scale       =       0.3333333333333333 [-]
	 SCS Opposite-Spin Scale   =       1.2000000000000000 [-]
	 SCS Same-Spin Energy      =      -0.2053318539054999 [Eh]
	 SCS Opposite-Spin Energy  =      -2.1837169548083950 [Eh]
	 SCS Correlation Energy    =      -2.3890488087138948 [Eh]
	 SCS Total Energy          =    -581.0196622648477387 [Eh]
	-----------------------------------------------------------

  Dipole Moment: [D]
     X:     0.0475      Y:    -6.8202      Z:    -0.9450     Total:     6.8855

*** Psi4 exiting successfully. Buy a developer a beer!
