                               Psi4 1.3.2 release

  ==> Input File <==

--------------------------------------------------------------------------
#psi4
#
memory 32 gb

molecule  {
0 1
  O       -1.4697740     2.5644010     0.0803940
  N        1.9191590    -0.5831280    -0.0556370
  N       -1.9102790     0.3061000     0.0485010
  N       -0.3465882    -1.4779597    -0.0381660
  N        1.5166440     1.6409000    -0.0105650
  N       -2.6216052    -1.9261407     0.1109232
  C        0.5576980    -0.4369160    -0.0295360
  C        0.3337570     0.9396730    -0.0094060
  C       -1.0221650     1.4237120     0.0351730
  C        2.4390620     0.6894910    -0.0699270
  C       -1.5730580    -1.0260450     0.0187980
  C        2.6353690    -1.8453210    -0.0655260
  H        3.5092610     0.8590810    -0.0866130
  H        2.3729340    -2.4304260     0.8177420
  H        2.3794720    -2.4140780    -0.9605130
  H        3.7041390    -1.6305860    -0.0592400
  H       -2.8879820     0.5691470     0.1693100
  H       -2.3258040    -2.8676930    -0.0642460
  H       -3.4596940    -1.6726380    -0.4173570
units angstrom
no_reorient  #important for SAPT in psi4, default
symmetry c1  #important for SAPT in psi4, default
}

set PROPERTIES_ORIGIN ["COM"]
properties('MP2/aug-cc-pvtz', properties = ['dipole'])
--------------------------------------------------------------------------

    Molecular point group: c1
  Charge       = 0
  Multiplicity = 1
  Basis Set: AUG-CC-PVTZ
    Blend: AUG-CC-PVTZ
  Basis Set: (AUG-CC-PVTZ AUX)
    Blend: AUG-CC-PVTZ-JKFIT

    Orbital Energies [Eh]
    ---------------------

    Doubly Occupied:

       1A    -20.521666     2A    -15.633261     3A    -15.629846
       4A    -15.609660     5A    -15.571386     6A    -15.559924
       7A    -11.395531     8A    -11.364953     9A    -11.319740
      10A    -11.307483    11A    -11.289450    12A    -11.247569
      13A     -1.390698    14A     -1.360619    15A     -1.333855
      16A     -1.219644    17A     -1.214046    18A     -1.190479
      19A     -1.029613    20A     -0.986659    21A     -0.901721
      22A     -0.881124    23A     -0.807068    24A     -0.766606
      25A     -0.741298    26A     -0.728540    27A     -0.693346
      28A     -0.670933    29A     -0.650340    30A     -0.640551
      31A     -0.625671    32A     -0.610920    33A     -0.593976
      34A     -0.578351    35A     -0.561093    36A     -0.541597
      37A     -0.494202    38A     -0.457896    39A     -0.440604
      40A     -0.429871    41A     -0.428995    42A     -0.392890
      43A     -0.299245

  @DF-RHF Final Energy:  -578.63020262211614

   => Energetics <=

    Nuclear Repulsion Energy =            693.1804757604098768
    One-Electron Energy =               -2163.3955170938143056
    Two-Electron Energy =                 891.5848387112881710
    Total Energy =                       -578.6302026221161441
  Basis Set: (AUG-CC-PVTZ AUX)
    Blend: AUG-CC-PVTZ-RI
    Molecular point group: c1

    Geometry (in Angstrom), charge = 0, multiplicity = 1:

       Center              X                  Y                   Z               Mass
    ------------   -----------------  -----------------  -----------------  -----------------
         O           -1.470109192347     2.566092328984     0.080356778228    15.994914619570
         N            1.918823807653    -0.581436671016    -0.055674221772    14.003074004430
         N           -1.910614192347     0.307791328984     0.048463778228    14.003074004430
         N           -0.346923392347    -1.476268371016    -0.038203221772    14.003074004430
         N            1.516308807653     1.642591328984    -0.010602221772    14.003074004430
         N           -2.621940392347    -1.924449371016     0.110885978228    14.003074004430
         C            0.557362807653    -0.435224671016    -0.029573221772    12.000000000000
         C            0.333421807653     0.941364328984    -0.009443221772    12.000000000000
         C           -1.022500192347     1.425403328984     0.035135778228    12.000000000000
         C            2.438726807653     0.691182328984    -0.069964221772    12.000000000000
         C           -1.573393192347    -1.024353671016     0.018760778228    12.000000000000
         C            2.635033807653    -1.843629671016    -0.065563221772    12.000000000000
         H            3.508925807653     0.860772328984    -0.086650221772     1.007825032230
         H            2.372598807653    -2.428734671016     0.817704778228     1.007825032230
         H            2.379136807653    -2.412386671016    -0.960550221772     1.007825032230
         H            3.703803807653    -1.628894671016    -0.059277221772     1.007825032230
         H           -2.888317192347     0.570838328984     0.169272778228     1.007825032230
         H           -2.326139192347    -2.866001671016    -0.064283221772     1.007825032230
         H           -3.460029192347    -1.670946671016    -0.417394221772     1.007825032230

  Basis Set: AUG-CC-PVTZ
    Blend: AUG-CC-PVTZ
  Basis Set: (AUG-CC-PVTZ AUX)
    Blend: AUG-CC-PVTZ-JKFIT
	 Reference Energy          =    -578.6302026221161441 [Eh]
	 Singles Energy            =      -0.0000000000000000 [Eh]
	 Same-Spin Energy          =      -0.6159874990491245 [Eh]
	 Opposite-Spin Energy      =      -1.8199288942419574 [Eh]
	 Correlation Energy        =      -2.4359163932910821 [Eh]
	 Total Energy              =    -581.0661190154072528 [Eh]

	 ================> DF-SCS-MP2 Energies <==================
	-----------------------------------------------------------
	 SCS Same-Spin Scale       =       0.3333333333333333 [-]
	 SCS Opposite-Spin Scale   =       1.2000000000000000 [-]
	 SCS Same-Spin Energy      =      -0.2053291663497082 [Eh]
	 SCS Opposite-Spin Energy  =      -2.1839146730903489 [Eh]
	 SCS Correlation Energy    =      -2.3892438394400570 [Eh]
	 SCS Total Energy          =    -581.0194464615561856 [Eh]
	-----------------------------------------------------------

  Dipole Moment: [D]
     X:    -0.0072      Y:    -6.7406      Z:    -0.9344     Total:     6.8050

*** Psi4 exiting successfully. Buy a developer a beer!
