                               Psi4 1.3.2 release

  ==> Input File <==

--------------------------------------------------------------------------
#psi4
#
memory 32 gb

molecule  {
0 1
  O       -1.4697740     2.5644010     0.0803940
  N        1.9191590    -0.5831280    -0.0556370
  N       -1.9102790     0.3061000     0.0485010
  N       -0.3427170    -1.4672350    -0.0387560
  N        1.5166440     1.6409000    -0.0105650
  N       -2.6294290    -1.9169300     0.1110730
  C        0.5576980    -0.4369160    -0.0295360
  C        0.3337570     0.9396730    -0.0094060
  C       -1.0221650     1.4237120     0.0351730
  C        2.4390620     0.6894910    -0.0699270
  C       -1.5730580    -1.0260450     0.0187980
  C        2.5860184    -1.7583494    -0.0648446
  H        3.5092610     0.8590810    -0.0866130
  H        2.3729340    -2.4304260     0.8177420
  H        2.3794720    -2.4140780    -0.9605130
  H        3.7041390    -1.6305860    -0.0592400
  H       -2.8879820     0.5691470     0.1693100
  H       -2.3258040    -2.8676930    -0.0642460
  H       -3.4596940    -1.6726380    -0.4173570
units angstrom
no_reorient  #important for SAPT in psi4, default
symmetry c1  #important for SAPT in psi4, default
}

set PROPERTIES_ORIGIN ["COM"]
properties('MP2/aug-cc-pvtz', properties = ['dipole'])
--------------------------------------------------------------------------

    Molecular point group: c1
  Charge       = 0
  Multiplicity = 1
  Basis Set: AUG-CC-PVTZ
    Blend: AUG-CC-PVTZ
  Basis Set: (AUG-CC-PVTZ AUX)
    Blend: AUG-CC-PVTZ-JKFIT

    Orbital Energies [Eh]
    ---------------------

    Doubly Occupied:

       1A    -20.523070     2A    -15.634678     3A    -15.631311
       4A    -15.612025     5A    -15.572905     6A    -15.563332
       7A    -11.398070     8A    -11.366572     9A    -11.322489
      10A    -11.310664    11A    -11.288154    12A    -11.250234
      13A     -1.394858    14A     -1.370961    15A     -1.337715
      16A     -1.222827    17A     -1.219578    18A     -1.204727
      19A     -1.033276    20A     -0.985494    21A     -0.906085
      22A     -0.884447    23A     -0.810991    24A     -0.773203
      25A     -0.746039    26A     -0.731915    27A     -0.695928
      28A     -0.676784    29A     -0.665605    30A     -0.644551
      31A     -0.626585    32A     -0.614832    33A     -0.597881
      34A     -0.556748    35A     -0.552795    36A     -0.535644
      37A     -0.496256    38A     -0.461050    39A     -0.442606
      40A     -0.431499    41A     -0.431060    42A     -0.390567
      43A     -0.301160

  @DF-RHF Final Energy:  -578.61965279228571

   => Energetics <=

    Nuclear Repulsion Energy =            695.6803622467599553
    One-Electron Energy =               -2168.1656859352974607
    Two-Electron Energy =                 893.8656708962516859
    Total Energy =                       -578.6196527922857058
  Basis Set: (AUG-CC-PVTZ AUX)
    Blend: AUG-CC-PVTZ-RI
    Molecular point group: c1

    Geometry (in Angstrom), charge = 0, multiplicity = 1:

       Center              X                  Y                   Z               Mass
    ------------   -----------------  -----------------  -----------------  -----------------
         O           -1.466186158903     2.558078421725     0.080344585176    15.994914619570
         N            1.922746841097    -0.589450578275    -0.055686414824    14.003074004430
         N           -1.906691158903     0.299777421725     0.048451585176    14.003074004430
         N           -0.339129158903    -1.473557578275    -0.038805414824    14.003074004430
         N            1.520231841097     1.634577421725    -0.010614414824    14.003074004430
         N           -2.625841158903    -1.923252578275     0.111023585176    14.003074004430
         C            0.561285841097    -0.443238578275    -0.029585414824    12.000000000000
         C            0.337344841097     0.933350421725    -0.009455414824    12.000000000000
         C           -1.018577158903     1.417389421725     0.035123585176    12.000000000000
         C            2.442649841097     0.683168421725    -0.069976414824    12.000000000000
         C           -1.569470158903    -1.032367578275     0.018748585176    12.000000000000
         C            2.589606241097    -1.764671978275    -0.064894014824    12.000000000000
         H            3.512848841097     0.852758421725    -0.086662414824     1.007825032230
         H            2.376521841097    -2.436748578275     0.817692585176     1.007825032230
         H            2.383059841097    -2.420400578275    -0.960562414824     1.007825032230
         H            3.707726841097    -1.636908578275    -0.059289414824     1.007825032230
         H           -2.884394158903     0.562824421725     0.169260585176     1.007825032230
         H           -2.322216158903    -2.874015578275    -0.064295414824     1.007825032230
         H           -3.456106158903    -1.678960578275    -0.417406414824     1.007825032230

  Basis Set: AUG-CC-PVTZ
    Blend: AUG-CC-PVTZ
  Basis Set: (AUG-CC-PVTZ AUX)
    Blend: AUG-CC-PVTZ-JKFIT
	 Reference Energy          =    -578.6196527922857058 [Eh]
	 Singles Energy            =      -0.0000000000000000 [Eh]
	 Same-Spin Energy          =      -0.6169862826275703 [Eh]
	 Opposite-Spin Energy      =      -1.8205236562335902 [Eh]
	 Correlation Energy        =      -2.4375099388611607 [Eh]
	 Total Energy              =    -581.0571627311468319 [Eh]

	 ================> DF-SCS-MP2 Energies <==================
	-----------------------------------------------------------
	 SCS Same-Spin Scale       =       0.3333333333333333 [-]
	 SCS Opposite-Spin Scale   =       1.2000000000000000 [-]
	 SCS Same-Spin Energy      =      -0.2056620942091901 [Eh]
	 SCS Opposite-Spin Energy  =      -2.1846283874803083 [Eh]
	 SCS Correlation Energy    =      -2.3902904816894983 [Eh]
	 SCS Total Energy          =    -581.0099432739751819 [Eh]
	-----------------------------------------------------------

  Dipole Moment: [D]
     X:    -0.2329      Y:    -6.5247      Z:    -0.9313     Total:     6.5950

*** Psi4 exiting successfully. Buy a developer a beer!
