                               Psi4 1.3.2 release

  ==> Input File <==

--------------------------------------------------------------------------
#psi4
#
memory 32 gb

molecule  {
0 1
  O       -1.4697740     2.5644010     0.0803940
  N        1.9191590    -0.5831280    -0.0556370
  N       -1.9102790     0.3061000     0.0485010
  N       -0.3427170    -1.4672350    -0.0387560
  N        1.5166440     1.6409000    -0.0105650
  N       -2.6294290    -1.9169300     0.1110730
  C        0.6893037    -0.2863234    -0.0281884
  C        0.3337570     0.9396730    -0.0094060
  C       -1.0221650     1.4237120     0.0351730
  C        2.4390620     0.6894910    -0.0699270
  C       -1.5730580    -1.0260450     0.0187980
  C        2.6353690    -1.8453210    -0.0655260
  H        3.5092610     0.8590810    -0.0866130
  H        2.3729340    -2.4304260     0.8177420
  H        2.3794720    -2.4140780    -0.9605130
  H        3.7041390    -1.6305860    -0.0592400
  H       -2.8879820     0.5691470     0.1693100
  H       -2.3258040    -2.8676930    -0.0642460
  H       -3.4596940    -1.6726380    -0.4173570
units angstrom
no_reorient  #important for SAPT in psi4, default
symmetry c1  #important for SAPT in psi4, default
}

set PROPERTIES_ORIGIN ["COM"]
properties('MP2/aug-cc-pvtz', properties = ['dipole'])
--------------------------------------------------------------------------

    Molecular point group: c1
  Charge       = 0
  Multiplicity = 1
  Basis Set: AUG-CC-PVTZ
    Blend: AUG-CC-PVTZ
  Basis Set: (AUG-CC-PVTZ AUX)
    Blend: AUG-CC-PVTZ-JKFIT

    Orbital Energies [Eh]
    ---------------------

    Doubly Occupied:

       1A    -20.531510     2A    -15.638674     3A    -15.620411
       4A    -15.600676     5A    -15.562591     6A    -15.561358
       7A    -11.380259     8A    -11.373509     9A    -11.307871
      10A    -11.306670    11A    -11.300007    12A    -11.237840
      13A     -1.407707    14A     -1.384469    15A     -1.323239
      16A     -1.220179    17A     -1.207564    18A     -1.161481
      19A     -1.043824    20A     -1.007115    21A     -0.904580
      22A     -0.863321    23A     -0.814125    24A     -0.773564
      25A     -0.742037    26A     -0.720509    27A     -0.692628
      28A     -0.686231    29A     -0.668544    30A     -0.626941
      31A     -0.621408    32A     -0.607926    33A     -0.598059
      34A     -0.581324    35A     -0.572327    36A     -0.539083
      37A     -0.479791    38A     -0.445339    39A     -0.442537
      40A     -0.422864    41A     -0.415865    42A     -0.397675
      43A     -0.321853

  @DF-RHF Final Energy:  -578.57877966797423

   => Energetics <=

    Nuclear Repulsion Energy =            694.6429773065817699
    One-Electron Energy =               -2166.2125438326338553
    Two-Electron Energy =                 892.9907868580778540
    Total Energy =                       -578.5787796679742314
  Basis Set: (AUG-CC-PVTZ AUX)
    Blend: AUG-CC-PVTZ-RI
    Molecular point group: c1

    Geometry (in Angstrom), charge = 0, multiplicity = 1:

       Center              X                  Y                   Z               Mass
    ------------   -----------------  -----------------  -----------------  -----------------
         O           -1.479341429932     2.553453263617     0.080296153364    15.994914619570
         N            1.909591570068    -0.594075736383    -0.055734846636    14.003074004430
         N           -1.919846429932     0.295152263617     0.048403153364    14.003074004430
         N           -0.352284429932    -1.478182736383    -0.038853846636    14.003074004430
         N            1.507076570068     1.629952263617    -0.010662846636    14.003074004430
         N           -2.638996429932    -1.927877736383     0.110975153364    14.003074004430
         C            0.679736270068    -0.297271136383    -0.028286246636    12.000000000000
         C            0.324189570068     0.928725263617    -0.009503846636    12.000000000000
         C           -1.031732429932     1.412764263617     0.035075153364    12.000000000000
         C            2.429494570068     0.678543263617    -0.070024846636    12.000000000000
         C           -1.582625429932    -1.036992736383     0.018700153364    12.000000000000
         C            2.625801570068    -1.856268736383    -0.065623846636    12.000000000000
         H            3.499693570068     0.848133263617    -0.086710846636     1.007825032230
         H            2.363366570068    -2.441373736383     0.817644153364     1.007825032230
         H            2.369904570068    -2.425025736383    -0.960610846636     1.007825032230
         H            3.694571570068    -1.641533736383    -0.059337846636     1.007825032230
         H           -2.897549429932     0.558199263617     0.169212153364     1.007825032230
         H           -2.335371429932    -2.878640736383    -0.064343846636     1.007825032230
         H           -3.469261429932    -1.683585736383    -0.417454846636     1.007825032230

  Basis Set: AUG-CC-PVTZ
    Blend: AUG-CC-PVTZ
  Basis Set: (AUG-CC-PVTZ AUX)
    Blend: AUG-CC-PVTZ-JKFIT
	 Reference Energy          =    -578.5787796679742314 [Eh]
	 Singles Energy            =      -0.0000000000000000 [Eh]
	 Same-Spin Energy          =      -0.6144266998789170 [Eh]
	 Opposite-Spin Energy      =      -1.8208418555065358 [Eh]
	 Correlation Energy        =      -2.4352685553854529 [Eh]
	 Total Energy              =    -581.0140482233597368 [Eh]

	 ================> DF-SCS-MP2 Energies <==================
	-----------------------------------------------------------
	 SCS Same-Spin Scale       =       0.3333333333333333 [-]
	 SCS Opposite-Spin Scale   =       1.2000000000000000 [-]
	 SCS Same-Spin Energy      =      -0.2048088999596390 [Eh]
	 SCS Opposite-Spin Energy  =      -2.1850102266078428 [Eh]
	 SCS Correlation Energy    =      -2.3898191265674820 [Eh]
	 SCS Total Energy          =    -580.9685987945416628 [Eh]
	-----------------------------------------------------------

  Dipole Moment: [D]
     X:     0.5669      Y:    -6.4216      Z:    -0.9370     Total:     6.5143

*** Psi4 exiting successfully. Buy a developer a beer!
