                               Psi4 1.3.2 release

  ==> Input File <==

--------------------------------------------------------------------------
#psi4
#
memory 32 gb

molecule  {
0 1
  O       -1.4697740     2.5644010     0.0803940
  N        1.9191590    -0.5831280    -0.0556370
  N       -1.9102790     0.3061000     0.0485010
  N       -0.3427170    -1.4672350    -0.0387560
  N        1.5403923     1.5991955    -0.0113241
  N       -2.6294290    -1.9169300     0.1110730
  C        0.6056071    -0.4282568    -0.0298434
  C        0.3337570     0.9396730    -0.0094060
  C       -1.0221650     1.4237120     0.0351730
  C        2.4390620     0.6894910    -0.0699270
  C       -1.5730580    -1.0260450     0.0187980
  C        2.6353690    -1.8453210    -0.0655260
  H        3.5092610     0.8590810    -0.0866130
  H        2.3729340    -2.4304260     0.8177420
  H        2.3794720    -2.4140780    -0.9605130
  H        3.7041390    -1.6305860    -0.0592400
  H       -2.8879820     0.5691470     0.1693100
  H       -2.3258040    -2.8676930    -0.0642460
  H       -3.4596940    -1.6726380    -0.4173570
units angstrom
no_reorient  #important for SAPT in psi4, default
symmetry c1  #important for SAPT in psi4, default
}

set PROPERTIES_ORIGIN ["COM"]
properties('MP2/aug-cc-pvtz', properties = ['dipole'])
--------------------------------------------------------------------------

    Molecular point group: c1
  Charge       = 0
  Multiplicity = 1
  Basis Set: AUG-CC-PVTZ
    Blend: AUG-CC-PVTZ
  Basis Set: (AUG-CC-PVTZ AUX)
    Blend: AUG-CC-PVTZ-JKFIT

    Orbital Energies [Eh]
    ---------------------

    Doubly Occupied:

       1A    -20.521186     2A    -15.632206     3A    -15.626898
       4A    -15.608895     5A    -15.568399     6A    -15.554892
       7A    -11.393550     8A    -11.365937     9A    -11.318530
      10A    -11.299489    11A    -11.290989    12A    -11.244938
      13A     -1.392881    14A     -1.372050    15A     -1.332587
      16A     -1.218688    17A     -1.215126    18A     -1.190656
      19A     -1.034433    20A     -0.990093    21A     -0.902732
      22A     -0.879107    23A     -0.805467    24A     -0.768292
      25A     -0.747403    26A     -0.728388    27A     -0.691686
      28A     -0.676032    29A     -0.651514    30A     -0.638816
      31A     -0.624437    32A     -0.609924    33A     -0.603267
      34A     -0.584040    35A     -0.566570    36A     -0.541270
      37A     -0.486800    38A     -0.456310    39A     -0.437960
      40A     -0.428437    41A     -0.424966    42A     -0.394727
      43A     -0.304183

  @DF-RHF Final Energy:  -578.63092638980947

   => Energetics <=

    Nuclear Repulsion Energy =            694.4608038378585206
    One-Electron Energy =               -2165.9339519987415770
    Two-Electron Energy =                 892.8422217710735822
    Total Energy =                       -578.6309263898094741
  Basis Set: (AUG-CC-PVTZ AUX)
    Blend: AUG-CC-PVTZ-RI
    Molecular point group: c1

    Geometry (in Angstrom), charge = 0, multiplicity = 1:

       Center              X                  Y                   Z               Mass
    ------------   -----------------  -----------------  -----------------  -----------------
         O           -1.475271458988     2.567309569740     0.080480866794    15.994914619570
         N            1.913661541012    -0.580219430260    -0.055550133206    14.003074004430
         N           -1.915776458988     0.309008569740     0.048587866794    14.003074004430
         N           -0.348214458988    -1.464326430260    -0.038669133206    14.003074004430
         N            1.534894841012     1.602104069740    -0.011237233206    14.003074004430
         N           -2.634926458988    -1.914021430260     0.111159866794    14.003074004430
         C            0.600109641012    -0.425348230260    -0.029756533206    12.000000000000
         C            0.328259541012     0.942581569740    -0.009319133206    12.000000000000
         C           -1.027662458988     1.426620569740     0.035259866794    12.000000000000
         C            2.433564541012     0.692399569740    -0.069840133206    12.000000000000
         C           -1.578555458988    -1.023136430260     0.018884866794    12.000000000000
         C            2.629871541012    -1.842412430260    -0.065439133206    12.000000000000
         H            3.503763541012     0.861989569740    -0.086526133206     1.007825032230
         H            2.367436541012    -2.427517430260     0.817828866794     1.007825032230
         H            2.373974541012    -2.411169430260    -0.960426133206     1.007825032230
         H            3.698641541012    -1.627677430260    -0.059153133206     1.007825032230
         H           -2.893479458988     0.572055569740     0.169396866794     1.007825032230
         H           -2.331301458988    -2.864784430260    -0.064159133206     1.007825032230
         H           -3.465191458988    -1.669729430260    -0.417270133206     1.007825032230

  Basis Set: AUG-CC-PVTZ
    Blend: AUG-CC-PVTZ
  Basis Set: (AUG-CC-PVTZ AUX)
    Blend: AUG-CC-PVTZ-JKFIT
	 Reference Energy          =    -578.6309263898094741 [Eh]
	 Singles Energy            =      -0.0000000000000000 [Eh]
	 Same-Spin Energy          =      -0.6143945520489684 [Eh]
	 Opposite-Spin Energy      =      -1.8166884398166554 [Eh]
	 Correlation Energy        =      -2.4310829918656238 [Eh]
	 Total Energy              =    -581.0620093816751250 [Eh]

	 ================> DF-SCS-MP2 Energies <==================
	-----------------------------------------------------------
	 SCS Same-Spin Scale       =       0.3333333333333333 [-]
	 SCS Opposite-Spin Scale   =       1.2000000000000000 [-]
	 SCS Same-Spin Energy      =      -0.2047981840163228 [Eh]
	 SCS Opposite-Spin Energy  =      -2.1800261277799864 [Eh]
	 SCS Correlation Energy    =      -2.3848243117963093 [Eh]
	 SCS Total Energy          =    -581.0157507016058389 [Eh]
	-----------------------------------------------------------

  Dipole Moment: [D]
     X:     0.1708      Y:    -6.6511      Z:    -0.9392     Total:     6.7193

*** Psi4 exiting successfully. Buy a developer a beer!
