                               Psi4 1.3.2 release

  ==> Input File <==

--------------------------------------------------------------------------
#psi4
#
memory 32 gb

molecule  {
0 1
  O       -1.4697740     2.5644010     0.0803940
  N        1.9191590    -0.5831280    -0.0556370
  N       -1.9102790     0.3061000     0.0485010
  N       -0.3427170    -1.4672350    -0.0387560
  N        1.5166440     1.6409000    -0.0105650
  N       -2.6294290    -1.9169300     0.1110730
  C        0.5336472    -0.4406231    -0.0288663
  C        0.3337570     0.9396730    -0.0094060
  C       -1.0304097     1.3999627     0.0351812
  C        2.4390620     0.6894910    -0.0699270
  C       -1.5730580    -1.0260450     0.0187980
  C        2.6353690    -1.8453210    -0.0655260
  H        3.5092610     0.8590810    -0.0866130
  H        2.3729340    -2.4304260     0.8177420
  H        2.3794720    -2.4140780    -0.9605130
  H        3.7041390    -1.6305860    -0.0592400
  H       -2.8879820     0.5691470     0.1693100
  H       -2.3258040    -2.8676930    -0.0642460
  H       -3.4596940    -1.6726380    -0.4173570
units angstrom
no_reorient  #important for SAPT in psi4, default
symmetry c1  #important for SAPT in psi4, default
}

set PROPERTIES_ORIGIN ["COM"]
properties('MP2/aug-cc-pvtz', properties = ['dipole'])
--------------------------------------------------------------------------

    Molecular point group: c1
  Charge       = 0
  Multiplicity = 1
  Basis Set: AUG-CC-PVTZ
    Blend: AUG-CC-PVTZ
  Basis Set: (AUG-CC-PVTZ AUX)
    Blend: AUG-CC-PVTZ-JKFIT

    Orbital Energies [Eh]
    ---------------------

    Doubly Occupied:

       1A    -20.515248     2A    -15.634861     3A    -15.630860
       4A    -15.613584     5A    -15.574469     6A    -15.558840
       7A    -11.399709     8A    -11.362782     9A    -11.319896
      10A    -11.308611    11A    -11.288029    12A    -11.248412
      13A     -1.389235    14A     -1.352181    15A     -1.332198
      16A     -1.223707    17A     -1.222819    18A     -1.190098
      19A     -1.030391    20A     -0.983469    21A     -0.903026
      22A     -0.889074    23A     -0.811179    24A     -0.765728
      25A     -0.743555    26A     -0.731457    27A     -0.694422
      28A     -0.670466    29A     -0.648657    30A     -0.643597
      31A     -0.629485    32A     -0.604029    33A     -0.593224
      34A     -0.574791    35A     -0.559764    36A     -0.539162
      37A     -0.497181    38A     -0.462643    39A     -0.439310
      40A     -0.429222    41A     -0.425815    42A     -0.391254
      43A     -0.297917

  @DF-RHF Final Energy:  -578.62733835708514

   => Energetics <=

    Nuclear Repulsion Energy =            693.6235446892073924
    One-Electron Energy =               -2164.2530467699934889
    Two-Electron Energy =                 892.0021637237009600
    Total Energy =                       -578.6273383570851365
  Basis Set: (AUG-CC-PVTZ AUX)
    Blend: AUG-CC-PVTZ-RI
    Molecular point group: c1

    Geometry (in Angstrom), charge = 0, multiplicity = 1:

       Center              X                  Y                   Z               Mass
    ------------   -----------------  -----------------  -----------------  -----------------
         O           -1.467426040924     2.566397177984     0.080344839621    15.994914619570
         N            1.921506959076    -0.581131822016    -0.055686160379    14.003074004430
         N           -1.907931040924     0.308096177984     0.048451839621    14.003074004430
         N           -0.340369040924    -1.465238822016    -0.038805160379    14.003074004430
         N            1.518991959076     1.642896177984    -0.010614160379    14.003074004430
         N           -2.627081040924    -1.914933822016     0.111023839621    14.003074004430
         C            0.535995159076    -0.438626922016    -0.028915460379    12.000000000000
         C            0.336104959076     0.941669177984    -0.009455160379    12.000000000000
         C           -1.028061740924     1.401958877984     0.035132039621    12.000000000000
         C            2.441409959076     0.691487177984    -0.069976160379    12.000000000000
         C           -1.570710040924    -1.024048822016     0.018748839621    12.000000000000
         C            2.637716959076    -1.843324822016    -0.065575160379    12.000000000000
         H            3.511608959076     0.861077177984    -0.086662160379     1.007825032230
         H            2.375281959076    -2.428429822016     0.817692839621     1.007825032230
         H            2.381819959076    -2.412081822016    -0.960562160379     1.007825032230
         H            3.706486959076    -1.628589822016    -0.059289160379     1.007825032230
         H           -2.885634040924     0.571143177984     0.169260839621     1.007825032230
         H           -2.323456040924    -2.865696822016    -0.064295160379     1.007825032230
         H           -3.457346040924    -1.670641822016    -0.417406160379     1.007825032230

  Basis Set: AUG-CC-PVTZ
    Blend: AUG-CC-PVTZ
  Basis Set: (AUG-CC-PVTZ AUX)
    Blend: AUG-CC-PVTZ-JKFIT
	 Reference Energy          =    -578.6273383570851365 [Eh]
	 Singles Energy            =      -0.0000000000000000 [Eh]
	 Same-Spin Energy          =      -0.6166773879230172 [Eh]
	 Opposite-Spin Energy      =      -1.8207089333183304 [Eh]
	 Correlation Energy        =      -2.4373863212413474 [Eh]
	 Total Energy              =    -581.0647246783264563 [Eh]

	 ================> DF-SCS-MP2 Energies <==================
	-----------------------------------------------------------
	 SCS Same-Spin Scale       =       0.3333333333333333 [-]
	 SCS Opposite-Spin Scale   =       1.2000000000000000 [-]
	 SCS Same-Spin Energy      =      -0.2055591293076724 [Eh]
	 SCS Opposite-Spin Energy  =      -2.1848507199819962 [Eh]
	 SCS Correlation Energy    =      -2.3904098492896688 [Eh]
	 SCS Total Energy          =    -581.0177482063747902 [Eh]
	-----------------------------------------------------------

  Dipole Moment: [D]
     X:    -0.1203      Y:    -7.0316      Z:    -0.9410     Total:     7.0953

*** Psi4 exiting successfully. Buy a developer a beer!
