                               Psi4 1.3.2 release

  ==> Input File <==

--------------------------------------------------------------------------
#psi4
#
memory 32 gb

molecule  {
0 1
  O       -1.4697740     2.5644010     0.0803940
  N        1.9191590    -0.5831280    -0.0556370
  N       -1.9102790     0.3061000     0.0485010
  N       -0.3427170    -1.4672350    -0.0387560
  N        1.5166440     1.6409000    -0.0105650
  N       -2.6294290    -1.9169300     0.1110730
  C        0.5576980    -0.4369160    -0.0295360
  C        0.3337570     0.9396730    -0.0094060
  C       -1.0221650     1.4237120     0.0351730
  C        2.4390620     0.6894910    -0.0699270
  C       -1.5730580    -1.0260450     0.0187980
  C        2.6353690    -1.8453210    -0.0655260
  H        3.5092610     0.8590810    -0.0866130
  H        2.3820424    -2.4302366     0.8205223
  H        2.3794720    -2.4140780    -0.9605130
  H        3.7050036    -1.6353399    -0.0510452
  H       -2.8879820     0.5691470     0.1693100
  H       -2.3258040    -2.8676930    -0.0642460
  H       -3.4596940    -1.6726380    -0.4173570
units angstrom
no_reorient  #important for SAPT in psi4, default
symmetry c1  #important for SAPT in psi4, default
}

set PROPERTIES_ORIGIN ["COM"]
properties('MP2/aug-cc-pvtz', properties = ['dipole'])
--------------------------------------------------------------------------

    Molecular point group: c1
  Charge       = 0
  Multiplicity = 1
  Basis Set: AUG-CC-PVTZ
    Blend: AUG-CC-PVTZ
  Basis Set: (AUG-CC-PVTZ AUX)
    Blend: AUG-CC-PVTZ-JKFIT

    Orbital Energies [Eh]
    ---------------------

    Doubly Occupied:

       1A    -20.520883     2A    -15.632986     3A    -15.629292
       4A    -15.610674     5A    -15.570845     6A    -15.559616
       7A    -11.396030     8A    -11.364271     9A    -11.319179
      10A    -11.307293    11A    -11.289346    12A    -11.246967
      13A     -1.390672    14A     -1.360575    15A     -1.334000
      16A     -1.219067    17A     -1.216192    18A     -1.190621
      19A     -1.029418    20A     -0.986473    21A     -0.901601
      22A     -0.882175    23A     -0.807938    24A     -0.767022
      25A     -0.741125    26A     -0.729320    27A     -0.692176
      28A     -0.671305    29A     -0.649792    30A     -0.641798
      31A     -0.626872    32A     -0.610371    33A     -0.593696
      34A     -0.577674    35A     -0.561337    36A     -0.541624
      37A     -0.493710    38A     -0.459247    39A     -0.439924
      40A     -0.429316    41A     -0.428812    42A     -0.392838
      43A     -0.298403

  @DF-RHF Final Energy:  -578.63074562405791

   => Energetics <=

    Nuclear Repulsion Energy =            693.4273595951495963
    One-Electron Energy =               -2163.8912520016183407
    Two-Electron Energy =                 891.8331467824109495
    Total Energy =                       -578.6307456240579086
  Basis Set: (AUG-CC-PVTZ AUX)
    Blend: AUG-CC-PVTZ-RI
    Molecular point group: c1

    Geometry (in Angstrom), charge = 0, multiplicity = 1:

       Center              X                  Y                   Z               Mass
    ------------   -----------------  -----------------  -----------------  -----------------
         O           -1.469834770181     2.564429005054     0.080327112184    15.994914619570
         N            1.919098229819    -0.583099994946    -0.055703887816    14.003074004430
         N           -1.910339770181     0.306128005054     0.048434112184    14.003074004430
         N           -0.342777770181    -1.467206994946    -0.038822887816    14.003074004430
         N            1.516583229819     1.640928005054    -0.010631887816    14.003074004430
         N           -2.629489770181    -1.916901994946     0.111006112184    14.003074004430
         C            0.557637229819    -0.436887994946    -0.029602887816    12.000000000000
         C            0.333696229819     0.939701005054    -0.009472887816    12.000000000000
         C           -1.022225770181     1.423740005054     0.035106112184    12.000000000000
         C            2.439001229819     0.689519005054    -0.069993887816    12.000000000000
         C           -1.573118770181    -1.026016994946     0.018731112184    12.000000000000
         C            2.635308229819    -1.845292994946    -0.065592887816    12.000000000000
         H            3.509200229819     0.859109005054    -0.086679887816     1.007825032230
         H            2.381981629819    -2.430208594946     0.820455412184     1.007825032230
         H            2.379411229819    -2.414049994946    -0.960579887816     1.007825032230
         H            3.704942829819    -1.635311894946    -0.051112087816     1.007825032230
         H           -2.888042770181     0.569175005054     0.169243112184     1.007825032230
         H           -2.325864770181    -2.867664994946    -0.064312887816     1.007825032230
         H           -3.459754770181    -1.672609994946    -0.417423887816     1.007825032230

  Basis Set: AUG-CC-PVTZ
    Blend: AUG-CC-PVTZ
  Basis Set: (AUG-CC-PVTZ AUX)
    Blend: AUG-CC-PVTZ-JKFIT
	 Reference Energy          =    -578.6307456240579086 [Eh]
	 Singles Energy            =      -0.0000000000000000 [Eh]
	 Same-Spin Energy          =      -0.6160637272025459 [Eh]
	 Opposite-Spin Energy      =      -1.8197985935811367 [Eh]
	 Correlation Energy        =      -2.4358623207836825 [Eh]
	 Total Energy              =    -581.0666079448416212 [Eh]

	 ================> DF-SCS-MP2 Energies <==================
	-----------------------------------------------------------
	 SCS Same-Spin Scale       =       0.3333333333333333 [-]
	 SCS Opposite-Spin Scale   =       1.2000000000000000 [-]
	 SCS Same-Spin Energy      =      -0.2053545757341819 [Eh]
	 SCS Opposite-Spin Energy  =      -2.1837583122973641 [Eh]
	 SCS Correlation Energy    =      -2.3891128880315460 [Eh]
	 SCS Total Energy          =    -581.0198585120893995 [Eh]
	-----------------------------------------------------------

  Dipole Moment: [D]
     X:    -0.0090      Y:    -6.7909      Z:    -0.9319     Total:     6.8545

*** Psi4 exiting successfully. Buy a developer a beer!
