                               Psi4 1.3.2 release

  ==> Input File <==

--------------------------------------------------------------------------
#psi4
#
memory 32 gb

molecule  {
0 1
  O       -1.4697740     2.5644010     0.0803940
  N        1.9191590    -0.5831280    -0.0556370
  N       -1.9102790     0.3061000     0.0485010
  N       -0.3427170    -1.4672350    -0.0387560
  N        1.5166440     1.6409000    -0.0105650
  N       -2.6294290    -1.9169300     0.1110730
  C        0.6103367    -0.4853764    -0.0331208
  C        0.3337570     0.9396730    -0.0094060
  C       -1.0221650     1.4237120     0.0351730
  C        2.4390620     0.6894910    -0.0699270
  C       -1.5945468    -1.0910589     0.0170442
  C        2.6353690    -1.8453210    -0.0655260
  H        3.5092610     0.8590810    -0.0866130
  H        2.3729340    -2.4304260     0.8177420
  H        2.3794720    -2.4140780    -0.9605130
  H        3.7041390    -1.6305860    -0.0592400
  H       -2.8879820     0.5691470     0.1693100
  H       -2.3258040    -2.8676930    -0.0642460
  H       -3.4596940    -1.6726380    -0.4173570
units angstrom
no_reorient  #important for SAPT in psi4, default
symmetry c1  #important for SAPT in psi4, default
}

set PROPERTIES_ORIGIN ["COM"]
properties('MP2/aug-cc-pvtz', properties = ['dipole'])
--------------------------------------------------------------------------

    Molecular point group: c1
  Charge       = 0
  Multiplicity = 1
  Basis Set: AUG-CC-PVTZ
    Blend: AUG-CC-PVTZ
  Basis Set: (AUG-CC-PVTZ AUX)
    Blend: AUG-CC-PVTZ-JKFIT

    Orbital Energies [Eh]
    ---------------------

    Doubly Occupied:

       1A    -20.513223     2A    -15.638713     3A    -15.619540
       4A    -15.618646     5A    -15.567789     6A    -15.562885
       7A    -11.399116     8A    -11.357839     9A    -11.321521
      10A    -11.302472    11A    -11.291941    12A    -11.245080
      13A     -1.386009    14A     -1.365240    15A     -1.337919
      16A     -1.229478    17A     -1.210117    18A     -1.187459
      19A     -1.023840    20A     -0.989408    21A     -0.901913
      22A     -0.879279    23A     -0.807872    24A     -0.763070
      25A     -0.750819    26A     -0.731524    27A     -0.695147
      28A     -0.675863    29A     -0.655120    30A     -0.638086
      31A     -0.624159    32A     -0.604331    33A     -0.590339
      34A     -0.584945    35A     -0.565398    36A     -0.542799
      37A     -0.484338    38A     -0.461822    39A     -0.431101
      40A     -0.421727    41A     -0.420971    42A     -0.393806
      43A     -0.289163

  @DF-RHF Final Energy:  -578.61545479637982

   => Energetics <=

    Nuclear Repulsion Energy =            692.4049137223880734
    One-Electron Energy =               -2161.8770736075962304
    Two-Electron Energy =                 890.8567050888283347
    Total Energy =                       -578.6154547963798223
  Basis Set: (AUG-CC-PVTZ AUX)
    Blend: AUG-CC-PVTZ-RI
    Molecular point group: c1

    Geometry (in Angstrom), charge = 0, multiplicity = 1:

       Center              X                  Y                   Z               Mass
    ------------   -----------------  -----------------  -----------------  -----------------
         O           -1.472038433157     2.572650559535     0.080782230793    15.994914619570
         N            1.916894566843    -0.574878440465    -0.055248769207    14.003074004430
         N           -1.912543433157     0.314349559535     0.048889230793    14.003074004430
         N           -0.344981433157    -1.458985440465    -0.038367769207    14.003074004430
         N            1.514379566843     1.649149559535    -0.010176769207    14.003074004430
         N           -2.631693433157    -1.908680440465     0.111461230793    14.003074004430
         C            0.608072266843    -0.477126840465    -0.032732569207    12.000000000000
         C            0.331492566843     0.947922559535    -0.009017769207    12.000000000000
         C           -1.024429433157     1.431961559535     0.035561230793    12.000000000000
         C            2.436797566843     0.697740559535    -0.069538769207    12.000000000000
         C           -1.596811233157    -1.082809340465     0.017432430793    12.000000000000
         C            2.633104566843    -1.837071440465    -0.065137769207    12.000000000000
         H            3.506996566843     0.867330559535    -0.086224769207     1.007825032230
         H            2.370669566843    -2.422176440465     0.818130230793     1.007825032230
         H            2.377207566843    -2.405828440465    -0.960124769207     1.007825032230
         H            3.701874566843    -1.622336440465    -0.058851769207     1.007825032230
         H           -2.890246433157     0.577396559535     0.169698230793     1.007825032230
         H           -2.328068433157    -2.859443440465    -0.063857769207     1.007825032230
         H           -3.461958433157    -1.664388440465    -0.416968769207     1.007825032230

  Basis Set: AUG-CC-PVTZ
    Blend: AUG-CC-PVTZ
  Basis Set: (AUG-CC-PVTZ AUX)
    Blend: AUG-CC-PVTZ-JKFIT
	 Reference Energy          =    -578.6154547963798223 [Eh]
	 Singles Energy            =      -0.0000000000000000 [Eh]
	 Same-Spin Energy          =      -0.6173505445692662 [Eh]
	 Opposite-Spin Energy      =      -1.8207967716754720 [Eh]
	 Correlation Energy        =      -2.4381473162447382 [Eh]
	 Total Energy              =    -581.0536021126246169 [Eh]

	 ================> DF-SCS-MP2 Energies <==================
	-----------------------------------------------------------
	 SCS Same-Spin Scale       =       0.3333333333333333 [-]
	 SCS Opposite-Spin Scale   =       1.2000000000000000 [-]
	 SCS Same-Spin Energy      =      -0.2057835148564220 [Eh]
	 SCS Opposite-Spin Energy  =      -2.1849561260105665 [Eh]
	 SCS Correlation Energy    =      -2.3907396408669888 [Eh]
	 SCS Total Energy          =    -581.0061944372467906 [Eh]
	-----------------------------------------------------------

  Dipole Moment: [D]
     X:    -0.0337      Y:    -7.3162      Z:    -0.9361     Total:     7.3759

*** Psi4 exiting successfully. Buy a developer a beer!
