                               Psi4 1.4a3.dev225

  ==> Input File <==

--------------------------------------------------------------------------
#psi4
#
memory 32 gb

molecule  {
0 1
  O        1.6617960     2.5152110     0.0229320
  N       -1.9329240    -0.4005880    -0.0147920
  N        1.9545050     0.2323110     0.0113410
  N        0.2669280    -1.4301930    -0.0208730
  N       -1.3834780     1.7915450    -0.0193170
  N        2.5221760    -2.0364130     0.0734370
  C       -0.5135202    -0.3422197    -0.0022516
  C       -0.2488450     1.0144850    -0.0147620
  C        1.1380320     1.4076430     0.0031510
  C       -2.3683130     0.9036150    -0.0164120
  C        1.5275980    -1.0721200    -0.0057920
  C       -2.7322540    -1.6127190     0.0339130
  H       -3.4247340     1.1445090    -0.0228960
  H       -2.2735910    -2.3629350    -0.6109560
  H       -2.7853950    -1.9995380     1.0543320
  H       -3.7366260    -1.3828770    -0.3245450
  H        2.9468270     0.4301980     0.1174830
  H        2.1372730    -2.9631930    -0.0801050
  H        3.3349710    -1.8642740    -0.5097710
units angstrom
no_reorient  #important for SAPT in psi4, default
symmetry c1  #important for SAPT in psi4, default
}

set PROPERTIES_ORIGIN ["COM"]
properties('MP2/aug-cc-pvtz', properties = ['dipole'])
--------------------------------------------------------------------------

    Molecular point group: c1
  Charge       = 0
  Multiplicity = 1
  Basis Set: AUG-CC-PVTZ
    Blend: AUG-CC-PVTZ
  Basis Set: (AUG-CC-PVTZ AUX)
    Blend: AUG-CC-PVTZ-JKFIT

    Orbital Energies [Eh]
    ---------------------

    Doubly Occupied:

       1A    -20.521677     2A    -15.632048     3A    -15.627229
       4A    -15.612606     5A    -15.573460     6A    -15.556807
       7A    -11.398685     8A    -11.364846     9A    -11.320056
      10A    -11.308345    11A    -11.285547    12A    -11.248148
      13A     -1.392321    14A     -1.355267    15A     -1.332731
      16A     -1.224024    17A     -1.220610    18A     -1.186361
      19A     -1.030838    20A     -0.979464    21A     -0.898894
      22A     -0.886204    23A     -0.808745    24A     -0.765965
      25A     -0.738219    26A     -0.728958    27A     -0.692297
      28A     -0.667197    29A     -0.650786    30A     -0.640632
      31A     -0.626113    32A     -0.610920    33A     -0.593807
      34A     -0.570554    35A     -0.558293    36A     -0.541780
      37A     -0.497584    38A     -0.464434    39A     -0.441654
      40A     -0.432617    41A     -0.429183    42A     -0.389359
      43A     -0.298665

  @DF-RHF Final Energy:  -578.62666813030762

   => Energetics <=

    Nuclear Repulsion Energy =            693.2863851382228404
    One-Electron Energy =               -2163.6182433254666648
    Two-Electron Energy =                 891.7051900569362033
    Total Energy =                       -578.6266681303076211
  Basis Set: (AUG-CC-PVTZ AUX)
    Blend: AUG-CC-PVTZ-RI
    Molecular point group: c1

    Geometry (in Angstrom), charge = 0, multiplicity = 1:

       Center              X                  Y                   Z               Mass
    ------------   -----------------  -----------------  -----------------  -----------------
         O            1.635340226259     2.461087626632     0.020637244348    15.994914619570
         N           -1.959379773741    -0.454711373368    -0.017086755652    14.003074004430
         N            1.928049226259     0.178187626632     0.009046244348    14.003074004430
         N            0.240472226259    -1.484316373368    -0.023167755652    14.003074004430
         N           -1.409933773741     1.737421626632    -0.021611755652    14.003074004430
         N            2.495720226259    -2.090536373368     0.071142244348    14.003074004430
         C           -0.539975973741    -0.396343073368    -0.004546355652    12.000000000000
         C           -0.275300773741     0.960361626632    -0.017056755652    12.000000000000
         C            1.111576226259     1.353519626632     0.000856244348    12.000000000000
         C           -2.394768773741     0.849491626632    -0.018706755652    12.000000000000
         C            1.501142226259    -1.126243373368    -0.008086755652    12.000000000000
         C           -2.758709773741    -1.666842373368     0.031618244348    12.000000000000
         H           -3.451189773741     1.090385626632    -0.025190755652     1.007825032230
         H           -2.300046773741    -2.417058373368    -0.613250755652     1.007825032230
         H           -2.811850773741    -2.053661373368     1.052037244348     1.007825032230
         H           -3.763081773741    -1.437000373368    -0.326839755652     1.007825032230
         H            2.920371226259     0.376074626632     0.115188244348     1.007825032230
         H            2.110817226259    -3.017316373368    -0.082399755652     1.007825032230
         H            3.308515226259    -1.918397373368    -0.512065755652     1.007825032230

  Basis Set: AUG-CC-PVTZ
    Blend: AUG-CC-PVTZ
  Basis Set: (AUG-CC-PVTZ AUX)
    Blend: AUG-CC-PVTZ-JKFIT
	 Reference Energy          =    -578.6266681303076211 [Eh]
	 Singles Energy            =      -0.0000000000000000 [Eh]
	 Same-Spin Energy          =      -0.6163160508224304 [Eh]
	 Opposite-Spin Energy      =      -1.8202675247971869 [Eh]
	 Correlation Energy        =      -2.4365835756196175 [Eh]
	 Total Energy              =    -581.0632517059272004 [Eh]

	 ================> DF-SCS-MP2 Energies <==================
	-----------------------------------------------------------
	 SCS Same-Spin Scale       =       0.3333333333333333 [-]
	 SCS Opposite-Spin Scale   =       1.2000000000000000 [-]
	 SCS Same-Spin Energy      =      -0.2054386836074768 [Eh]
	 SCS Opposite-Spin Energy  =      -2.1843210297566240 [Eh]
	 SCS Correlation Energy    =      -2.3897597133641009 [Eh]
	 SCS Total Energy          =    -581.0164278436717495 [Eh]
	-----------------------------------------------------------

  Dipole Moment: [D]
     X:    -0.2873      Y:    -6.7774      Z:    -0.8527     Total:     6.8368

*** Psi4 exiting successfully. Buy a developer a beer!
