                               Psi4 1.4a3.dev225

  ==> Input File <==

--------------------------------------------------------------------------
#psi4
#
memory 32 gb

molecule  {
0 1
  O        1.6617960     2.5152110     0.0229320
  N       -1.9329240    -0.4005880    -0.0147920
  N        1.9545050     0.2323110     0.0113410
  N        0.2669280    -1.4301930    -0.0208730
  N       -1.3834780     1.7915450    -0.0193170
  N        2.5221760    -2.0364130     0.0734370
  C       -0.5331063    -0.3839885    -0.0033579
  C       -0.2488450     1.0144850    -0.0147620
  C        1.1380320     1.4076430     0.0031510
  C       -2.3683130     0.9036150    -0.0164120
  C        1.5275980    -1.0721200    -0.0057920
  C       -2.7322540    -1.6127190     0.0339130
  H       -3.4247340     1.1445090    -0.0228960
  H       -2.2735910    -2.3629350    -0.6109560
  H       -2.7853950    -1.9995380     1.0543320
  H       -3.7366260    -1.3828770    -0.3245450
  H        2.9468270     0.4301980     0.1174830
  H        2.1372730    -2.9631930    -0.0801050
  H        3.3349710    -1.8642740    -0.5097710
units angstrom
no_reorient  #important for SAPT in psi4, default
symmetry c1  #important for SAPT in psi4, default
}

set PROPERTIES_ORIGIN ["COM"]
properties('MP2/aug-cc-pvtz', properties = ['dipole'])
--------------------------------------------------------------------------

    Molecular point group: c1
  Charge       = 0
  Multiplicity = 1
  Basis Set: AUG-CC-PVTZ
    Blend: AUG-CC-PVTZ
  Basis Set: (AUG-CC-PVTZ AUX)
    Blend: AUG-CC-PVTZ-JKFIT

    Orbital Energies [Eh]
    ---------------------

    Doubly Occupied:

       1A    -20.518028     2A    -15.632350     3A    -15.630260
       4A    -15.613810     5A    -15.573207     6A    -15.559127
       7A    -11.400830     8A    -11.362137     9A    -11.323508
      10A    -11.307020    11A    -11.286458    12A    -11.248946
      13A     -1.391300    14A     -1.356320    15A     -1.334086
      16A     -1.229124    17A     -1.220527    18A     -1.188656
      19A     -1.024456    20A     -0.981098    21A     -0.902043
      22A     -0.888268    23A     -0.809816    24A     -0.761515
      25A     -0.740897    26A     -0.731056    27A     -0.693063
      28A     -0.669030    29A     -0.650141    30A     -0.643056
      31A     -0.627615    32A     -0.608761    33A     -0.592945
      34A     -0.574299    35A     -0.558112    36A     -0.542366
      37A     -0.496206    38A     -0.466953    39A     -0.439833
      40A     -0.433064    41A     -0.425671    42A     -0.390256
      43A     -0.291638

  @DF-RHF Final Energy:  -578.62479371476263

   => Energetics <=

    Nuclear Repulsion Energy =            693.0074299380789853
    One-Electron Energy =               -2163.0287401749537821
    Two-Electron Energy =                 891.3965165221121651
    Total Energy =                       -578.6247937147626317
  Basis Set: (AUG-CC-PVTZ AUX)
    Blend: AUG-CC-PVTZ-RI
    Molecular point group: c1

    Geometry (in Angstrom), charge = 0, multiplicity = 1:

       Center              X                  Y                   Z               Mass
    ------------   -----------------  -----------------  -----------------  -----------------
         O            1.636764108455     2.464124160229     0.020717670817    15.994914619570
         N           -1.957955891545    -0.451674839771    -0.017006329183    14.003074004430
         N            1.929473108455     0.181224160229     0.009126670817    14.003074004430
         N            0.241896108455    -1.481279839771    -0.023087329183    14.003074004430
         N           -1.408509891545     1.740458160229    -0.021531329183    14.003074004430
         N            2.497144108455    -2.087499839771     0.071222670817    14.003074004430
         C           -0.558138191545    -0.435075339771    -0.005572229183    12.000000000000
         C           -0.273876891545     0.963398160229    -0.016976329183    12.000000000000
         C            1.113000108455     1.356556160229     0.000936670817    12.000000000000
         C           -2.393344891545     0.852528160229    -0.018626329183    12.000000000000
         C            1.502566108455    -1.123206839771    -0.008006329183    12.000000000000
         C           -2.757285891545    -1.663805839771     0.031698670817    12.000000000000
         H           -3.449765891545     1.093422160229    -0.025110329183     1.007825032230
         H           -2.298622891545    -2.414021839771    -0.613170329183     1.007825032230
         H           -2.810426891545    -2.050624839771     1.052117670817     1.007825032230
         H           -3.761657891545    -1.433963839771    -0.326759329183     1.007825032230
         H            2.921795108455     0.379111160229     0.115268670817     1.007825032230
         H            2.112241108455    -3.014279839771    -0.082319329183     1.007825032230
         H            3.309939108455    -1.915360839771    -0.511985329183     1.007825032230

  Basis Set: AUG-CC-PVTZ
    Blend: AUG-CC-PVTZ
  Basis Set: (AUG-CC-PVTZ AUX)
    Blend: AUG-CC-PVTZ-JKFIT
	 Reference Energy          =    -578.6247937147626317 [Eh]
	 Singles Energy            =      -0.0000000000000000 [Eh]
	 Same-Spin Energy          =      -0.6171750396411020 [Eh]
	 Opposite-Spin Energy      =      -1.8206524374552076 [Eh]
	 Correlation Energy        =      -2.4378274770963095 [Eh]
	 Total Energy              =    -581.0626211918589661 [Eh]

	 ================> DF-SCS-MP2 Energies <==================
	-----------------------------------------------------------
	 SCS Same-Spin Scale       =       0.3333333333333333 [-]
	 SCS Opposite-Spin Scale   =       1.2000000000000000 [-]
	 SCS Same-Spin Energy      =      -0.2057250132137007 [Eh]
	 SCS Opposite-Spin Energy  =      -2.1847829249462491 [Eh]
	 SCS Correlation Energy    =      -2.3905079381599497 [Eh]
	 SCS Total Energy          =    -581.0153016529226306 [Eh]
	-----------------------------------------------------------

  Dipole Moment: [D]
     X:    -0.3809      Y:    -6.8650      Z:    -0.8530     Total:     6.9283

*** Psi4 exiting successfully. Buy a developer a beer!
