                               Psi4 1.4a3.dev225

  ==> Input File <==

--------------------------------------------------------------------------
#psi4
#
memory 32 gb

molecule  {
0 1
  O        1.6617960     2.5152110     0.0229320
  N       -1.9329240    -0.4005880    -0.0147920
  N        1.9545050     0.2323110     0.0113410
  N        0.2669280    -1.4301930    -0.0208730
  N       -1.3834780     1.7915450    -0.0193170
  N        2.5221760    -2.0364130     0.0734370
  C       -0.5634760    -0.3442740    -0.0026930
  C       -0.2488450     1.0144850    -0.0147620
  C        1.1095063     1.4487064     0.0028649
  C       -2.3683130     0.9036150    -0.0164120
  C        1.5275980    -1.0721200    -0.0057920
  C       -2.7322540    -1.6127190     0.0339130
  H       -3.4247340     1.1445090    -0.0228960
  H       -2.2735910    -2.3629350    -0.6109560
  H       -2.7853950    -1.9995380     1.0543320
  H       -3.7366260    -1.3828770    -0.3245450
  H        2.9468270     0.4301980     0.1174830
  H        2.1372730    -2.9631930    -0.0801050
  H        3.3349710    -1.8642740    -0.5097710
units angstrom
no_reorient  #important for SAPT in psi4, default
symmetry c1  #important for SAPT in psi4, default
}

set PROPERTIES_ORIGIN ["COM"]
properties('MP2/aug-cc-pvtz', properties = ['dipole'])
--------------------------------------------------------------------------

    Molecular point group: c1
  Charge       = 0
  Multiplicity = 1
  Basis Set: AUG-CC-PVTZ
    Blend: AUG-CC-PVTZ
  Basis Set: (AUG-CC-PVTZ AUX)
    Blend: AUG-CC-PVTZ-JKFIT

    Orbital Energies [Eh]
    ---------------------

    Doubly Occupied:

       1A    -20.528716     2A    -15.633307     3A    -15.620764
       4A    -15.607469     5A    -15.567274     6A    -15.559988
       7A    -11.392204     8A    -11.366425     9A    -11.321924
      10A    -11.307035    11A    -11.289220    12A    -11.246201
      13A     -1.399339    14A     -1.365677    15A     -1.332104
      16A     -1.214135    17A     -1.210441    18A     -1.187805
      19A     -1.029835    20A     -0.987498    21A     -0.899853
      22A     -0.873238    23A     -0.803352    24A     -0.767553
      25A     -0.735706    26A     -0.725973    27A     -0.688756
      28A     -0.670166    29A     -0.652104    30A     -0.640154
      31A     -0.621692    32A     -0.619337    33A     -0.593795
      34A     -0.578984    35A     -0.561590    36A     -0.545849
      37A     -0.491458    38A     -0.458807    39A     -0.441731
      40A     -0.432708    41A     -0.429267    42A     -0.393066
      43A     -0.299128

  @DF-RHF Final Energy:  -578.62949581392036

   => Energetics <=

    Nuclear Repulsion Energy =            692.9903372788296565
    One-Electron Energy =               -2163.0564142759303650
    Two-Electron Energy =                 891.4365811831803512
    Total Energy =                       -578.6294958139203573
  Basis Set: (AUG-CC-PVTZ AUX)
    Blend: AUG-CC-PVTZ-RI
    Molecular point group: c1

    Geometry (in Angstrom), charge = 0, multiplicity = 1:

       Center              X                  Y                   Z               Mass
    ------------   -----------------  -----------------  -----------------  -----------------
         O            1.641045722024     2.458251719382     0.020690132585    15.994914619570
         N           -1.953674277976    -0.457547280618    -0.017033867415    14.003074004430
         N            1.933754722024     0.175351719382     0.009099132585    14.003074004430
         N            0.246177722024    -1.487152280618    -0.023114867415    14.003074004430
         N           -1.404228277976     1.734585719382    -0.021558867415    14.003074004430
         N            2.501425722024    -2.093372280618     0.071195132585    14.003074004430
         C           -0.584226277976    -0.401233280618    -0.004934867415    12.000000000000
         C           -0.269595277976     0.957525719382    -0.017003867415    12.000000000000
         C            1.088756022024     1.391747119382     0.000623032585    12.000000000000
         C           -2.389063277976     0.846655719382    -0.018653867415    12.000000000000
         C            1.506847722024    -1.129079280618    -0.008033867415    12.000000000000
         C           -2.753004277976    -1.669678280618     0.031671132585    12.000000000000
         H           -3.445484277976     1.087549719382    -0.025137867415     1.007825032230
         H           -2.294341277976    -2.419894280618    -0.613197867415     1.007825032230
         H           -2.806145277976    -2.056497280618     1.052090132585     1.007825032230
         H           -3.757376277976    -1.439836280618    -0.326786867415     1.007825032230
         H            2.926076722024     0.373238719382     0.115241132585     1.007825032230
         H            2.116522722024    -3.020152280618    -0.082346867415     1.007825032230
         H            3.314220722024    -1.921233280618    -0.512012867415     1.007825032230

  Basis Set: AUG-CC-PVTZ
    Blend: AUG-CC-PVTZ
  Basis Set: (AUG-CC-PVTZ AUX)
    Blend: AUG-CC-PVTZ-JKFIT
	 Reference Energy          =    -578.6294958139203573 [Eh]
	 Singles Energy            =      -0.0000000000000000 [Eh]
	 Same-Spin Energy          =      -0.6157540287294149 [Eh]
	 Opposite-Spin Energy      =      -1.8192670464710154 [Eh]
	 Correlation Energy        =      -2.4350210752004302 [Eh]
	 Total Energy              =    -581.0645168891207959 [Eh]

	 ================> DF-SCS-MP2 Energies <==================
	-----------------------------------------------------------
	 SCS Same-Spin Scale       =       0.3333333333333333 [-]
	 SCS Opposite-Spin Scale   =       1.2000000000000000 [-]
	 SCS Same-Spin Energy      =      -0.2052513429098050 [Eh]
	 SCS Opposite-Spin Energy  =      -2.1831204557652186 [Eh]
	 SCS Correlation Energy    =      -2.3883717986750237 [Eh]
	 SCS Total Energy          =    -581.0178676125954098 [Eh]
	-----------------------------------------------------------

  Dipole Moment: [D]
     X:    -0.5997      Y:    -6.3971      Z:    -0.8473     Total:     6.4807

*** Psi4 exiting successfully. Buy a developer a beer!
