                               Psi4 1.3.2 release

  ==> Input File <==

--------------------------------------------------------------------------
#psi4
#
memory 32 gb

molecule  {
0 1
  O       -1.4697740     2.5644010     0.0803940
  N        1.9191590    -0.5831280    -0.0556370
  N       -1.9102790     0.3061000     0.0485010
  N       -0.3427170    -1.4672350    -0.0387560
  N        1.5166440     1.6409000    -0.0105650
  N       -2.6294290    -1.9169300     0.1110730
  C        0.5576980    -0.4369160    -0.0295360
  C        0.3337570     0.9396730    -0.0094060
  C       -1.0221650     1.4237120     0.0351730
  C        2.4390620     0.6894910    -0.0699270
  C       -1.6193770    -1.0370390     0.0247474
  C        2.6353690    -1.8453210    -0.0655260
  H        3.5092610     0.8590810    -0.0866130
  H        2.3729340    -2.4304260     0.8177420
  H        2.3794720    -2.4140780    -0.9605130
  H        3.7041390    -1.6305860    -0.0592400
  H       -2.8964537     0.5346076     0.1707117
  H       -2.3258040    -2.8676930    -0.0642460
  H       -3.4596940    -1.6726380    -0.4173570
units angstrom
no_reorient  #important for SAPT in psi4, default
symmetry c1  #important for SAPT in psi4, default
}

set PROPERTIES_ORIGIN ["COM"]
properties('MP2/aug-cc-pvtz', properties = ['dipole'])
--------------------------------------------------------------------------

    Molecular point group: c1
  Charge       = 0
  Multiplicity = 1
  Basis Set: AUG-CC-PVTZ
    Blend: AUG-CC-PVTZ
  Basis Set: (AUG-CC-PVTZ AUX)
    Blend: AUG-CC-PVTZ-JKFIT

    Orbital Energies [Eh]
    ---------------------

    Doubly Occupied:

       1A    -20.519599     2A    -15.630526     3A    -15.629645
       4A    -15.619245     5A    -15.566884     6A    -15.556980
       7A    -11.399400     8A    -11.364374     9A    -11.316375
      10A    -11.304743    11A    -11.287041    12A    -11.243197
      13A     -1.389049    14A     -1.357582    15A     -1.337805
      16A     -1.231465    17A     -1.208182    18A     -1.184676
      19A     -1.025814    20A     -0.984234    21A     -0.901064
      22A     -0.882845    23A     -0.805912    24A     -0.765371
      25A     -0.741176    26A     -0.739136    27A     -0.698374
      28A     -0.668418    29A     -0.650305    30A     -0.640409
      31A     -0.624981    32A     -0.608462    33A     -0.591626
      34A     -0.576185    35A     -0.561967    36A     -0.541172
      37A     -0.486720    38A     -0.460493    39A     -0.438344
      40A     -0.427757    41A     -0.425383    42A     -0.389935
      43A     -0.292546

  @DF-RHF Final Energy:  -578.62595790932664

   => Energetics <=

    Nuclear Repulsion Energy =            692.8991959506282683
    One-Electron Energy =               -2162.8995173016546687
    Two-Electron Energy =                 891.3743634416996429
    Total Energy =                       -578.6259579093266439
  Basis Set: (AUG-CC-PVTZ AUX)
    Blend: AUG-CC-PVTZ-RI
    Molecular point group: c1

    Geometry (in Angstrom), charge = 0, multiplicity = 1:

       Center              X                  Y                   Z               Mass
    ------------   -----------------  -----------------  -----------------  -----------------
         O           -1.466354826995     2.565411268985     0.079953050660    15.994914619570
         N            1.922578173005    -0.582117731015    -0.056077949340    14.003074004430
         N           -1.906859826995     0.307110268985     0.048060050660    14.003074004430
         N           -0.339297826995    -1.466224731015    -0.039196949340    14.003074004430
         N            1.520063173005     1.641910268985    -0.011005949340    14.003074004430
         N           -2.626009826995    -1.915919731015     0.110632050660    14.003074004430
         C            0.561117173005    -0.435905731015    -0.029976949340    12.000000000000
         C            0.337176173005     0.940683268985    -0.009846949340    12.000000000000
         C           -1.018745826995     1.424722268985     0.034732050660    12.000000000000
         C            2.442481173005     0.690501268985    -0.070367949340    12.000000000000
         C           -1.615957826995    -1.036028731015     0.024306450660    12.000000000000
         C            2.638788173005    -1.844310731015    -0.065966949340    12.000000000000
         H            3.512680173005     0.860091268985    -0.087053949340     1.007825032230
         H            2.376353173005    -2.429415731015     0.817301050660     1.007825032230
         H            2.382891173005    -2.413067731015    -0.960953949340     1.007825032230
         H            3.707558173005    -1.629575731015    -0.059680949340     1.007825032230
         H           -2.893034526995     0.535617868985     0.170270750660     1.007825032230
         H           -2.322384826995    -2.866682731015    -0.064686949340     1.007825032230
         H           -3.456274826995    -1.671627731015    -0.417797949340     1.007825032230

  Basis Set: AUG-CC-PVTZ
    Blend: AUG-CC-PVTZ
  Basis Set: (AUG-CC-PVTZ AUX)
    Blend: AUG-CC-PVTZ-JKFIT
	 Reference Energy          =    -578.6259579093266439 [Eh]
	 Singles Energy            =      -0.0000000000000000 [Eh]
	 Same-Spin Energy          =      -0.6165852573529993 [Eh]
	 Opposite-Spin Energy      =      -1.8203058254598994 [Eh]
	 Correlation Energy        =      -2.4368910828128989 [Eh]
	 Total Energy              =    -581.0628489921394930 [Eh]

	 ================> DF-SCS-MP2 Energies <==================
	-----------------------------------------------------------
	 SCS Same-Spin Scale       =       0.3333333333333333 [-]
	 SCS Opposite-Spin Scale   =       1.2000000000000000 [-]
	 SCS Same-Spin Energy      =      -0.2055284191176664 [Eh]
	 SCS Opposite-Spin Energy  =      -2.1843669905518790 [Eh]
	 SCS Correlation Energy    =      -2.3898954096695455 [Eh]
	 SCS Total Energy          =    -581.0158533189961645 [Eh]
	-----------------------------------------------------------

  Dipole Moment: [D]
     X:    -0.4261      Y:    -6.9928      Z:    -0.9125     Total:     7.0650

*** Psi4 exiting successfully. Buy a developer a beer!
