                               Psi4 1.3.2 release

  ==> Input File <==

--------------------------------------------------------------------------
#psi4
#
memory 32 gb

molecule  {
0 1
  O       -1.4697740     2.5644010     0.0803940
  N        1.9191590    -0.5831280    -0.0556370
  N       -1.9102790     0.3061000     0.0485010
  N       -0.3427170    -1.4672350    -0.0387560
  N        1.5166440     1.6409000    -0.0105650
  N       -2.6294290    -1.9169300     0.1110730
  C        0.5576980    -0.4369160    -0.0295360
  C        0.3337570     0.9396730    -0.0094060
  C       -1.0221650     1.4237120     0.0351730
  C        2.4390620     0.6894910    -0.0699270
  C       -1.5485237    -1.1229645     0.0166370
  C        2.6353690    -1.8453210    -0.0655260
  H        3.5092610     0.8590810    -0.0866130
  H        2.3729340    -2.4304260     0.8177420
  H        2.3794720    -2.4140780    -0.9605130
  H        3.7041390    -1.6305860    -0.0592400
  H       -2.8879820     0.5691470     0.1693100
  H       -2.3258040    -2.8676930    -0.0642460
  H       -3.4596940    -1.6726380    -0.4173570
units angstrom
no_reorient  #important for SAPT in psi4, default
symmetry c1  #important for SAPT in psi4, default
}

set PROPERTIES_ORIGIN ["COM"]
properties('MP2/aug-cc-pvtz', properties = ['dipole'])
--------------------------------------------------------------------------

    Molecular point group: c1
  Charge       = 0
  Multiplicity = 1
  Basis Set: AUG-CC-PVTZ
    Blend: AUG-CC-PVTZ
  Basis Set: (AUG-CC-PVTZ AUX)
    Blend: AUG-CC-PVTZ-JKFIT

    Orbital Energies [Eh]
    ---------------------

    Doubly Occupied:

       1A    -20.515441     2A    -15.635580     3A    -15.614911
       4A    -15.612367     5A    -15.572551     6A    -15.560397
       7A    -11.394165     8A    -11.357902     9A    -11.320248
      10A    -11.307586    11A    -11.290843    12A    -11.248624
      13A     -1.384449    14A     -1.359554    15A     -1.336835
      16A     -1.234092    17A     -1.205639    18A     -1.186313
      19A     -1.032323    20A     -0.986384    21A     -0.898967
      22A     -0.872895    23A     -0.808426    24A     -0.766570
      25A     -0.749243    26A     -0.720843    27A     -0.688997
      28A     -0.671783    29A     -0.652294    30A     -0.643074
      31A     -0.624691    32A     -0.607641    33A     -0.591263
      34A     -0.580559    35A     -0.564831    36A     -0.542221
      37A     -0.490229    38A     -0.464699    39A     -0.434628
      40A     -0.426381    41A     -0.417765    42A     -0.393052
      43A     -0.303093

  @DF-RHF Final Energy:  -578.61883559893204

   => Energetics <=

    Nuclear Repulsion Energy =            692.9738282895684733
    One-Electron Energy =               -2163.0446353876245666
    Two-Electron Energy =                 891.4519714991240562
    Total Energy =                       -578.6188355989320371
  Basis Set: (AUG-CC-PVTZ AUX)
    Blend: AUG-CC-PVTZ-RI
    Molecular point group: c1

    Geometry (in Angstrom), charge = 0, multiplicity = 1:

       Center              X                  Y                   Z               Mass
    ------------   -----------------  -----------------  -----------------  -----------------
         O           -1.471557488249     2.571447048627     0.080551223698    15.994914619570
         N            1.917375511751    -0.576081951373    -0.055479776302    14.003074004430
         N           -1.912062488249     0.313146048627     0.048658223698    14.003074004430
         N           -0.344500488249    -1.460188951373    -0.038598776302    14.003074004430
         N            1.514860511751     1.647946048627    -0.010407776302    14.003074004430
         N           -2.631212488249    -1.909883951373     0.111230223698    14.003074004430
         C            0.555914511751    -0.429869951373    -0.029378776302    12.000000000000
         C            0.331973511751     0.946719048627    -0.009248776302    12.000000000000
         C           -1.023948488249     1.430758048627     0.035330223698    12.000000000000
         C            2.437278511751     0.696537048627    -0.069769776302    12.000000000000
         C           -1.550307188249    -1.115918451373     0.016794223698    12.000000000000
         C            2.633585511751    -1.838274951373    -0.065368776302    12.000000000000
         H            3.507477511751     0.866127048627    -0.086455776302     1.007825032230
         H            2.371150511751    -2.423379951373     0.817899223698     1.007825032230
         H            2.377688511751    -2.407031951373    -0.960355776302     1.007825032230
         H            3.702355511751    -1.623539951373    -0.059082776302     1.007825032230
         H           -2.889765488249     0.576193048627     0.169467223698     1.007825032230
         H           -2.327587488249    -2.860646951373    -0.064088776302     1.007825032230
         H           -3.461477488249    -1.665591951373    -0.417199776302     1.007825032230

  Basis Set: AUG-CC-PVTZ
    Blend: AUG-CC-PVTZ
  Basis Set: (AUG-CC-PVTZ AUX)
    Blend: AUG-CC-PVTZ-JKFIT
	 Reference Energy          =    -578.6188355989320371 [Eh]
	 Singles Energy            =      -0.0000000000000000 [Eh]
	 Same-Spin Energy          =      -0.6159760603357594 [Eh]
	 Opposite-Spin Energy      =      -1.8200718674334975 [Eh]
	 Correlation Energy        =      -2.4360479277692568 [Eh]
	 Total Energy              =    -581.0548835267012464 [Eh]

	 ================> DF-SCS-MP2 Energies <==================
	-----------------------------------------------------------
	 SCS Same-Spin Scale       =       0.3333333333333333 [-]
	 SCS Opposite-Spin Scale   =       1.2000000000000000 [-]
	 SCS Same-Spin Energy      =      -0.2053253534452531 [Eh]
	 SCS Opposite-Spin Energy  =      -2.1840862409201969 [Eh]
	 SCS Correlation Energy    =      -2.3894115943654501 [Eh]
	 SCS Total Energy          =    -581.0082471932975068 [Eh]
	-----------------------------------------------------------

  Dipole Moment: [D]
     X:     0.0857      Y:    -7.3098      Z:    -0.9493     Total:     7.3716

*** Psi4 exiting successfully. Buy a developer a beer!
