                               Psi4 1.3.2 release

  ==> Input File <==

--------------------------------------------------------------------------
#psi4
#
memory 32 gb

molecule  {
0 1
  O       -1.4697740     2.5644010     0.0803940
  N        1.9191590    -0.5831280    -0.0556370
  N       -1.9102790     0.3061000     0.0485010
  N       -0.3427170    -1.4672350    -0.0387560
  N        1.5166440     1.6409000    -0.0105650
  N       -2.6294290    -1.9169300     0.1110730
  C        0.5576980    -0.4369160    -0.0295360
  C        0.3337570     0.9396730    -0.0094060
  C       -1.0221650     1.4237120     0.0351730
  C        2.4390620     0.6894910    -0.0699270
  C       -1.5730580    -1.0260450     0.0187980
  C        2.6353690    -1.8453210    -0.0655260
  H        3.5092610     0.8590810    -0.0866130
  H        2.3638456    -2.4305708     0.8148944
  H        2.3794720    -2.4140780    -0.9605130
  H        3.7031930    -1.6258484    -0.0674353
  H       -2.8879820     0.5691470     0.1693100
  H       -2.3258040    -2.8676930    -0.0642460
  H       -3.4596940    -1.6726380    -0.4173570
units angstrom
no_reorient  #important for SAPT in psi4, default
symmetry c1  #important for SAPT in psi4, default
}

set PROPERTIES_ORIGIN ["COM"]
properties('MP2/aug-cc-pvtz', properties = ['dipole'])
--------------------------------------------------------------------------

    Molecular point group: c1
  Charge       = 0
  Multiplicity = 1
  Basis Set: AUG-CC-PVTZ
    Blend: AUG-CC-PVTZ
  Basis Set: (AUG-CC-PVTZ AUX)
    Blend: AUG-CC-PVTZ-JKFIT

    Orbital Energies [Eh]
    ---------------------

    Doubly Occupied:

       1A    -20.520875     2A    -15.632753     3A    -15.629307
       4A    -15.610704     5A    -15.570887     6A    -15.559560
       7A    -11.396063     8A    -11.364257     9A    -11.319068
      10A    -11.307248    11A    -11.289415    12A    -11.246933
      13A     -1.390668    14A     -1.360555    15A     -1.334009
      16A     -1.219089    17A     -1.216207    18A     -1.190672
      19A     -1.029408    20A     -0.986468    21A     -0.901644
      22A     -0.882191    23A     -0.807866    24A     -0.766569
      25A     -0.741247    26A     -0.729360    27A     -0.692171
      28A     -0.670985    29A     -0.649489    30A     -0.642488
      31A     -0.626288    32A     -0.610558    33A     -0.593700
      34A     -0.579360    35A     -0.560691    36A     -0.541551
      37A     -0.493730    38A     -0.459270    39A     -0.439918
      40A     -0.429319    41A     -0.428811    42A     -0.392590
      43A     -0.298387

  @DF-RHF Final Energy:  -578.63069472678899

   => Energetics <=

    Nuclear Repulsion Energy =            693.4757050344463778
    One-Electron Energy =               -2163.9881370618918481
    Two-Electron Energy =                 891.8817373006563685
    Total Energy =                       -578.6306947267889882
  Basis Set: (AUG-CC-PVTZ AUX)
    Blend: AUG-CC-PVTZ-RI
    Molecular point group: c1

    Geometry (in Angstrom), charge = 0, multiplicity = 1:

       Center              X                  Y                   Z               Mass
    ------------   -----------------  -----------------  -----------------  -----------------
         O           -1.469712612539     2.564373094032     0.080461545792    15.994914619570
         N            1.919220387461    -0.583155905968    -0.055569454208    14.003074004430
         N           -1.910217612539     0.306072094032     0.048568545792    14.003074004430
         N           -0.342655612539    -1.467262905968    -0.038688454208    14.003074004430
         N            1.516705387461     1.640872094032    -0.010497454208    14.003074004430
         N           -2.629367612539    -1.916957905968     0.111140545792    14.003074004430
         C            0.557759387461    -0.436943905968    -0.029468454208    12.000000000000
         C            0.333818387461     0.939645094032    -0.009338454208    12.000000000000
         C           -1.022103612539     1.423684094032     0.035240545792    12.000000000000
         C            2.439123387461     0.689463094032    -0.069859454208    12.000000000000
         C           -1.572996612539    -1.026072905968     0.018865545792    12.000000000000
         C            2.635430387461    -1.845348905968    -0.065458454208    12.000000000000
         H            3.509322387461     0.859053094032    -0.086545454208     1.007825032230
         H            2.363906987461    -2.430598705968     0.814961945792     1.007825032230
         H            2.379533387461    -2.414105905968    -0.960445454208     1.007825032230
         H            3.703254387461    -1.625876305968    -0.067367754208     1.007825032230
         H           -2.887920612539     0.569119094032     0.169377545792     1.007825032230
         H           -2.325742612539    -2.867720905968    -0.064178454208     1.007825032230
         H           -3.459632612539    -1.672665905968    -0.417289454208     1.007825032230

  Basis Set: AUG-CC-PVTZ
    Blend: AUG-CC-PVTZ
  Basis Set: (AUG-CC-PVTZ AUX)
    Blend: AUG-CC-PVTZ-JKFIT
	 Reference Energy          =    -578.6306947267889882 [Eh]
	 Singles Energy            =      -0.0000000000000000 [Eh]
	 Same-Spin Energy          =      -0.6160863253311083 [Eh]
	 Opposite-Spin Energy      =      -1.8198360495354251 [Eh]
	 Correlation Energy        =      -2.4359223748665335 [Eh]
	 Total Energy              =    -581.0666171016555381 [Eh]

	 ================> DF-SCS-MP2 Energies <==================
	-----------------------------------------------------------
	 SCS Same-Spin Scale       =       0.3333333333333333 [-]
	 SCS Opposite-Spin Scale   =       1.2000000000000000 [-]
	 SCS Same-Spin Energy      =      -0.2053621084437028 [Eh]
	 SCS Opposite-Spin Energy  =      -2.1838032594425099 [Eh]
	 SCS Correlation Energy    =      -2.3891653678862128 [Eh]
	 SCS Total Energy          =    -581.0198600946752094 [Eh]
	-----------------------------------------------------------

  Dipole Moment: [D]
     X:    -0.0165      Y:    -6.7912      Z:    -0.9433     Total:     6.8564

*** Psi4 exiting successfully. Buy a developer a beer!
