                               Psi4 1.3.2 release

  ==> Input File <==

--------------------------------------------------------------------------
#psi4
#
memory 32 gb

molecule  {
0 1
  O       -1.4697740     2.5644010     0.0803940
  N        1.9191590    -0.5831280    -0.0556370
  N       -1.9102790     0.3061000     0.0485010
  N       -0.3427170    -1.4672350    -0.0387560
  N        1.5166440     1.6409000    -0.0105650
  N       -2.6294290    -1.9169300     0.1110730
  C        0.5590248    -0.4250386    -0.0296005
  C        0.3337570     0.9396730    -0.0094060
  C       -1.0221650     1.4237120     0.0351730
  C        2.4279384     0.6939810    -0.0697245
  C       -1.5730580    -1.0260450     0.0187980
  C        2.6353690    -1.8453210    -0.0655260
  H        3.5092610     0.8590810    -0.0866130
  H        2.3729340    -2.4304260     0.8177420
  H        2.3794720    -2.4140780    -0.9605130
  H        3.7041390    -1.6305860    -0.0592400
  H       -2.8879820     0.5691470     0.1693100
  H       -2.3258040    -2.8676930    -0.0642460
  H       -3.4596940    -1.6726380    -0.4173570
units angstrom
no_reorient  #important for SAPT in psi4, default
symmetry c1  #important for SAPT in psi4, default
}

set PROPERTIES_ORIGIN ["COM"]
properties('MP2/aug-cc-pvtz', properties = ['dipole'])
--------------------------------------------------------------------------

    Molecular point group: c1
  Charge       = 0
  Multiplicity = 1
  Basis Set: AUG-CC-PVTZ
    Blend: AUG-CC-PVTZ
  Basis Set: (AUG-CC-PVTZ AUX)
    Blend: AUG-CC-PVTZ-JKFIT

    Orbital Energies [Eh]
    ---------------------

    Doubly Occupied:

       1A    -20.521577     2A    -15.631830     3A    -15.628865
       4A    -15.610187     5A    -15.570612     6A    -15.558549
       7A    -11.395216     8A    -11.364785     9A    -11.318195
      10A    -11.307288    11A    -11.289699    12A    -11.246312
      13A     -1.391007    14A     -1.361807    15A     -1.333946
      16A     -1.218876    17A     -1.215411    18A     -1.191597
      19A     -1.031414    20A     -0.987007    21A     -0.900369
      22A     -0.881288    23A     -0.806637    24A     -0.768253
      25A     -0.741298    26A     -0.728056    27A     -0.691728
      28A     -0.671261    29A     -0.650846    30A     -0.639852
      31A     -0.625903    32A     -0.611224    33A     -0.592855
      34A     -0.578078    35A     -0.562302    36A     -0.541421
      37A     -0.493833    38A     -0.458576    39A     -0.440268
      40A     -0.430264    41A     -0.428803    42A     -0.393311
      43A     -0.301187

  @DF-RHF Final Energy:  -578.63154445796465

   => Energetics <=

    Nuclear Repulsion Energy =            693.7661296344443826
    One-Electron Energy =               -2164.5717610119745586
    Two-Electron Energy =                 892.1740869195654113
    Total Energy =                       -578.6315444579646510
  Basis Set: (AUG-CC-PVTZ AUX)
    Blend: AUG-CC-PVTZ-RI
    Molecular point group: c1

    Geometry (in Angstrom), charge = 0, multiplicity = 1:

       Center              X                  Y                   Z               Mass
    ------------   -----------------  -----------------  -----------------  -----------------
         O           -1.469061665085     2.563211248749     0.080384089599    15.994914619570
         N            1.919871334915    -0.584317751251    -0.055646910401    14.003074004430
         N           -1.909566665085     0.304910248749     0.048491089599    14.003074004430
         N           -0.342004665085    -1.468424751251    -0.038765910401    14.003074004430
         N            1.517356334915     1.639710248749    -0.010574910401    14.003074004430
         N           -2.628716665085    -1.918119751251     0.111063089599    14.003074004430
         C            0.559737134915    -0.426228351251    -0.029610410401    12.000000000000
         C            0.334469334915     0.938483248749    -0.009415910401    12.000000000000
         C           -1.021452665085     1.422522248749     0.035163089599    12.000000000000
         C            2.428650734915     0.692791248749    -0.069734410401    12.000000000000
         C           -1.572345665085    -1.027234751251     0.018788089599    12.000000000000
         C            2.636081334915    -1.846510751251    -0.065535910401    12.000000000000
         H            3.509973334915     0.857891248749    -0.086622910401     1.007825032230
         H            2.373646334915    -2.431615751251     0.817732089599     1.007825032230
         H            2.380184334915    -2.415267751251    -0.960522910401     1.007825032230
         H            3.704851334915    -1.631775751251    -0.059249910401     1.007825032230
         H           -2.887269665085     0.567957248749     0.169300089599     1.007825032230
         H           -2.325091665085    -2.868882751251    -0.064255910401     1.007825032230
         H           -3.458981665085    -1.673827751251    -0.417366910401     1.007825032230

  Basis Set: AUG-CC-PVTZ
    Blend: AUG-CC-PVTZ
  Basis Set: (AUG-CC-PVTZ AUX)
    Blend: AUG-CC-PVTZ-JKFIT
	 Reference Energy          =    -578.6315444579646510 [Eh]
	 Singles Energy            =      -0.0000000000000000 [Eh]
	 Same-Spin Energy          =      -0.6155592169574202 [Eh]
	 Opposite-Spin Energy      =      -1.8191711029278277 [Eh]
	 Correlation Energy        =      -2.4347303198852481 [Eh]
	 Total Energy              =    -581.0662747778499124 [Eh]

	 ================> DF-SCS-MP2 Energies <==================
	-----------------------------------------------------------
	 SCS Same-Spin Scale       =       0.3333333333333333 [-]
	 SCS Opposite-Spin Scale   =       1.2000000000000000 [-]
	 SCS Same-Spin Energy      =      -0.2051864056524734 [Eh]
	 SCS Opposite-Spin Energy  =      -2.1830053235133930 [Eh]
	 SCS Correlation Energy    =      -2.3881917291658663 [Eh]
	 SCS Total Energy          =    -581.0197361871305475 [Eh]
	-----------------------------------------------------------

  Dipole Moment: [D]
     X:    -0.0095      Y:    -6.7530      Z:    -0.9370     Total:     6.8177

*** Psi4 exiting successfully. Buy a developer a beer!
