                               Psi4 1.3.2 release

  ==> Input File <==

--------------------------------------------------------------------------
#psi4
#
memory 32 gb

molecule  {
0 1
  O       -1.4797082     2.5604390     0.0807360
  N        1.9191590    -0.5831280    -0.0556370
  N       -1.9199838     0.3138885     0.0490986
  N       -0.3427170    -1.4672350    -0.0387560
  N        1.5166440     1.6409000    -0.0105650
  N       -2.6294290    -1.9169300     0.1110730
  C        0.5576980    -0.4369160    -0.0295360
  C        0.3337570     0.9396730    -0.0094060
  C       -1.0221650     1.4237120     0.0351730
  C        2.4390620     0.6894910    -0.0699270
  C       -1.5730580    -1.0260450     0.0187980
  C        2.6353690    -1.8453210    -0.0655260
  H        3.5092610     0.8590810    -0.0866130
  H        2.3729340    -2.4304260     0.8177420
  H        2.3794720    -2.4140780    -0.9605130
  H        3.7041390    -1.6305860    -0.0592400
  H       -2.8879820     0.5691470     0.1693100
  H       -2.3258040    -2.8676930    -0.0642460
  H       -3.4596940    -1.6726380    -0.4173570
units angstrom
no_reorient  #important for SAPT in psi4, default
symmetry c1  #important for SAPT in psi4, default
}

set PROPERTIES_ORIGIN ["COM"]
properties('MP2/aug-cc-pvtz', properties = ['dipole'])
--------------------------------------------------------------------------

    Molecular point group: c1
  Charge       = 0
  Multiplicity = 1
  Basis Set: AUG-CC-PVTZ
    Blend: AUG-CC-PVTZ
  Basis Set: (AUG-CC-PVTZ AUX)
    Blend: AUG-CC-PVTZ-JKFIT

    Orbital Energies [Eh]
    ---------------------

    Doubly Occupied:

       1A    -20.519929     2A    -15.633327     3A    -15.627705
       4A    -15.610783     5A    -15.571769     6A    -15.560068
       7A    -11.396936     8A    -11.363781     9A    -11.319678
      10A    -11.307527    11A    -11.289694    12A    -11.247599
      13A     -1.390080    14A     -1.360818    15A     -1.332716
      16A     -1.218250    17A     -1.216548    18A     -1.191122
      19A     -1.029353    20A     -0.986790    21A     -0.901661
      22A     -0.881250    23A     -0.807509    24A     -0.767174
      25A     -0.743351    26A     -0.728734    27A     -0.692034
      28A     -0.671207    29A     -0.649297    30A     -0.643042
      31A     -0.625962    32A     -0.609913    33A     -0.594525
      34A     -0.578809    35A     -0.561066    36A     -0.541700
      37A     -0.494308    38A     -0.459127    39A     -0.439481
      40A     -0.429366    41A     -0.428411    42A     -0.393182
      43A     -0.298751

  @DF-RHF Final Energy:  -578.63083660029679

   => Energetics <=

    Nuclear Repulsion Energy =            693.1919150070848445
    One-Electron Energy =               -2163.4168375604544963
    Two-Electron Energy =                 891.5940859530728630
    Total Energy =                       -578.6308366002967887
  Basis Set: (AUG-CC-PVTZ AUX)
    Blend: AUG-CC-PVTZ-RI
    Molecular point group: c1

    Geometry (in Angstrom), charge = 0, multiplicity = 1:

       Center              X                  Y                   Z               Mass
    ------------   -----------------  -----------------  -----------------  -----------------
         O           -1.477922154431     2.560162329385     0.080652285380    15.994914619570
         N            1.920945045569    -0.583404670615    -0.055720714620    14.003074004430
         N           -1.918197754431     0.313611829385     0.049014885380    14.003074004430
         N           -0.340930954431    -1.467511670615    -0.038839714620    14.003074004430
         N            1.518430045569     1.640623329385    -0.010648714620    14.003074004430
         N           -2.627642954431    -1.917206670615     0.110989285380    14.003074004430
         C            0.559484045569    -0.437192670615    -0.029619714620    12.000000000000
         C            0.335543045569     0.939396329385    -0.009489714620    12.000000000000
         C           -1.020378954431     1.423435329385     0.035089285380    12.000000000000
         C            2.440848045569     0.689214329385    -0.070010714620    12.000000000000
         C           -1.571271954431    -1.026321670615     0.018714285380    12.000000000000
         C            2.637155045569    -1.845597670615    -0.065609714620    12.000000000000
         H            3.511047045569     0.858804329385    -0.086696714620     1.007825032230
         H            2.374720045569    -2.430702670615     0.817658285380     1.007825032230
         H            2.381258045569    -2.414354670615    -0.960596714620     1.007825032230
         H            3.705925045569    -1.630862670615    -0.059323714620     1.007825032230
         H           -2.886195954431     0.568870329385     0.169226285380     1.007825032230
         H           -2.324017954431    -2.867969670615    -0.064329714620     1.007825032230
         H           -3.457907954431    -1.672914670615    -0.417440714620     1.007825032230

  Basis Set: AUG-CC-PVTZ
    Blend: AUG-CC-PVTZ
  Basis Set: (AUG-CC-PVTZ AUX)
    Blend: AUG-CC-PVTZ-JKFIT
	 Reference Energy          =    -578.6308366002967887 [Eh]
	 Singles Energy            =      -0.0000000000000000 [Eh]
	 Same-Spin Energy          =      -0.6158893184591425 [Eh]
	 Opposite-Spin Energy      =      -1.8196370723601378 [Eh]
	 Correlation Energy        =      -2.4355263908192804 [Eh]
	 Total Energy              =    -581.0663629911160797 [Eh]

	 ================> DF-SCS-MP2 Energies <==================
	-----------------------------------------------------------
	 SCS Same-Spin Scale       =       0.3333333333333333 [-]
	 SCS Opposite-Spin Scale   =       1.2000000000000000 [-]
	 SCS Same-Spin Energy      =      -0.2052964394863808 [Eh]
	 SCS Opposite-Spin Energy  =      -2.1835644868321653 [Eh]
	 SCS Correlation Energy    =      -2.3888609263185461 [Eh]
	 SCS Total Energy          =    -581.0196975266153459 [Eh]
	-----------------------------------------------------------

  Dipole Moment: [D]
     X:     0.0348      Y:    -6.8181      Z:    -0.9380     Total:     6.8824

*** Psi4 exiting successfully. Buy a developer a beer!
