                               Psi4 1.3.2 release

  ==> Input File <==

--------------------------------------------------------------------------
#psi4
#
memory 32 gb

molecule  {
0 1
  O       -1.4697740     2.5644010     0.0803940
  N        1.9191590    -0.5831280    -0.0556370
  N       -1.9102790     0.3061000     0.0485010
  N       -0.3427170    -1.4672350    -0.0387560
  N        1.5166440     1.6409000    -0.0105650
  N       -2.6294290    -1.9169300     0.1110730
  C        0.5576980    -0.4369160    -0.0295360
  C        0.3337570     0.9396730    -0.0094060
  C       -1.0951724     1.6097645     0.0425488
  C        2.4390620     0.6894910    -0.0699270
  C       -1.5730580    -1.0260450     0.0187980
  C        2.6353690    -1.8453210    -0.0655260
  H        3.5092610     0.8590810    -0.0866130
  H        2.3729340    -2.4304260     0.8177420
  H        2.3794720    -2.4140780    -0.9605130
  H        3.7041390    -1.6305860    -0.0592400
  H       -2.8879820     0.5691470     0.1693100
  H       -2.3258040    -2.8676930    -0.0642460
  H       -3.4596940    -1.6726380    -0.4173570
units angstrom
no_reorient  #important for SAPT in psi4, default
symmetry c1  #important for SAPT in psi4, default
}

set PROPERTIES_ORIGIN ["COM"]
properties('MP2/aug-cc-pvtz', properties = ['dipole'])
--------------------------------------------------------------------------

    Molecular point group: c1
  Charge       = 0
  Multiplicity = 1
  Basis Set: AUG-CC-PVTZ
    Blend: AUG-CC-PVTZ
  Basis Set: (AUG-CC-PVTZ AUX)
    Blend: AUG-CC-PVTZ-JKFIT

    Orbital Energies [Eh]
    ---------------------

    Doubly Occupied:

       1A    -20.573377     2A    -15.621382     3A    -15.598546
       4A    -15.596772     5A    -15.550753     6A    -15.548409
       7A    -11.379780     8A    -11.367081     9A    -11.302155
      10A    -11.292828    11A    -11.280426    12A    -11.241804
      13A     -1.554181    14A     -1.355618    15A     -1.319541
      16A     -1.201121    17A     -1.195361    18A     -1.173323
      19A     -1.004492    20A     -0.969691    21A     -0.868383
      22A     -0.863361    23A     -0.794322    24A     -0.762047
      25A     -0.734361    26A     -0.712238    27A     -0.704283
      28A     -0.679592    29A     -0.673426    30A     -0.651581
      31A     -0.649301    32A     -0.623561    33A     -0.593450
      34A     -0.588630    35A     -0.568658    36A     -0.548070
      37A     -0.479361    38A     -0.449568    39A     -0.439071
      40A     -0.426068    41A     -0.418647    42A     -0.380634
      43A     -0.283168

  @DF-RHF Final Energy:  -578.55172786054572

   => Energetics <=

    Nuclear Repulsion Energy =            692.5607941288727716
    One-Electron Energy =               -2162.1882025663471723
    Two-Electron Energy =                 891.0756805769287894
    Total Energy =                       -578.5517278605457250
  Basis Set: (AUG-CC-PVTZ AUX)
    Blend: AUG-CC-PVTZ-RI
    Molecular point group: c1

    Geometry (in Angstrom), charge = 0, multiplicity = 1:

       Center              X                  Y                   Z               Mass
    ------------   -----------------  -----------------  -----------------  -----------------
         O           -1.464466342485     2.550875378265     0.079857911618    15.994914619570
         N            1.924466657515    -0.596653621735    -0.056173088382    14.003074004430
         N           -1.904971342485     0.292574378265     0.047964911618    14.003074004430
         N           -0.337409342485    -1.480760621735    -0.039292088382    14.003074004430
         N            1.521951657515     1.627374378265    -0.011101088382    14.003074004430
         N           -2.624121342485    -1.930455621735     0.110536911618    14.003074004430
         C            0.563005657515    -0.450441621735    -0.030072088382    12.000000000000
         C            0.339064657515     0.926147378265    -0.009942088382    12.000000000000
         C           -1.089864742485     1.596238878265     0.042012711618    12.000000000000
         C            2.444369657515     0.675965378265    -0.070463088382    12.000000000000
         C           -1.567750342485    -1.039570621735     0.018261911618    12.000000000000
         C            2.640676657515    -1.858846621735    -0.066062088382    12.000000000000
         H            3.514568657515     0.845555378265    -0.087149088382     1.007825032230
         H            2.378241657515    -2.443951621735     0.817205911618     1.007825032230
         H            2.384779657515    -2.427603621735    -0.961049088382     1.007825032230
         H            3.709446657515    -1.644111621735    -0.059776088382     1.007825032230
         H           -2.882674342485     0.555621378265     0.168773911618     1.007825032230
         H           -2.320496342485    -2.881218621735    -0.064782088382     1.007825032230
         H           -3.454386342485    -1.686163621735    -0.417893088382     1.007825032230

  Basis Set: AUG-CC-PVTZ
    Blend: AUG-CC-PVTZ
  Basis Set: (AUG-CC-PVTZ AUX)
    Blend: AUG-CC-PVTZ-JKFIT
	 Reference Energy          =    -578.5517278605457250 [Eh]
	 Singles Energy            =      -0.0000000000000000 [Eh]
	 Same-Spin Energy          =      -0.6123874771876452 [Eh]
	 Opposite-Spin Energy      =      -1.8131188191419341 [Eh]
	 Correlation Energy        =      -2.4255062963295790 [Eh]
	 Total Energy              =    -580.9772341568752836 [Eh]

	 ================> DF-SCS-MP2 Energies <==================
	-----------------------------------------------------------
	 SCS Same-Spin Scale       =       0.3333333333333333 [-]
	 SCS Opposite-Spin Scale   =       1.2000000000000000 [-]
	 SCS Same-Spin Energy      =      -0.2041291590625484 [Eh]
	 SCS Opposite-Spin Energy  =      -2.1757425829703210 [Eh]
	 SCS Correlation Energy    =      -2.3798717420328694 [Eh]
	 SCS Total Energy          =    -580.9315996025785580 [Eh]
	-----------------------------------------------------------

  Dipole Moment: [D]
     X:    -0.8088      Y:    -4.5381      Z:    -0.8693     Total:     4.6909

*** Psi4 exiting successfully. Buy a developer a beer!
