                               Psi4 1.3.2 release

  ==> Input File <==

--------------------------------------------------------------------------
#psi4
#
memory 32 gb

molecule  {
0 1
  O       -1.4697740     2.5644010     0.0803940
  N        1.9191590    -0.5831280    -0.0556370
  N       -1.9102790     0.3061000     0.0485010
  N       -0.3427170    -1.4672350    -0.0387560
  N        1.5166440     1.6409000    -0.0105650
  N       -2.6294290    -1.9169300     0.1110730
  C        0.5576980    -0.4369160    -0.0295360
  C        0.2477361     0.8886790    -0.0093217
  C       -1.0221650     1.4237120     0.0351730
  C        2.4390620     0.6894910    -0.0699270
  C       -1.5730580    -1.0260450     0.0187980
  C        2.6353690    -1.8453210    -0.0655260
  H        3.5092610     0.8590810    -0.0866130
  H        2.3729340    -2.4304260     0.8177420
  H        2.3794720    -2.4140780    -0.9605130
  H        3.7041390    -1.6305860    -0.0592400
  H       -2.8879820     0.5691470     0.1693100
  H       -2.3258040    -2.8676930    -0.0642460
  H       -3.4596940    -1.6726380    -0.4173570
units angstrom
no_reorient  #important for SAPT in psi4, default
symmetry c1  #important for SAPT in psi4, default
}

set PROPERTIES_ORIGIN ["COM"]
properties('MP2/aug-cc-pvtz', properties = ['dipole'])
--------------------------------------------------------------------------

    Molecular point group: c1
  Charge       = 0
  Multiplicity = 1
  Basis Set: AUG-CC-PVTZ
    Blend: AUG-CC-PVTZ
  Basis Set: (AUG-CC-PVTZ AUX)
    Blend: AUG-CC-PVTZ-JKFIT

    Orbital Energies [Eh]
    ---------------------

    Doubly Occupied:

       1A    -20.518494     2A    -15.631649     3A    -15.627151
       4A    -15.611104     5A    -15.570822     6A    -15.562202
       7A    -11.397165     8A    -11.359463     9A    -11.325892
      10A    -11.310897    11A    -11.290594    12A    -11.242581
      13A     -1.391362    14A     -1.358039    15A     -1.332298
      16A     -1.221410    17A     -1.213395    18A     -1.176661
      19A     -1.041553    20A     -0.987451    21A     -0.908437
      22A     -0.881895    23A     -0.808991    24A     -0.773807
      25A     -0.736715    26A     -0.726481    27A     -0.692218
      28A     -0.672686    29A     -0.656910    30A     -0.641591
      31A     -0.627979    32A     -0.614972    33A     -0.582483
      34A     -0.578420    35A     -0.558243    36A     -0.542467
      37A     -0.490488    38A     -0.458992    39A     -0.436539
      40A     -0.430016    41A     -0.427212    42A     -0.383896
      43A     -0.312349

  @DF-RHF Final Energy:  -578.61936651736255

   => Energetics <=

    Nuclear Repulsion Energy =            694.0003791903828869
    One-Electron Energy =               -2165.0115518113007056
    Two-Electron Energy =                 892.3918061035553819
    Total Energy =                       -578.6193665173625504
  Basis Set: (AUG-CC-PVTZ AUX)
    Blend: AUG-CC-PVTZ-RI
    Molecular point group: c1

    Geometry (in Angstrom), charge = 0, multiplicity = 1:

       Center              X                  Y                   Z               Mass
    ------------   -----------------  -----------------  -----------------  -----------------
         O           -1.463520279156     2.568108328728     0.080387993515    15.994914619570
         N            1.925412720844    -0.579420671272    -0.055643006485    14.003074004430
         N           -1.904025279156     0.309807328728     0.048494993515    14.003074004430
         N           -0.336463279156    -1.463527671272    -0.038762006485    14.003074004430
         N            1.522897720844     1.644607328728    -0.010571006485    14.003074004430
         N           -2.623175279156    -1.913222671272     0.111066993515    14.003074004430
         C            0.563951720844    -0.433208671272    -0.029542006485    12.000000000000
         C            0.253989820844     0.892386328728    -0.009327706485    12.000000000000
         C           -1.015911279156     1.427419328728     0.035166993515    12.000000000000
         C            2.445315720844     0.693198328728    -0.069933006485    12.000000000000
         C           -1.566804279156    -1.022337671272     0.018791993515    12.000000000000
         C            2.641622720844    -1.841613671272    -0.065532006485    12.000000000000
         H            3.515514720844     0.862788328728    -0.086619006485     1.007825032230
         H            2.379187720844    -2.426718671272     0.817735993515     1.007825032230
         H            2.385725720844    -2.410370671272    -0.960519006485     1.007825032230
         H            3.710392720844    -1.626878671272    -0.059246006485     1.007825032230
         H           -2.881728279156     0.572854328728     0.169303993515     1.007825032230
         H           -2.319550279156    -2.863985671272    -0.064252006485     1.007825032230
         H           -3.453440279156    -1.668930671272    -0.417363006485     1.007825032230

  Basis Set: AUG-CC-PVTZ
    Blend: AUG-CC-PVTZ
  Basis Set: (AUG-CC-PVTZ AUX)
    Blend: AUG-CC-PVTZ-JKFIT
	 Reference Energy          =    -578.6193665173625504 [Eh]
	 Singles Energy            =      -0.0000000000000000 [Eh]
	 Same-Spin Energy          =      -0.6153758932445198 [Eh]
	 Opposite-Spin Energy      =      -1.8202397033933349 [Eh]
	 Correlation Energy        =      -2.4356155966378545 [Eh]
	 Total Energy              =    -581.0549821140003814 [Eh]

	 ================> DF-SCS-MP2 Energies <==================
	-----------------------------------------------------------
	 SCS Same-Spin Scale       =       0.3333333333333333 [-]
	 SCS Opposite-Spin Scale   =       1.2000000000000000 [-]
	 SCS Same-Spin Energy      =      -0.2051252977481733 [Eh]
	 SCS Opposite-Spin Energy  =      -2.1842876440720018 [Eh]
	 SCS Correlation Energy    =      -2.3894129418201753 [Eh]
	 SCS Total Energy          =    -581.0087794591827333 [Eh]
	-----------------------------------------------------------

  Dipole Moment: [D]
     X:     0.0437      Y:    -6.9103      Z:    -0.9412     Total:     6.9742

*** Psi4 exiting successfully. Buy a developer a beer!
