                               Psi4 1.3.2 release

  ==> Input File <==

--------------------------------------------------------------------------
#psi4
#
memory 32 gb

molecule  {
0 1
  O       -1.4697740     2.5644010     0.0803940
  N        1.9863688    -0.6085932    -0.0594975
  N       -1.9102790     0.3061000     0.0485010
  N       -0.3427170    -1.4672350    -0.0387560
  N        1.5676602     1.6879660    -0.0127918
  N       -2.6294290    -1.9169300     0.1110730
  C        0.5576980    -0.4369160    -0.0295360
  C        0.3337570     0.9396730    -0.0094060
  C       -1.0221650     1.4237120     0.0351730
  C        2.4390620     0.6894910    -0.0699270
  C       -1.5730580    -1.0260450     0.0187980
  C        2.6353690    -1.8453210    -0.0655260
  H        3.5092610     0.8590810    -0.0866130
  H        2.3729340    -2.4304260     0.8177420
  H        2.3794720    -2.4140780    -0.9605130
  H        3.7041390    -1.6305860    -0.0592400
  H       -2.8879820     0.5691470     0.1693100
  H       -2.3258040    -2.8676930    -0.0642460
  H       -3.4596940    -1.6726380    -0.4173570
units angstrom
no_reorient  #important for SAPT in psi4, default
symmetry c1  #important for SAPT in psi4, default
}

set PROPERTIES_ORIGIN ["COM"]
properties('MP2/aug-cc-pvtz', properties = ['dipole'])
--------------------------------------------------------------------------

    Molecular point group: c1
  Charge       = 0
  Multiplicity = 1
  Basis Set: AUG-CC-PVTZ
    Blend: AUG-CC-PVTZ
  Basis Set: (AUG-CC-PVTZ AUX)
    Blend: AUG-CC-PVTZ-JKFIT

    Orbital Energies [Eh]
    ---------------------

    Doubly Occupied:

       1A    -20.522474     2A    -15.632335     3A    -15.631810
       4A    -15.612870     5A    -15.575080     6A    -15.566712
       7A    -11.399208     8A    -11.367040     9A    -11.330071
      10A    -11.314742    11A    -11.284118    12A    -11.256227
      13A     -1.390758    14A     -1.353172    15A     -1.332039
      16A     -1.221695    17A     -1.215839    18A     -1.192440
      19A     -1.029985    20A     -0.986176    21A     -0.899617
      22A     -0.884191    23A     -0.806302    24A     -0.766414
      25A     -0.737913    26A     -0.727656    27A     -0.693784
      28A     -0.670525    29A     -0.661717    30A     -0.642656
      31A     -0.629861    32A     -0.615162    33A     -0.579827
      34A     -0.562925    35A     -0.553904    36A     -0.540177
      37A     -0.498841    38A     -0.461543    39A     -0.441619
      40A     -0.434794    41A     -0.431757    42A     -0.387562
      43A     -0.304455

  @DF-RHF Final Energy:  -578.61608566302800

   => Energetics <=

    Nuclear Repulsion Energy =            690.2047473070483647
    One-Electron Energy =               -2157.3456799244063404
    Two-Electron Energy =                 888.5248469543299734
    Total Energy =                       -578.6160856630280023
  Basis Set: (AUG-CC-PVTZ AUX)
    Blend: AUG-CC-PVTZ-RI
    Molecular point group: c1

    Geometry (in Angstrom), charge = 0, multiplicity = 1:

       Center              X                  Y                   Z               Mass
    ------------   -----------------  -----------------  -----------------  -----------------
         O           -1.479803423690     2.562568660905     0.080910529977    15.994914619570
         N            1.976339376310    -0.610425539095    -0.058980970023    14.003074004430
         N           -1.920308423690     0.304267660905     0.049017529977    14.003074004430
         N           -0.352746423690    -1.469067339095    -0.038239470023    14.003074004430
         N            1.557630776310     1.686133660905    -0.012275270023    14.003074004430
         N           -2.639458423690    -1.918762339095     0.111589529977    14.003074004430
         C            0.547668576310    -0.438748339095    -0.029019470023    12.000000000000
         C            0.323727576310     0.937840660905    -0.008889470023    12.000000000000
         C           -1.032194423690     1.421879660905     0.035689529977    12.000000000000
         C            2.429032576310     0.687658660905    -0.069410470023    12.000000000000
         C           -1.583087423690    -1.027877339095     0.019314529977    12.000000000000
         C            2.625339576310    -1.847153339095    -0.065009470023    12.000000000000
         H            3.499231576310     0.857248660905    -0.086096470023     1.007825032230
         H            2.362904576310    -2.432258339095     0.818258529977     1.007825032230
         H            2.369442576310    -2.415910339095    -0.959996470023     1.007825032230
         H            3.694109576310    -1.632418339095    -0.058723470023     1.007825032230
         H           -2.898011423690     0.567314660905     0.169826529977     1.007825032230
         H           -2.335833423690    -2.869525339095    -0.063729470023     1.007825032230
         H           -3.469723423690    -1.674470339095    -0.416840470023     1.007825032230

  Basis Set: AUG-CC-PVTZ
    Blend: AUG-CC-PVTZ
  Basis Set: (AUG-CC-PVTZ AUX)
    Blend: AUG-CC-PVTZ-JKFIT
	 Reference Energy          =    -578.6160856630280023 [Eh]
	 Singles Energy            =      -0.0000000000000000 [Eh]
	 Same-Spin Energy          =      -0.6161772093418724 [Eh]
	 Opposite-Spin Energy      =      -1.8222958127362383 [Eh]
	 Correlation Energy        =      -2.4384730220781106 [Eh]
	 Total Energy              =    -581.0545586851061444 [Eh]

	 ================> DF-SCS-MP2 Energies <==================
	-----------------------------------------------------------
	 SCS Same-Spin Scale       =       0.3333333333333333 [-]
	 SCS Opposite-Spin Scale   =       1.2000000000000000 [-]
	 SCS Same-Spin Energy      =      -0.2053924031139575 [Eh]
	 SCS Opposite-Spin Energy  =      -2.1867549752834861 [Eh]
	 SCS Correlation Energy    =      -2.3921473783974436 [Eh]
	 SCS Total Energy          =    -581.0082330414254557 [Eh]
	-----------------------------------------------------------

  Dipole Moment: [D]
     X:    -0.3525      Y:    -6.7702      Z:    -0.9259     Total:     6.8423

*** Psi4 exiting successfully. Buy a developer a beer!
