                               Psi4 1.3.2 release

  ==> Input File <==

--------------------------------------------------------------------------
#psi4
#
memory 32 gb

molecule  {
0 1
  O       -1.4697740     2.5644010     0.0803940
  N        1.9191590    -0.5831280    -0.0556370
  N       -1.9102790     0.3061000     0.0485010
  N       -0.3427170    -1.4672350    -0.0387560
  N        1.5166440     1.6409000    -0.0105650
  N       -2.6294290    -1.9169300     0.1110730
  C        0.5576980    -0.4369160    -0.0295360
  C        0.3337570     0.9396730    -0.0094060
  C       -1.0221650     1.4237120     0.0351730
  C        2.4390620     0.6894910    -0.0699270
  C       -1.5043674    -1.0065156     0.0099439
  C        2.6353690    -1.8453210    -0.0655260
  H        3.5092610     0.8590810    -0.0866130
  H        2.3729340    -2.4304260     0.8177420
  H        2.3794720    -2.4140780    -0.9605130
  H        3.7041390    -1.6305860    -0.0592400
  H       -2.8730446     0.6203421     0.1669321
  H       -2.3258040    -2.8676930    -0.0642460
  H       -3.4596940    -1.6726380    -0.4173570
units angstrom
no_reorient  #important for SAPT in psi4, default
symmetry c1  #important for SAPT in psi4, default
}

set PROPERTIES_ORIGIN ["COM"]
properties('MP2/aug-cc-pvtz', properties = ['dipole'])
--------------------------------------------------------------------------

    Molecular point group: c1
  Charge       = 0
  Multiplicity = 1
  Basis Set: AUG-CC-PVTZ
    Blend: AUG-CC-PVTZ
  Basis Set: (AUG-CC-PVTZ AUX)
    Blend: AUG-CC-PVTZ-JKFIT

    Orbital Energies [Eh]
    ---------------------

    Doubly Occupied:

       1A    -20.522882     2A    -15.637481     3A    -15.627922
       4A    -15.597976     5A    -15.576187     6A    -15.563363
       7A    -11.391393     8A    -11.364097     9A    -11.323405
      10A    -11.310866    11A    -11.292779    12A    -11.252277
      13A     -1.395255    14A     -1.365309    15A     -1.335964
      16A     -1.229005    17A     -1.197831    18A     -1.197019
      19A     -1.034483    20A     -0.989713    21A     -0.903986
      22A     -0.880660    23A     -0.814162    24A     -0.771397
      25A     -0.741640    26A     -0.715332    27A     -0.683406
      28A     -0.674831    29A     -0.653853    30A     -0.636640
      31A     -0.627286    32A     -0.612993    33A     -0.596505
      34A     -0.581723    35A     -0.561395    36A     -0.543634
      37A     -0.503289    38A     -0.455378    39A     -0.442743
      40A     -0.432478    41A     -0.430266    42A     -0.396801
      43A     -0.306820

  @DF-RHF Final Energy:  -578.62324248072275

   => Energetics <=

    Nuclear Repulsion Energy =            694.3947183584293725
    One-Electron Energy =               -2165.6910749077028413
    Two-Electron Energy =                 892.6731140685507171
    Total Energy =                       -578.6232424807227517
  Basis Set: (AUG-CC-PVTZ AUX)
    Blend: AUG-CC-PVTZ-RI
    Molecular point group: c1

    Geometry (in Angstrom), charge = 0, multiplicity = 1:

       Center              X                  Y                   Z               Mass
    ------------   -----------------  -----------------  -----------------  -----------------
         O           -1.474858791905     2.562668797770     0.081052321309    15.994914619570
         N            1.914074208095    -0.584860202230    -0.054978678691    14.003074004430
         N           -1.915363791905     0.304367797770     0.049159321309    14.003074004430
         N           -0.347801791905    -1.468967202230    -0.038097678691    14.003074004430
         N            1.511559208095     1.639167797770    -0.009906678691    14.003074004430
         N           -2.634513791905    -1.918662202230     0.111731321309    14.003074004430
         C            0.552613208095    -0.438648202230    -0.028877678691    12.000000000000
         C            0.328672208095     0.937940797770    -0.008747678691    12.000000000000
         C           -1.027249791905     1.421979797770     0.035831321309    12.000000000000
         C            2.433977208095     0.687758797770    -0.069268678691    12.000000000000
         C           -1.509452191905    -1.008247802230     0.010602221309    12.000000000000
         C            2.630284208095    -1.847053202230    -0.064867678691    12.000000000000
         H            3.504176208095     0.857348797770    -0.085954678691     1.007825032230
         H            2.367849208095    -2.432158202230     0.818400321309     1.007825032230
         H            2.374387208095    -2.415810202230    -0.959854678691     1.007825032230
         H            3.699054208095    -1.632318202230    -0.058581678691     1.007825032230
         H           -2.878129391905     0.618609897770     0.167590421309     1.007825032230
         H           -2.330888791905    -2.869425202230    -0.063587678691     1.007825032230
         H           -3.464778791905    -1.674370202230    -0.416698678691     1.007825032230

  Basis Set: AUG-CC-PVTZ
    Blend: AUG-CC-PVTZ
  Basis Set: (AUG-CC-PVTZ AUX)
    Blend: AUG-CC-PVTZ-JKFIT
	 Reference Energy          =    -578.6232424807227517 [Eh]
	 Singles Energy            =      -0.0000000000000000 [Eh]
	 Same-Spin Energy          =      -0.6155930426360614 [Eh]
	 Opposite-Spin Energy      =      -1.8197306040794317 [Eh]
	 Correlation Energy        =      -2.4353236467154931 [Eh]
	 Total Energy              =    -581.0585661274382119 [Eh]

	 ================> DF-SCS-MP2 Energies <==================
	-----------------------------------------------------------
	 SCS Same-Spin Scale       =       0.3333333333333333 [-]
	 SCS Opposite-Spin Scale   =       1.2000000000000000 [-]
	 SCS Same-Spin Energy      =      -0.2051976808786871 [Eh]
	 SCS Opposite-Spin Energy  =      -2.1836767248953177 [Eh]
	 SCS Correlation Energy    =      -2.3888744057740050 [Eh]
	 SCS Total Energy          =    -581.0121168864967558 [Eh]
	-----------------------------------------------------------

  Dipole Moment: [D]
     X:     0.5974      Y:    -6.4915      Z:    -0.9733     Total:     6.5912

*** Psi4 exiting successfully. Buy a developer a beer!
