                               Psi4 1.4a3.dev225

  ==> Input File <==

--------------------------------------------------------------------------
#psi4
#
memory 32 gb

molecule  {
0 1
  O        1.6617960     2.5152110     0.0229320
  N       -1.9329240    -0.4005880    -0.0147920
  N        1.9545050     0.2323110     0.0113410
  N        0.2669280    -1.4301930    -0.0208730
  N       -1.3834780     1.7915450    -0.0193170
  N        2.5221760    -2.0364130     0.0734370
  C       -0.5634760    -0.3442740    -0.0026930
  C       -0.2488450     1.0144850    -0.0147620
  C        1.1380320     1.4076430     0.0031510
  C       -2.4054480     0.8701340    -0.0163025
  C        1.5275980    -1.0721200    -0.0057920
  C       -2.7322540    -1.6127190     0.0339130
  H       -3.4247340     1.1445090    -0.0228960
  H       -2.2735910    -2.3629350    -0.6109560
  H       -2.7853950    -1.9995380     1.0543320
  H       -3.7366260    -1.3828770    -0.3245450
  H        2.9468270     0.4301980     0.1174830
  H        2.1372730    -2.9631930    -0.0801050
  H        3.3349710    -1.8642740    -0.5097710
units angstrom
no_reorient  #important for SAPT in psi4, default
symmetry c1  #important for SAPT in psi4, default
}

set PROPERTIES_ORIGIN ["COM"]
properties('MP2/aug-cc-pvtz', properties = ['dipole'])
--------------------------------------------------------------------------

    Molecular point group: c1
  Charge       = 0
  Multiplicity = 1
  Basis Set: AUG-CC-PVTZ
    Blend: AUG-CC-PVTZ
  Basis Set: (AUG-CC-PVTZ AUX)
    Blend: AUG-CC-PVTZ-JKFIT

    Orbital Energies [Eh]
    ---------------------

    Doubly Occupied:

       1A    -20.523035     2A    -15.637761     3A    -15.629770
       4A    -15.610246     5A    -15.571197     6A    -15.561429
       7A    -11.395241     8A    -11.366153     9A    -11.318159
      10A    -11.307761    11A    -11.289898    12A    -11.248678
      13A     -1.391282    14A     -1.361288    15A     -1.333608
      16A     -1.218802    17A     -1.212275    18A     -1.184342
      19A     -1.026828    20A     -0.987913    21A     -0.906812
      22A     -0.880296    23A     -0.809837    24A     -0.766340
      25A     -0.739761    26A     -0.731014    27A     -0.691840
      28A     -0.672134    29A     -0.652175    30A     -0.645438
      31A     -0.626152    32A     -0.612075    33A     -0.590683
      34A     -0.580142    35A     -0.559199    36A     -0.542206
      37A     -0.491701    38A     -0.458815    39A     -0.440216
      40A     -0.428374    41A     -0.427943    42A     -0.392426
      43A     -0.294181

  @DF-RHF Final Energy:  -578.62348233539092

   => Energetics <=

    Nuclear Repulsion Energy =            692.6066325718671806
    One-Electron Energy =               -2162.2293719831777707
    Two-Electron Energy =                 890.9992570759197861
    Total Energy =                       -578.6234823353909178
  Basis Set: (AUG-CC-PVTZ AUX)
    Blend: AUG-CC-PVTZ-RI
    Molecular point group: c1

    Geometry (in Angstrom), charge = 0, multiplicity = 1:

       Center              X                  Y                   Z               Mass
    ------------   -----------------  -----------------  -----------------  -----------------
         O            1.641671606145     2.463670993459     0.020661373016    15.994914619570
         N           -1.953048393855    -0.452128006541    -0.017062626984    14.003074004430
         N            1.934380606145     0.180770993459     0.009070373016    14.003074004430
         N            0.246803606145    -1.481733006541    -0.023143626984    14.003074004430
         N           -1.403602393855     1.740004993459    -0.021587626984    14.003074004430
         N            2.502051606145    -2.087953006541     0.071166373016    14.003074004430
         C           -0.583600393855    -0.395814006541    -0.004963626984    12.000000000000
         C           -0.268969393855     0.962944993459    -0.017032626984    12.000000000000
         C            1.117907606145     1.356102993459     0.000880373016    12.000000000000
         C           -2.425572393855     0.818593993459    -0.018573126984    12.000000000000
         C            1.507473606145    -1.123660006541    -0.008062626984    12.000000000000
         C           -2.752378393855    -1.664259006541     0.031642373016    12.000000000000
         H           -3.444858393855     1.092968993459    -0.025166626984     1.007825032230
         H           -2.293715393855    -2.414475006541    -0.613226626984     1.007825032230
         H           -2.805519393855    -2.051078006541     1.052061373016     1.007825032230
         H           -3.756750393855    -1.434417006541    -0.326815626984     1.007825032230
         H            2.926702606145     0.378657993459     0.115212373016     1.007825032230
         H            2.117148606145    -3.014733006541    -0.082375626984     1.007825032230
         H            3.314846606145    -1.915814006541    -0.512041626984     1.007825032230

  Basis Set: AUG-CC-PVTZ
    Blend: AUG-CC-PVTZ
  Basis Set: (AUG-CC-PVTZ AUX)
    Blend: AUG-CC-PVTZ-JKFIT
	 Reference Energy          =    -578.6234823353909178 [Eh]
	 Singles Energy            =      -0.0000000000000000 [Eh]
	 Same-Spin Energy          =      -0.6174754619006985 [Eh]
	 Opposite-Spin Energy      =      -1.8223879230342439 [Eh]
	 Correlation Energy        =      -2.4398633849349425 [Eh]
	 Total Energy              =    -581.0633457203258558 [Eh]

	 ================> DF-SCS-MP2 Energies <==================
	-----------------------------------------------------------
	 SCS Same-Spin Scale       =       0.3333333333333333 [-]
	 SCS Opposite-Spin Scale   =       1.2000000000000000 [-]
	 SCS Same-Spin Energy      =      -0.2058251539668995 [Eh]
	 SCS Opposite-Spin Energy  =      -2.1868655076410928 [Eh]
	 SCS Correlation Energy    =      -2.3926906616079924 [Eh]
	 SCS Total Energy          =    -581.0161729969988755 [Eh]
	-----------------------------------------------------------

  Dipole Moment: [D]
     X:    -0.5275      Y:    -6.8287      Z:    -0.8509     Total:     6.9017

*** Psi4 exiting successfully. Buy a developer a beer!
