                               Psi4 1.3.2 release

  ==> Input File <==

--------------------------------------------------------------------------
#psi4
#
memory 32 gb

molecule  {
0 1
  O       -1.4697740     2.5644010     0.0803940
  N        1.9191590    -0.5831280    -0.0556370
  N       -1.9102790     0.3061000     0.0485010
  N       -0.3427170    -1.4672350    -0.0387560
  N        1.5166440     1.6409000    -0.0105650
  N       -2.6294290    -1.9169300     0.1110730
  C        0.4582878    -0.4262400    -0.0276302
  C        0.3337570     0.9396730    -0.0094060
  C       -1.0221650     1.4237120     0.0351730
  C        2.4390620     0.6894910    -0.0699270
  C       -1.5730580    -1.0260450     0.0187980
  C        2.6353690    -1.8453210    -0.0655260
  H        3.5092610     0.8590810    -0.0866130
  H        2.3729340    -2.4304260     0.8177420
  H        2.3794720    -2.4140780    -0.9605130
  H        3.7041390    -1.6305860    -0.0592400
  H       -2.8879820     0.5691470     0.1693100
  H       -2.3258040    -2.8676930    -0.0642460
  H       -3.4596940    -1.6726380    -0.4173570
units angstrom
no_reorient  #important for SAPT in psi4, default
symmetry c1  #important for SAPT in psi4, default
}

set PROPERTIES_ORIGIN ["COM"]
properties('MP2/aug-cc-pvtz', properties = ['dipole'])
--------------------------------------------------------------------------

    Molecular point group: c1
  Charge       = 0
  Multiplicity = 1
  Basis Set: AUG-CC-PVTZ
    Blend: AUG-CC-PVTZ
  Basis Set: (AUG-CC-PVTZ AUX)
    Blend: AUG-CC-PVTZ-JKFIT

    Orbital Energies [Eh]
    ---------------------

    Doubly Occupied:

       1A    -20.521137     2A    -15.634430     3A    -15.621378
       4A    -15.614501     5A    -15.575853     6A    -15.553256
       7A    -11.401543     8A    -11.363887     9A    -11.320543
      10A    -11.309372    11A    -11.282299    12A    -11.248772
      13A     -1.394779    14A     -1.354884    15A     -1.327980
      16A     -1.233067    17A     -1.223059    18A     -1.181590
      19A     -1.033337    20A     -0.973454    21A     -0.897293
      22A     -0.890302    23A     -0.810804    24A     -0.766378
      25A     -0.736528    26A     -0.728797    27A     -0.694315
      28A     -0.666065    29A     -0.652611    30A     -0.637548
      31A     -0.627305    32A     -0.610359    33A     -0.592211
      34A     -0.564131    35A     -0.555169    36A     -0.541582
      37A     -0.501636    38A     -0.468050    39A     -0.442459
      40A     -0.434820    41A     -0.428387    42A     -0.385585
      43A     -0.298208

  @DF-RHF Final Energy:  -578.61705327121172

   => Energetics <=

    Nuclear Repulsion Energy =            693.7315115083122237
    One-Electron Energy =               -2164.4978053672875831
    Two-Electron Energy =                 892.1492405877636429
    Total Energy =                       -578.6170532712117165
  Basis Set: (AUG-CC-PVTZ AUX)
    Blend: AUG-CC-PVTZ-RI
    Molecular point group: c1

    Geometry (in Angstrom), charge = 0, multiplicity = 1:

       Center              X                  Y                   Z               Mass
    ------------   -----------------  -----------------  -----------------  -----------------
         O           -1.462546895691     2.563625005604     0.080255573001    15.994914619570
         N            1.926386104309    -0.583903994396    -0.055775426999    14.003074004430
         N           -1.903051895691     0.305324005604     0.048362573001    14.003074004430
         N           -0.335489895691    -1.468010994396    -0.038894426999    14.003074004430
         N            1.523871104309     1.640124005604    -0.010703426999    14.003074004430
         N           -2.622201895691    -1.917705994396     0.110934573001    14.003074004430
         C            0.465514904309    -0.427015994396    -0.027768626999    12.000000000000
         C            0.340984104309     0.938897005604    -0.009544426999    12.000000000000
         C           -1.014937895691     1.422936005604     0.035034573001    12.000000000000
         C            2.446289104309     0.688715005604    -0.070065426999    12.000000000000
         C           -1.565830895691    -1.026820994396     0.018659573001    12.000000000000
         C            2.642596104309    -1.846096994396    -0.065664426999    12.000000000000
         H            3.516488104309     0.858305005604    -0.086751426999     1.007825032230
         H            2.380161104309    -2.431201994396     0.817603573001     1.007825032230
         H            2.386699104309    -2.414853994396    -0.960651426999     1.007825032230
         H            3.711366104309    -1.631361994396    -0.059378426999     1.007825032230
         H           -2.880754895691     0.568371005604     0.169171573001     1.007825032230
         H           -2.318576895691    -2.868468994396    -0.064384426999     1.007825032230
         H           -3.452466895691    -1.673413994396    -0.417495426999     1.007825032230

  Basis Set: AUG-CC-PVTZ
    Blend: AUG-CC-PVTZ
  Basis Set: (AUG-CC-PVTZ AUX)
    Blend: AUG-CC-PVTZ-JKFIT
	 Reference Energy          =    -578.6170532712117165 [Eh]
	 Singles Energy            =      -0.0000000000000000 [Eh]
	 Same-Spin Energy          =      -0.6166994096030749 [Eh]
	 Opposite-Spin Energy      =      -1.8209893691943553 [Eh]
	 Correlation Energy        =      -2.4376887787974302 [Eh]
	 Total Energy              =    -581.0547420500091675 [Eh]

	 ================> DF-SCS-MP2 Energies <==================
	-----------------------------------------------------------
	 SCS Same-Spin Scale       =       0.3333333333333333 [-]
	 SCS Opposite-Spin Scale   =       1.2000000000000000 [-]
	 SCS Same-Spin Energy      =      -0.2055664698676916 [Eh]
	 SCS Opposite-Spin Energy  =      -2.1851872430332264 [Eh]
	 SCS Correlation Energy    =      -2.3907537129009180 [Eh]
	 SCS Total Energy          =    -581.0078069841126762 [Eh]
	-----------------------------------------------------------

  Dipole Moment: [D]
     X:    -0.4896      Y:    -6.8341      Z:    -0.9313     Total:     6.9147

*** Psi4 exiting successfully. Buy a developer a beer!
