                               Psi4 1.3.2 release

  ==> Input File <==

--------------------------------------------------------------------------
#psi4
#
memory 32 gb

molecule  {
0 1
  O       -1.4697740     2.5644010     0.0803940
  N        1.9191590    -0.5831280    -0.0556370
  N       -1.9102790     0.3061000     0.0485010
  N       -0.3427170    -1.4672350    -0.0387560
  N        1.5083644     1.6328115    -0.0107136
  N       -2.6294290    -1.9169300     0.1110730
  C        0.5576980    -0.4369160    -0.0295360
  C        0.3337570     0.9396730    -0.0094060
  C       -1.0221650     1.4237120     0.0351730
  C        2.4390620     0.6894910    -0.0699270
  C       -1.5730580    -1.0260450     0.0187980
  C        2.6353690    -1.8453210    -0.0655260
  H        3.5106926     0.8497423    -0.0870273
  H        2.3729340    -2.4304260     0.8177420
  H        2.3794720    -2.4140780    -0.9605130
  H        3.7041390    -1.6305860    -0.0592400
  H       -2.8879820     0.5691470     0.1693100
  H       -2.3258040    -2.8676930    -0.0642460
  H       -3.4596940    -1.6726380    -0.4173570
units angstrom
no_reorient  #important for SAPT in psi4, default
symmetry c1  #important for SAPT in psi4, default
}

set PROPERTIES_ORIGIN ["COM"]
properties('MP2/aug-cc-pvtz', properties = ['dipole'])
--------------------------------------------------------------------------

    Molecular point group: c1
  Charge       = 0
  Multiplicity = 1
  Basis Set: AUG-CC-PVTZ
    Blend: AUG-CC-PVTZ
  Basis Set: (AUG-CC-PVTZ AUX)
    Blend: AUG-CC-PVTZ-JKFIT

    Orbital Energies [Eh]
    ---------------------

    Doubly Occupied:

       1A    -20.521157     2A    -15.632738     3A    -15.629217
       4A    -15.610454     5A    -15.570515     6A    -15.558413
       7A    -11.395682     8A    -11.364359     9A    -11.318258
      10A    -11.306859    11A    -11.289247    12A    -11.246356
      13A     -1.390896    14A     -1.361082    15A     -1.334129
      16A     -1.218977    17A     -1.216535    18A     -1.191677
      19A     -1.028892    20A     -0.986876    21A     -0.902003
      22A     -0.881920    23A     -0.808176    24A     -0.766926
      25A     -0.741785    26A     -0.729260    27A     -0.692121
      28A     -0.671163    29A     -0.649470    30A     -0.641865
      31A     -0.626460    32A     -0.610562    33A     -0.596473
      34A     -0.578436    35A     -0.561548    36A     -0.541579
      37A     -0.493444    38A     -0.459130    39A     -0.440045
      40A     -0.429089    41A     -0.427905    42A     -0.393558
      43A     -0.297447

  @DF-RHF Final Energy:  -578.63081936339438

   => Energetics <=

    Nuclear Repulsion Energy =            693.7963943359575296
    One-Electron Energy =               -2164.6290616550777486
    Two-Electron Energy =                 892.2018479557258388
    Total Energy =                       -578.6308193633943802
  Basis Set: (AUG-CC-PVTZ AUX)
    Blend: AUG-CC-PVTZ-RI
    Molecular point group: c1

    Geometry (in Angstrom), charge = 0, multiplicity = 1:

       Center              X                  Y                   Z               Mass
    ------------   -----------------  -----------------  -----------------  -----------------
         O           -1.469080230799     2.565144331619     0.080409257850    15.994914619570
         N            1.919852769201    -0.582384668381    -0.055621742150    14.003074004430
         N           -1.909585230799     0.306843331619     0.048516257850    14.003074004430
         N           -0.342023230799    -1.466491668381    -0.038740742150    14.003074004430
         N            1.509058169201     1.633554831619    -0.010698342150    14.003074004430
         N           -2.628735230799    -1.916186668381     0.111088257850    14.003074004430
         C            0.558391769201    -0.436172668381    -0.029520742150    12.000000000000
         C            0.334450769201     0.940416331619    -0.009390742150    12.000000000000
         C           -1.021471230799     1.424455331619     0.035188257850    12.000000000000
         C            2.439755769201     0.690234331619    -0.069911742150    12.000000000000
         C           -1.572364230799    -1.025301668381     0.018813257850    12.000000000000
         C            2.636062769201    -1.844577668381    -0.065510742150    12.000000000000
         H            3.511386369201     0.850485631619    -0.087012042150     1.007825032230
         H            2.373627769201    -2.429682668381     0.817757257850     1.007825032230
         H            2.380165769201    -2.413334668381    -0.960497742150     1.007825032230
         H            3.704832769201    -1.629842668381    -0.059224742150     1.007825032230
         H           -2.887288230799     0.569890331619     0.169325257850     1.007825032230
         H           -2.325110230799    -2.866949668381    -0.064230742150     1.007825032230
         H           -3.459000230799    -1.671894668381    -0.417341742150     1.007825032230

  Basis Set: AUG-CC-PVTZ
    Blend: AUG-CC-PVTZ
  Basis Set: (AUG-CC-PVTZ AUX)
    Blend: AUG-CC-PVTZ-JKFIT
	 Reference Energy          =    -578.6308193633943802 [Eh]
	 Singles Energy            =      -0.0000000000000000 [Eh]
	 Same-Spin Energy          =      -0.6162020859761471 [Eh]
	 Opposite-Spin Energy      =      -1.8197485668524562 [Eh]
	 Correlation Energy        =      -2.4359506528286032 [Eh]
	 Total Energy              =    -581.0667700162230176 [Eh]

	 ================> DF-SCS-MP2 Energies <==================
	-----------------------------------------------------------
	 SCS Same-Spin Scale       =       0.3333333333333333 [-]
	 SCS Opposite-Spin Scale   =       1.2000000000000000 [-]
	 SCS Same-Spin Energy      =      -0.2054006953253824 [Eh]
	 SCS Opposite-Spin Energy  =      -2.1836982802229472 [Eh]
	 SCS Correlation Energy    =      -2.3890989755483294 [Eh]
	 SCS Total Energy          =    -581.0199183389427162 [Eh]
	-----------------------------------------------------------

  Dipole Moment: [D]
     X:     0.0026      Y:    -6.7740      Z:    -0.9378     Total:     6.8386

*** Psi4 exiting successfully. Buy a developer a beer!
