                               Psi4 1.3.2 release

  ==> Input File <==

--------------------------------------------------------------------------
#psi4
#
memory 32 gb

molecule  {
0 1
  O       -1.4697740     2.5644010     0.0803940
  N        1.9191590    -0.5831280    -0.0556370
  N       -1.9102790     0.3061000     0.0485010
  N       -0.3427170    -1.4672350    -0.0387560
  N        1.5166440     1.6409000    -0.0105650
  N       -2.6294290    -1.9169300     0.1110730
  C        0.5576980    -0.4369160    -0.0295360
  C        0.3337570     0.9396730    -0.0094060
  C       -1.0221650     1.4237120     0.0351730
  C        2.4390620     0.6894910    -0.0699270
  C       -1.6221267    -0.8322059     0.0231201
  C        2.6353690    -1.8453210    -0.0655260
  H        3.5092610     0.8590810    -0.0866130
  H        2.3729340    -2.4304260     0.8177420
  H        2.3794720    -2.4140780    -0.9605130
  H        3.7041390    -1.6305860    -0.0592400
  H       -2.8879820     0.5691470     0.1693100
  H       -2.3258040    -2.8676930    -0.0642460
  H       -3.4596940    -1.6726380    -0.4173570
units angstrom
no_reorient  #important for SAPT in psi4, default
symmetry c1  #important for SAPT in psi4, default
}

set PROPERTIES_ORIGIN ["COM"]
properties('MP2/aug-cc-pvtz', properties = ['dipole'])
--------------------------------------------------------------------------

    Molecular point group: c1
  Charge       = 0
  Multiplicity = 1
  Basis Set: AUG-CC-PVTZ
    Blend: AUG-CC-PVTZ
  Basis Set: (AUG-CC-PVTZ AUX)
    Blend: AUG-CC-PVTZ-JKFIT

    Orbital Energies [Eh]
    ---------------------

    Doubly Occupied:

       1A    -20.532468     2A    -15.659102     3A    -15.626464
       4A    -15.602070     5A    -15.565921     6A    -15.557709
       7A    -11.394961     8A    -11.375957     9A    -11.317532
      10A    -11.307204    11A    -11.286298    12A    -11.243878
      13A     -1.433539    14A     -1.362571    15A     -1.356748
      16A     -1.220832    17A     -1.195395    18A     -1.180252
      19A     -1.028054    20A     -0.986567    21A     -0.930266
      22A     -0.900928    23A     -0.797386    24A     -0.781983
      25A     -0.758810    26A     -0.712088    27A     -0.694166
      28A     -0.678040    29A     -0.657642    30A     -0.651303
      31A     -0.616864    32A     -0.596881    33A     -0.594912
      34A     -0.569617    35A     -0.560930    36A     -0.533153
      37A     -0.494875    38A     -0.456383    39A     -0.448940
      40A     -0.439731    41A     -0.427946    42A     -0.392168
      43A     -0.288062

  @DF-RHF Final Energy:  -578.56749677412472

   => Energetics <=

    Nuclear Repulsion Energy =            694.8781651753663482
    One-Electron Energy =               -2166.4581308696633641
    Two-Electron Energy =                 893.0124689201722958
    Total Energy =                       -578.5674967741247201
  Basis Set: (AUG-CC-PVTZ AUX)
    Blend: AUG-CC-PVTZ-RI
    Molecular point group: c1

    Geometry (in Angstrom), charge = 0, multiplicity = 1:

       Center              X                  Y                   Z               Mass
    ------------   -----------------  -----------------  -----------------  -----------------
         O           -1.466206652641     2.550309303287     0.080079911356    15.994914619570
         N            1.922726347359    -0.597219696713    -0.055951088644    14.003074004430
         N           -1.906711652641     0.292008303287     0.048186911356    14.003074004430
         N           -0.339149652641    -1.481326696713    -0.039070088644    14.003074004430
         N            1.520211347359     1.626808303287    -0.010879088644    14.003074004430
         N           -2.625861652641    -1.931021696713     0.110758911356    14.003074004430
         C            0.561265347359    -0.451007696713    -0.029850088644    12.000000000000
         C            0.337324347359     0.925581303287    -0.009720088644    12.000000000000
         C           -1.018597652641     1.409620303287     0.034858911356    12.000000000000
         C            2.442629347359     0.675399303287    -0.070241088644    12.000000000000
         C           -1.618559352641    -0.846297596713     0.022806011356    12.000000000000
         C            2.638936347359    -1.859412696713    -0.065840088644    12.000000000000
         H            3.512828347359     0.844989303287    -0.086927088644     1.007825032230
         H            2.376501347359    -2.444517696713     0.817427911356     1.007825032230
         H            2.383039347359    -2.428169696713    -0.960827088644     1.007825032230
         H            3.707706347359    -1.644677696713    -0.059554088644     1.007825032230
         H           -2.884414652641     0.555055303287     0.168995911356     1.007825032230
         H           -2.322236652641    -2.881784696713    -0.064560088644     1.007825032230
         H           -3.456126652641    -1.686729696713    -0.417671088644     1.007825032230

  Basis Set: AUG-CC-PVTZ
    Blend: AUG-CC-PVTZ
  Basis Set: (AUG-CC-PVTZ AUX)
    Blend: AUG-CC-PVTZ-JKFIT
	 Reference Energy          =    -578.5674967741247201 [Eh]
	 Singles Energy            =      -0.0000000000000000 [Eh]
	 Same-Spin Energy          =      -0.6169911467986552 [Eh]
	 Opposite-Spin Energy      =      -1.8221616142322059 [Eh]
	 Correlation Energy        =      -2.4391527610308610 [Eh]
	 Total Energy              =    -581.0066495351555886 [Eh]

	 ================> DF-SCS-MP2 Energies <==================
	-----------------------------------------------------------
	 SCS Same-Spin Scale       =       0.3333333333333333 [-]
	 SCS Opposite-Spin Scale   =       1.2000000000000000 [-]
	 SCS Same-Spin Energy      =      -0.2056637155995517 [Eh]
	 SCS Opposite-Spin Energy  =      -2.1865939370786469 [Eh]
	 SCS Correlation Energy    =      -2.3922576526781985 [Eh]
	 SCS Total Energy          =    -580.9597544268028741 [Eh]
	-----------------------------------------------------------

  Dipole Moment: [D]
     X:    -0.2882      Y:    -5.8723      Z:    -0.9197     Total:     5.9508

*** Psi4 exiting successfully. Buy a developer a beer!
