                               Psi4 1.3.2 release

  ==> Input File <==

--------------------------------------------------------------------------
#psi4
#
memory 32 gb

molecule  {
0 1
  O       -1.4697740     2.5644010     0.0803940
  N        1.9191590    -0.5831280    -0.0556370
  N       -1.9004983     0.2983927     0.0481328
  N       -0.3427170    -1.4672350    -0.0387560
  N        1.5166440     1.6409000    -0.0105650
  N       -2.6294290    -1.9169300     0.1110730
  C        0.5576980    -0.4369160    -0.0295360
  C        0.3294791     0.9278534    -0.0094130
  C       -1.0221650     1.4237120     0.0351730
  C        2.4390620     0.6894910    -0.0699270
  C       -1.5730580    -1.0260450     0.0187980
  C        2.6353690    -1.8453210    -0.0655260
  H        3.5092610     0.8590810    -0.0866130
  H        2.3729340    -2.4304260     0.8177420
  H        2.3794720    -2.4140780    -0.9605130
  H        3.7041390    -1.6305860    -0.0592400
  H       -2.8879820     0.5691470     0.1693100
  H       -2.3258040    -2.8676930    -0.0642460
  H       -3.4596940    -1.6726380    -0.4173570
units angstrom
no_reorient  #important for SAPT in psi4, default
symmetry c1  #important for SAPT in psi4, default
}

set PROPERTIES_ORIGIN ["COM"]
properties('MP2/aug-cc-pvtz', properties = ['dipole'])
--------------------------------------------------------------------------

    Molecular point group: c1
  Charge       = 0
  Multiplicity = 1
  Basis Set: AUG-CC-PVTZ
    Blend: AUG-CC-PVTZ
  Basis Set: (AUG-CC-PVTZ AUX)
    Blend: AUG-CC-PVTZ-JKFIT

    Orbital Energies [Eh]
    ---------------------

    Doubly Occupied:

       1A    -20.522539     2A    -15.631843     3A    -15.630166
       4A    -15.610403     5A    -15.569578     6A    -15.559408
       7A    -11.394911     8A    -11.365261     9A    -11.318139
      10A    -11.307505    11A    -11.288968    12A    -11.245919
      13A     -1.391726    14A     -1.360597    15A     -1.335030
      16A     -1.219791    17A     -1.215109    18A     -1.188850
      19A     -1.031240    20A     -0.985779    21A     -0.901896
      22A     -0.882627    23A     -0.808462    24A     -0.767742
      25A     -0.738110    26A     -0.729422    27A     -0.692132
      28A     -0.671287    29A     -0.650728    30A     -0.640907
      31A     -0.626962    32A     -0.612065    33A     -0.591126
      34A     -0.578161    35A     -0.560764    36A     -0.541669
      37A     -0.492695    38A     -0.459207    39A     -0.439930
      40A     -0.430550    41A     -0.429377    42A     -0.391354
      43A     -0.300260

  @DF-RHF Final Energy:  -578.63029948838437

   => Energetics <=

    Nuclear Repulsion Energy =            693.8237815089712512
    One-Electron Energy =               -2164.6877697315153455
    Two-Electron Energy =                 892.2336887341597276
    Total Energy =                       -578.6302994883843667
  Basis Set: (AUG-CC-PVTZ AUX)
    Blend: AUG-CC-PVTZ-RI
    Molecular point group: c1

    Geometry (in Angstrom), charge = 0, multiplicity = 1:

       Center              X                  Y                   Z               Mass
    ------------   -----------------  -----------------  -----------------  -----------------
         O           -1.470292614058     2.565914242905     0.080425866653    15.994914619570
         N            1.918640385942    -0.581614757095    -0.055605133347    14.003074004430
         N           -1.901016914058     0.299905942905     0.048164666653    14.003074004430
         N           -0.343235614058    -1.465721757095    -0.038724133347    14.003074004430
         N            1.516125385942     1.642413242905    -0.010533133347    14.003074004430
         N           -2.629947614058    -1.915416757095     0.111104866653    14.003074004430
         C            0.557179385942    -0.435402757095    -0.029504133347    12.000000000000
         C            0.328960485942     0.929366642905    -0.009381133347    12.000000000000
         C           -1.022683614058     1.425225242905     0.035204866653    12.000000000000
         C            2.438543385942     0.691004242905    -0.069895133347    12.000000000000
         C           -1.573576614058    -1.024531757095     0.018829866653    12.000000000000
         C            2.634850385942    -1.843807757095    -0.065494133347    12.000000000000
         H            3.508742385942     0.860594242905    -0.086581133347     1.007825032230
         H            2.372415385942    -2.428912757095     0.817773866653     1.007825032230
         H            2.378953385942    -2.412564757095    -0.960481133347     1.007825032230
         H            3.703620385942    -1.629072757095    -0.059208133347     1.007825032230
         H           -2.888500614058     0.570660242905     0.169341866653     1.007825032230
         H           -2.326322614058    -2.866179757095    -0.064214133347     1.007825032230
         H           -3.460212614058    -1.671124757095    -0.417325133347     1.007825032230

  Basis Set: AUG-CC-PVTZ
    Blend: AUG-CC-PVTZ
  Basis Set: (AUG-CC-PVTZ AUX)
    Blend: AUG-CC-PVTZ-JKFIT
	 Reference Energy          =    -578.6302994883843667 [Eh]
	 Singles Energy            =      -0.0000000000000000 [Eh]
	 Same-Spin Energy          =      -0.6160262797924081 [Eh]
	 Opposite-Spin Energy      =      -1.8198464601760382 [Eh]
	 Correlation Energy        =      -2.4358727399684463 [Eh]
	 Total Energy              =    -581.0661722283527979 [Eh]

	 ================> DF-SCS-MP2 Energies <==================
	-----------------------------------------------------------
	 SCS Same-Spin Scale       =       0.3333333333333333 [-]
	 SCS Opposite-Spin Scale   =       1.2000000000000000 [-]
	 SCS Same-Spin Energy      =      -0.2053420932641360 [Eh]
	 SCS Opposite-Spin Energy  =      -2.1838157522112458 [Eh]
	 SCS Correlation Energy    =      -2.3891578454753817 [Eh]
	 SCS Total Energy          =    -581.0194573338598047 [Eh]
	-----------------------------------------------------------

  Dipole Moment: [D]
     X:    -0.0512      Y:    -6.7519      Z:    -0.9377     Total:     6.8168

*** Psi4 exiting successfully. Buy a developer a beer!
