                               Psi4 1.4a3.dev225

  ==> Input File <==

--------------------------------------------------------------------------
#psi4
#
memory 32 gb

molecule  {
0 1
  O        1.6617960     2.5152110     0.0229320
  N       -1.9329240    -0.4005880    -0.0147920
  N        1.9545050     0.2323110     0.0113410
  N        0.2669280    -1.4301930    -0.0208730
  N       -1.3834780     1.7915450    -0.0193170
  N        2.5221760    -2.0364130     0.0734370
  C       -0.5634760    -0.3442740    -0.0026930
  C       -0.2488450     1.0144850    -0.0147620
  C        1.1380320     1.4076430     0.0031510
  C       -2.3311780     0.9370960    -0.0165215
  C        1.5275980    -1.0721200    -0.0057920
  C       -2.7322540    -1.6127190     0.0339130
  H       -3.4247340     1.1445090    -0.0228960
  H       -2.2735910    -2.3629350    -0.6109560
  H       -2.7853950    -1.9995380     1.0543320
  H       -3.7366260    -1.3828770    -0.3245450
  H        2.9468270     0.4301980     0.1174830
  H        2.1372730    -2.9631930    -0.0801050
  H        3.3349710    -1.8642740    -0.5097710
units angstrom
no_reorient  #important for SAPT in psi4, default
symmetry c1  #important for SAPT in psi4, default
}

set PROPERTIES_ORIGIN ["COM"]
properties('MP2/aug-cc-pvtz', properties = ['dipole'])
--------------------------------------------------------------------------

    Molecular point group: c1
  Charge       = 0
  Multiplicity = 1
  Basis Set: AUG-CC-PVTZ
    Blend: AUG-CC-PVTZ
  Basis Set: (AUG-CC-PVTZ AUX)
    Blend: AUG-CC-PVTZ-JKFIT

    Orbital Energies [Eh]
    ---------------------

    Doubly Occupied:

       1A    -20.520008     2A    -15.629172     3A    -15.627843
       4A    -15.611292     5A    -15.571092     6A    -15.558180
       7A    -11.396971     8A    -11.363939     9A    -11.321186
      10A    -11.306406    11A    -11.288297    12A    -11.246276
      13A     -1.390772    14A     -1.361078    15A     -1.334683
      16A     -1.222942    17A     -1.218696    18A     -1.194279
      19A     -1.031920    20A     -0.983869    21A     -0.895686
      22A     -0.883836    23A     -0.805029    24A     -0.766804
      25A     -0.743247    26A     -0.726949    27A     -0.690826
      28A     -0.669609    29A     -0.647953    30A     -0.639241
      31A     -0.624760    32A     -0.610807    33A     -0.594548
      34A     -0.576264    35A     -0.563973    36A     -0.541095
      37A     -0.493698    38A     -0.462655    39A     -0.440186
      40A     -0.431668    41A     -0.429555    42A     -0.393153
      43A     -0.302694

  @DF-RHF Final Energy:  -578.63088404926020

   => Energetics <=

    Nuclear Repulsion Energy =            693.7701039460343964
    One-Electron Energy =               -2164.5756974851792620
    Two-Electron Energy =                 892.1747094898846626
    Total Energy =                       -578.6308840492602030
  Basis Set: (AUG-CC-PVTZ AUX)
    Blend: AUG-CC-PVTZ-RI
    Molecular point group: c1

    Geometry (in Angstrom), charge = 0, multiplicity = 1:

       Center              X                  Y                   Z               Mass
    ------------   -----------------  -----------------  -----------------  -----------------
         O            1.636272280566     2.458802949303     0.020677294011    15.994914619570
         N           -1.958447719434    -0.456996050697    -0.017046705989    14.003074004430
         N            1.928981280566     0.175902949303     0.009086294011    14.003074004430
         N            0.241404280566    -1.486601050697    -0.023127705989    14.003074004430
         N           -1.409001719434     1.735136949303    -0.021571705989    14.003074004430
         N            2.496652280566    -2.092821050697     0.071182294011    14.003074004430
         C           -0.588999719434    -0.400682050697    -0.004947705989    12.000000000000
         C           -0.274368719434     0.958076949303    -0.017016705989    12.000000000000
         C            1.112508280566     1.351234949303     0.000896294011    12.000000000000
         C           -2.356701719434     0.880687949303    -0.018776205989    12.000000000000
         C            1.502074280566    -1.128528050697    -0.008046705989    12.000000000000
         C           -2.757777719434    -1.669127050697     0.031658294011    12.000000000000
         H           -3.450257719434     1.088100949303    -0.025150705989     1.007825032230
         H           -2.299114719434    -2.419343050697    -0.613210705989     1.007825032230
         H           -2.810918719434    -2.055946050697     1.052077294011     1.007825032230
         H           -3.762149719434    -1.439285050697    -0.326799705989     1.007825032230
         H            2.921303280566     0.373789949303     0.115228294011     1.007825032230
         H            2.111749280566    -3.019601050697    -0.082359705989     1.007825032230
         H            3.309447280566    -1.920682050697    -0.512025705989     1.007825032230

  Basis Set: AUG-CC-PVTZ
    Blend: AUG-CC-PVTZ
  Basis Set: (AUG-CC-PVTZ AUX)
    Blend: AUG-CC-PVTZ-JKFIT
	 Reference Energy          =    -578.6308840492602030 [Eh]
	 Singles Energy            =      -0.0000000000000000 [Eh]
	 Same-Spin Energy          =      -0.6148052828364809 [Eh]
	 Opposite-Spin Energy      =      -1.8175690699664444 [Eh]
	 Correlation Energy        =      -2.4323743528029254 [Eh]
	 Total Energy              =    -581.0632584020631839 [Eh]

	 ================> DF-SCS-MP2 Energies <==================
	-----------------------------------------------------------
	 SCS Same-Spin Scale       =       0.3333333333333333 [-]
	 SCS Opposite-Spin Scale   =       1.2000000000000000 [-]
	 SCS Same-Spin Energy      =      -0.2049350942788270 [Eh]
	 SCS Opposite-Spin Energy  =      -2.1810828839597334 [Eh]
	 SCS Correlation Energy    =      -2.3860179782385602 [Eh]
	 SCS Total Energy          =    -581.0169020274987588 [Eh]
	-----------------------------------------------------------

  Dipole Moment: [D]
     X:    -0.5010      Y:    -6.6547      Z:    -0.8510     Total:     6.7276

*** Psi4 exiting successfully. Buy a developer a beer!
