                               Psi4 1.3.2 release

  ==> Input File <==

--------------------------------------------------------------------------
#psi4
#
memory 32 gb

molecule  {
0 1
  O       -1.4896076     2.5563905     0.0810746
  N        1.9191590    -0.5831280    -0.0556370
  N       -1.9296202     0.3217615     0.0496951
  N       -0.3427170    -1.4672350    -0.0387560
  N        1.5166440     1.6409000    -0.0105650
  N       -2.6294290    -1.9169300     0.1110730
  C        0.5576980    -0.4369160    -0.0295360
  C        0.3337570     0.9396730    -0.0094060
  C       -1.0221650     1.4237120     0.0351730
  C        2.4390620     0.6894910    -0.0699270
  C       -1.5730580    -1.0260450     0.0187980
  C        2.6353690    -1.8453210    -0.0655260
  H        3.5092610     0.8590810    -0.0866130
  H        2.3729340    -2.4304260     0.8177420
  H        2.3794720    -2.4140780    -0.9605130
  H        3.7041390    -1.6305860    -0.0592400
  H       -2.8879820     0.5691470     0.1693100
  H       -2.3258040    -2.8676930    -0.0642460
  H       -3.4596940    -1.6726380    -0.4173570
units angstrom
no_reorient  #important for SAPT in psi4, default
symmetry c1  #important for SAPT in psi4, default
}

set PROPERTIES_ORIGIN ["COM"]
properties('MP2/aug-cc-pvtz', properties = ['dipole'])
--------------------------------------------------------------------------

    Molecular point group: c1
  Charge       = 0
  Multiplicity = 1
  Basis Set: AUG-CC-PVTZ
    Blend: AUG-CC-PVTZ
  Basis Set: (AUG-CC-PVTZ AUX)
    Blend: AUG-CC-PVTZ-JKFIT

    Orbital Energies [Eh]
    ---------------------

    Doubly Occupied:

       1A    -20.518980     2A    -15.633787     3A    -15.626090
       4A    -15.610873     5A    -15.572660     6A    -15.560550
       7A    -11.397799     8A    -11.363334     9A    -11.320236
      10A    -11.307789    11A    -11.290007    12A    -11.248251
      13A     -1.389552    14A     -1.361092    15A     -1.331455
      16A     -1.217595    17A     -1.216705    18A     -1.191595
      19A     -1.029338    20A     -0.987127    21A     -0.901987
      22A     -0.880073    23A     -0.807079    24A     -0.767574
      25A     -0.745543    26A     -0.728147    27A     -0.691827
      28A     -0.671298    29A     -0.648972    30A     -0.643986
      31A     -0.625283    32A     -0.609344    33A     -0.595313
      34A     -0.579096    35A     -0.561094    36A     -0.541818
      37A     -0.494876    38A     -0.459023    39A     -0.439061
      40A     -0.429529    41A     -0.427755    42A     -0.393650
      43A     -0.299108

  @DF-RHF Final Energy:  -578.63033682939226

   => Energetics <=

    Nuclear Repulsion Energy =            692.9376951583552682
    One-Electron Energy =               -2162.9035579811402386
    Two-Electron Energy =                 891.3355259933925936
    Total Energy =                       -578.6303368293922631
  Basis Set: (AUG-CC-PVTZ AUX)
    Blend: AUG-CC-PVTZ-RI
    Molecular point group: c1

    Geometry (in Angstrom), charge = 0, multiplicity = 1:

       Center              X                  Y                   Z               Mass
    ------------   -----------------  -----------------  -----------------  -----------------
         O           -1.486044804824     2.555838236295     0.080907471533    15.994914619570
         N            1.922721795176    -0.583680263705    -0.055804128467    14.003074004430
         N           -1.926057404824     0.321209236295     0.049527971533    14.003074004430
         N           -0.339154204824    -1.467787263705    -0.038923128467    14.003074004430
         N            1.520206795176     1.640347736295    -0.010732128467    14.003074004430
         N           -2.625866204824    -1.917482263705     0.110905871533    14.003074004430
         C            0.561260795176    -0.437468263705    -0.029703128467    12.000000000000
         C            0.337319795176     0.939120736295    -0.009573128467    12.000000000000
         C           -1.018602204824     1.423159736295     0.035005871533    12.000000000000
         C            2.442624795176     0.688938736295    -0.070094128467    12.000000000000
         C           -1.569495204824    -1.026597263705     0.018630871533    12.000000000000
         C            2.638931795176    -1.845873263705    -0.065693128467    12.000000000000
         H            3.512823795176     0.858528736295    -0.086780128467     1.007825032230
         H            2.376496795176    -2.430978263705     0.817574871533     1.007825032230
         H            2.383034795176    -2.414630263705    -0.960680128467     1.007825032230
         H            3.707701795176    -1.631138263705    -0.059407128467     1.007825032230
         H           -2.884419204824     0.568594736295     0.169142871533     1.007825032230
         H           -2.322241204824    -2.868245263705    -0.064413128467     1.007825032230
         H           -3.456131204824    -1.673190263705    -0.417524128467     1.007825032230

  Basis Set: AUG-CC-PVTZ
    Blend: AUG-CC-PVTZ
  Basis Set: (AUG-CC-PVTZ AUX)
    Blend: AUG-CC-PVTZ-JKFIT
	 Reference Energy          =    -578.6303368293922631 [Eh]
	 Singles Energy            =      -0.0000000000000000 [Eh]
	 Same-Spin Energy          =      -0.6157201680005222 [Eh]
	 Opposite-Spin Energy      =      -1.8194948537662778 [Eh]
	 Correlation Energy        =      -2.4352150217668003 [Eh]
	 Total Energy              =    -581.0655518511590572 [Eh]

	 ================> DF-SCS-MP2 Energies <==================
	-----------------------------------------------------------
	 SCS Same-Spin Scale       =       0.3333333333333333 [-]
	 SCS Opposite-Spin Scale   =       1.2000000000000000 [-]
	 SCS Same-Spin Energy      =      -0.2052400560001741 [Eh]
	 SCS Opposite-Spin Energy  =      -2.1833938245195332 [Eh]
	 SCS Correlation Energy    =      -2.3886338805197074 [Eh]
	 SCS Total Energy          =    -581.0189707099119687 [Eh]
	-----------------------------------------------------------

  Dipole Moment: [D]
     X:     0.0831      Y:    -6.8447      Z:    -0.9383     Total:     6.9092

*** Psi4 exiting successfully. Buy a developer a beer!
