                               Psi4 1.3.2 release

  ==> Input File <==

--------------------------------------------------------------------------
#psi4
#
memory 32 gb

molecule  {
0 1
  O       -1.4697740     2.5644010     0.0803940
  N        1.9191590    -0.5831280    -0.0556370
  N       -1.9102790     0.3061000     0.0485010
  N       -0.3427170    -1.4672350    -0.0387560
  N        1.5166440     1.6409000    -0.0105650
  N       -2.6294290    -1.9169300     0.1110730
  C        0.5576980    -0.4369160    -0.0295360
  C        0.3337570     0.9396730    -0.0094060
  C       -1.0221650     1.4237120     0.0351730
  C        2.4390620     0.6894910    -0.0699270
  C       -1.5730580    -1.0260450     0.0187980
  C        2.6847196    -1.9322926    -0.0662074
  H        3.5092610     0.8590810    -0.0866130
  H        2.3729340    -2.4304260     0.8177420
  H        2.3794720    -2.4140780    -0.9605130
  H        3.7041390    -1.6305860    -0.0592400
  H       -2.8879820     0.5691470     0.1693100
  H       -2.3258040    -2.8676930    -0.0642460
  H       -3.4596940    -1.6726380    -0.4173570
units angstrom
no_reorient  #important for SAPT in psi4, default
symmetry c1  #important for SAPT in psi4, default
}

set PROPERTIES_ORIGIN ["COM"]
properties('MP2/aug-cc-pvtz', properties = ['dipole'])
--------------------------------------------------------------------------

    Molecular point group: c1
  Charge       = 0
  Multiplicity = 1
  Basis Set: AUG-CC-PVTZ
    Blend: AUG-CC-PVTZ
  Basis Set: (AUG-CC-PVTZ AUX)
    Blend: AUG-CC-PVTZ-JKFIT

    Orbital Energies [Eh]
    ---------------------

    Doubly Occupied:

       1A    -20.518727     2A    -15.629001     3A    -15.627346
       4A    -15.609370     5A    -15.568893     6A    -15.556023
       7A    -11.394065     8A    -11.361991     9A    -11.315676
      10A    -11.303757    11A    -11.294223    12A    -11.243800
      13A     -1.387751    14A     -1.353050    15A     -1.330020
      16A     -1.217188    17A     -1.213174    18A     -1.177479
      19A     -1.026010    20A     -0.990414    21A     -0.897649
      22A     -0.879952    23A     -0.804762    24A     -0.760306
      25A     -0.737134    26A     -0.726801    27A     -0.689469
      28A     -0.669330    29A     -0.643003    30A     -0.635188
      31A     -0.630093    32A     -0.609096    33A     -0.593872
      34A     -0.584288    35A     -0.569411    36A     -0.541821
      37A     -0.489852    38A     -0.457480    39A     -0.437171
      40A     -0.427166    41A     -0.426365    42A     -0.391623
      43A     -0.295679

  @DF-RHF Final Energy:  -578.62273606915278

   => Energetics <=

    Nuclear Repulsion Energy =            691.3775635191107085
    One-Electron Energy =               -2159.9696610222354138
    Two-Electron Energy =                 889.9693614339719261
    Total Energy =                       -578.6227360691527792
  Basis Set: (AUG-CC-PVTZ AUX)
    Blend: AUG-CC-PVTZ-RI
    Molecular point group: c1

    Geometry (in Angstrom), charge = 0, multiplicity = 1:

       Center              X                  Y                   Z               Mass
    ------------   -----------------  -----------------  -----------------  -----------------
         O           -1.473361598702     2.570723850150     0.080443658838    15.994914619570
         N            1.915571401298    -0.576805149850    -0.055587341162    14.003074004430
         N           -1.913866598702     0.312422850150     0.048550658838    14.003074004430
         N           -0.346304598702    -1.460912149850    -0.038706341162    14.003074004430
         N            1.513056401298     1.647222850150    -0.010515341162    14.003074004430
         N           -2.633016598702    -1.910607149850     0.111122658838    14.003074004430
         C            0.554110401298    -0.430593149850    -0.029486341162    12.000000000000
         C            0.330169401298     0.945995850150    -0.009356341162    12.000000000000
         C           -1.025752598702     1.430034850150     0.035222658838    12.000000000000
         C            2.435474401298     0.695813850150    -0.069877341162    12.000000000000
         C           -1.576645598702    -1.019722149850     0.018847658838    12.000000000000
         C            2.681132001298    -1.925969749850    -0.066157741162    12.000000000000
         H            3.505673401298     0.865403850150    -0.086563341162     1.007825032230
         H            2.369346401298    -2.424103149850     0.817791658838     1.007825032230
         H            2.375884401298    -2.407755149850    -0.960463341162     1.007825032230
         H            3.700551401298    -1.624263149850    -0.059190341162     1.007825032230
         H           -2.891569598702     0.575469850150     0.169359658838     1.007825032230
         H           -2.329391598702    -2.861370149850    -0.064196341162     1.007825032230
         H           -3.463281598702    -1.666315149850    -0.417307341162     1.007825032230

  Basis Set: AUG-CC-PVTZ
    Blend: AUG-CC-PVTZ
  Basis Set: (AUG-CC-PVTZ AUX)
    Blend: AUG-CC-PVTZ-JKFIT
	 Reference Energy          =    -578.6227360691527792 [Eh]
	 Singles Energy            =      -0.0000000000000000 [Eh]
	 Same-Spin Energy          =      -0.6158642995443764 [Eh]
	 Opposite-Spin Energy      =      -1.8202537895267710 [Eh]
	 Correlation Energy        =      -2.4361180890711474 [Eh]
	 Total Energy              =    -581.0588541582238804 [Eh]

	 ================> DF-SCS-MP2 Energies <==================
	-----------------------------------------------------------
	 SCS Same-Spin Scale       =       0.3333333333333333 [-]
	 SCS Opposite-Spin Scale   =       1.2000000000000000 [-]
	 SCS Same-Spin Energy      =      -0.2052880998481255 [Eh]
	 SCS Opposite-Spin Energy  =      -2.1843045474321250 [Eh]
	 SCS Correlation Energy    =      -2.3895926472802502 [Eh]
	 SCS Total Energy          =    -581.0123287164329895 [Eh]
	-----------------------------------------------------------

  Dipole Moment: [D]
     X:     0.1922      Y:    -7.0363      Z:    -0.9426     Total:     7.1017

*** Psi4 exiting successfully. Buy a developer a beer!
