                               Psi4 1.3.2 release

  ==> Input File <==

--------------------------------------------------------------------------
#psi4
#
memory 32 gb

molecule  {
0 1
  O       -1.4697740     2.5644010     0.0803940
  N        1.9191590    -0.5831280    -0.0556370
  N       -1.9102790     0.3061000     0.0485010
  N       -0.3516740    -1.4593396    -0.0385985
  N        1.5166440     1.6409000    -0.0105650
  N       -2.6294290    -1.9169300     0.1110730
  C        0.5576980    -0.4369160    -0.0295360
  C        0.3217516     0.9376656    -0.0093678
  C       -1.0221650     1.4237120     0.0351730
  C        2.4390620     0.6894910    -0.0699270
  C       -1.5730580    -1.0260450     0.0187980
  C        2.6353690    -1.8453210    -0.0655260
  H        3.5092610     0.8590810    -0.0866130
  H        2.3729340    -2.4304260     0.8177420
  H        2.3794720    -2.4140780    -0.9605130
  H        3.7041390    -1.6305860    -0.0592400
  H       -2.8879820     0.5691470     0.1693100
  H       -2.3258040    -2.8676930    -0.0642460
  H       -3.4596940    -1.6726380    -0.4173570
units angstrom
no_reorient  #important for SAPT in psi4, default
symmetry c1  #important for SAPT in psi4, default
}

set PROPERTIES_ORIGIN ["COM"]
properties('MP2/aug-cc-pvtz', properties = ['dipole'])
--------------------------------------------------------------------------

    Molecular point group: c1
  Charge       = 0
  Multiplicity = 1
  Basis Set: AUG-CC-PVTZ
    Blend: AUG-CC-PVTZ
  Basis Set: (AUG-CC-PVTZ AUX)
    Blend: AUG-CC-PVTZ-JKFIT

    Orbital Energies [Eh]
    ---------------------

    Doubly Occupied:

       1A    -20.519884     2A    -15.633780     3A    -15.627736
       4A    -15.609687     5A    -15.569729     6A    -15.560378
       7A    -11.393975     8A    -11.363118     9A    -11.320993
      10A    -11.308173    11A    -11.290121    12A    -11.246821
      13A     -1.390816    14A     -1.360245    15A     -1.334609
      16A     -1.218636    17A     -1.216256    18A     -1.189900
      19A     -1.031539    20A     -0.987174    21A     -0.903168
      22A     -0.881580    23A     -0.808906    24A     -0.767148
      25A     -0.740436    26A     -0.729617    27A     -0.691870
      28A     -0.671749    29A     -0.650384    30A     -0.643313
      31A     -0.627471    32A     -0.610521    33A     -0.593319
      34A     -0.579537    35A     -0.560899    36A     -0.541877
      37A     -0.492610    38A     -0.459152    39A     -0.438358
      40A     -0.429522    41A     -0.428372    42A     -0.392137
      43A     -0.300534

  @DF-RHF Final Energy:  -578.63113973827012

   => Energetics <=

    Nuclear Repulsion Energy =            693.7084248627188572
    One-Electron Energy =               -2164.4470298672604258
    Two-Electron Energy =                 892.1074652662714470
    Total Energy =                       -578.6311397382701216
  Basis Set: (AUG-CC-PVTZ AUX)
    Blend: AUG-CC-PVTZ-RI
    Molecular point group: c1

    Geometry (in Angstrom), charge = 0, multiplicity = 1:

       Center              X                  Y                   Z               Mass
    ------------   -----------------  -----------------  -----------------  -----------------
         O           -1.468141247802     2.563877275403     0.080377983618    15.994914619570
         N            1.920791752198    -0.583651724597    -0.055653016382    14.003074004430
         N           -1.908646247802     0.305576275403     0.048484983618    14.003074004430
         N           -0.350041247802    -1.459863324597    -0.038614516382    14.003074004430
         N            1.518276752198     1.640376275403    -0.010581016382    14.003074004430
         N           -2.627796247802    -1.917453724597     0.111056983618    14.003074004430
         C            0.559330752198    -0.437439724597    -0.029552016382    12.000000000000
         C            0.323384352198     0.937141875403    -0.009383816382    12.000000000000
         C           -1.020532247802     1.423188275403     0.035156983618    12.000000000000
         C            2.440694752198     0.688967275403    -0.069943016382    12.000000000000
         C           -1.571425247802    -1.026568724597     0.018781983618    12.000000000000
         C            2.637001752198    -1.845844724597    -0.065542016382    12.000000000000
         H            3.510893752198     0.858557275403    -0.086629016382     1.007825032230
         H            2.374566752198    -2.430949724597     0.817725983618     1.007825032230
         H            2.381104752198    -2.414601724597    -0.960529016382     1.007825032230
         H            3.705771752198    -1.631109724597    -0.059256016382     1.007825032230
         H           -2.886349247802     0.568623275403     0.169293983618     1.007825032230
         H           -2.324171247802    -2.868216724597    -0.064262016382     1.007825032230
         H           -3.458061247802    -1.673161724597    -0.417373016382     1.007825032230

  Basis Set: AUG-CC-PVTZ
    Blend: AUG-CC-PVTZ
  Basis Set: (AUG-CC-PVTZ AUX)
    Blend: AUG-CC-PVTZ-JKFIT
	 Reference Energy          =    -578.6311397382701216 [Eh]
	 Singles Energy            =      -0.0000000000000000 [Eh]
	 Same-Spin Energy          =      -0.6158553470960325 [Eh]
	 Opposite-Spin Energy      =      -1.8194736680691486 [Eh]
	 Correlation Energy        =      -2.4353290151651810 [Eh]
	 Total Energy              =    -581.0664687534352879 [Eh]

	 ================> DF-SCS-MP2 Energies <==================
	-----------------------------------------------------------
	 SCS Same-Spin Scale       =       0.3333333333333333 [-]
	 SCS Opposite-Spin Scale   =       1.2000000000000000 [-]
	 SCS Same-Spin Energy      =      -0.2052851156986775 [Eh]
	 SCS Opposite-Spin Energy  =      -2.1833684016829782 [Eh]
	 SCS Correlation Energy    =      -2.3886535173816559 [Eh]
	 SCS Total Energy          =    -581.0197932556517344 [Eh]
	-----------------------------------------------------------

  Dipole Moment: [D]
     X:     0.0578      Y:    -6.8247      Z:    -0.9409     Total:     6.8895

*** Psi4 exiting successfully. Buy a developer a beer!
