                               Psi4 1.3.2 release

  ==> Input File <==

--------------------------------------------------------------------------
#psi4
#
memory 32 gb

molecule  {
0 1
  O       -1.4697740     2.5644010     0.0803940
  N        1.9191590    -0.5831280    -0.0556370
  N       -1.9102790     0.3061000     0.0485010
  N       -0.3427170    -1.4672350    -0.0387560
  N        1.5166440     1.6409000    -0.0105650
  N       -2.6294290    -1.9169300     0.1110730
  C        0.5576980    -0.4369160    -0.0295360
  C        0.3337570     0.9396730    -0.0094060
  C       -1.0221650     1.4237120     0.0351730
  C        2.4390620     0.6894910    -0.0699270
  C       -1.5271499    -1.0134280     0.0128847
  C        2.6353690    -1.8453210    -0.0655260
  H        3.5092610     0.8590810    -0.0866130
  H        2.3729340    -2.4304260     0.8177420
  H        2.3794720    -2.4140780    -0.9605130
  H        3.7041390    -1.6305860    -0.0592400
  H       -2.8783191     0.6033659     0.1677611
  H       -2.3258040    -2.8676930    -0.0642460
  H       -3.4596940    -1.6726380    -0.4173570
units angstrom
no_reorient  #important for SAPT in psi4, default
symmetry c1  #important for SAPT in psi4, default
}

set PROPERTIES_ORIGIN ["COM"]
properties('MP2/aug-cc-pvtz', properties = ['dipole'])
--------------------------------------------------------------------------

    Molecular point group: c1
  Charge       = 0
  Multiplicity = 1
  Basis Set: AUG-CC-PVTZ
    Blend: AUG-CC-PVTZ
  Basis Set: (AUG-CC-PVTZ AUX)
    Blend: AUG-CC-PVTZ-JKFIT

    Orbital Energies [Eh]
    ---------------------

    Doubly Occupied:

       1A    -20.522198     2A    -15.635971     3A    -15.628304
       4A    -15.602220     5A    -15.574492     6A    -15.562121
       7A    -11.392853     8A    -11.364145     9A    -11.321945
      10A    -11.309691    11A    -11.291660    12A    -11.250539
      13A     -1.393416    14A     -1.363685    15A     -1.334395
      16A     -1.224935    17A     -1.204868    18A     -1.195265
      19A     -1.032843    20A     -0.988642    21A     -0.903047
      22A     -0.881217    23A     -0.811730    24A     -0.769622
      25A     -0.741722    26A     -0.719471    27A     -0.685888
      28A     -0.673831    29A     -0.652012    30A     -0.639023
      31A     -0.627517    32A     -0.612254    33A     -0.595605
      34A     -0.580720    35A     -0.561067    36A     -0.542687
      37A     -0.500299    38A     -0.456880    39A     -0.441788
      40A     -0.431581    41A     -0.430029    42A     -0.395450
      43A     -0.304069

  @DF-RHF Final Energy:  -578.62771210271660

   => Energetics <=

    Nuclear Repulsion Energy =            694.0652745299413482
    One-Electron Energy =               -2165.0825783394952850
    Two-Electron Energy =                 892.3895917068374501
    Total Energy =                       -578.6277121027166004
  Basis Set: (AUG-CC-PVTZ AUX)
    Blend: AUG-CC-PVTZ-RI
    Molecular point group: c1

    Geometry (in Angstrom), charge = 0, multiplicity = 1:

       Center              X                  Y                   Z               Mass
    ------------   -----------------  -----------------  -----------------  -----------------
         O           -1.473170331771     2.563274969902     0.080833467683    15.994914619570
         N            1.915762668229    -0.584254030098    -0.055197532317    14.003074004430
         N           -1.913675331771     0.304973969902     0.048940467683    14.003074004430
         N           -0.346113331771    -1.468361030098    -0.038316532317    14.003074004430
         N            1.513247668229     1.639773969902    -0.010125532317    14.003074004430
         N           -2.632825331771    -1.918056030098     0.111512467683    14.003074004430
         C            0.554301668229    -0.438042030098    -0.029096532317    12.000000000000
         C            0.330360668229     0.938546969902    -0.008966532317    12.000000000000
         C           -1.025561331771     1.422585969902     0.035612467683    12.000000000000
         C            2.435665668229     0.688364969902    -0.069487532317    12.000000000000
         C           -1.530546231771    -1.014554030098     0.013324167683    12.000000000000
         C            2.631972668229    -1.846447030098    -0.065086532317    12.000000000000
         H            3.505864668229     0.857954969902    -0.086173532317     1.007825032230
         H            2.369537668229    -2.431552030098     0.818181467683     1.007825032230
         H            2.376075668229    -2.415204030098    -0.960073532317     1.007825032230
         H            3.700742668229    -1.631712030098    -0.058800532317     1.007825032230
         H           -2.881715431771     0.602239869902     0.168200567683     1.007825032230
         H           -2.329200331771    -2.868819030098    -0.063806532317     1.007825032230
         H           -3.463090331771    -1.673764030098    -0.416917532317     1.007825032230

  Basis Set: AUG-CC-PVTZ
    Blend: AUG-CC-PVTZ
  Basis Set: (AUG-CC-PVTZ AUX)
    Blend: AUG-CC-PVTZ-JKFIT
	 Reference Energy          =    -578.6277121027166004 [Eh]
	 Singles Energy            =      -0.0000000000000000 [Eh]
	 Same-Spin Energy          =      -0.6157081881882056 [Eh]
	 Opposite-Spin Energy      =      -1.8196656674443066 [Eh]
	 Correlation Energy        =      -2.4353738556325122 [Eh]
	 Total Energy              =    -581.0630859583491201 [Eh]

	 ================> DF-SCS-MP2 Energies <==================
	-----------------------------------------------------------
	 SCS Same-Spin Scale       =       0.3333333333333333 [-]
	 SCS Opposite-Spin Scale   =       1.2000000000000000 [-]
	 SCS Same-Spin Energy      =      -0.2052360627294019 [Eh]
	 SCS Opposite-Spin Energy  =      -2.1835988009331677 [Eh]
	 SCS Correlation Energy    =      -2.3888348636625696 [Eh]
	 SCS Total Energy          =    -581.0165469663792237 [Eh]
	-----------------------------------------------------------

  Dipole Moment: [D]
     X:     0.3948      Y:    -6.5913      Z:    -0.9616     Total:     6.6728

*** Psi4 exiting successfully. Buy a developer a beer!
