                               Psi4 1.4a3.dev225

  ==> Input File <==

--------------------------------------------------------------------------
#psi4
#
memory 32 gb

molecule  {
0 1
  O        1.6617960     2.5152110     0.0229320
  N       -1.9329240    -0.4005880    -0.0147920
  N        1.9545050     0.2323110     0.0113410
  N        0.2669280    -1.4301930    -0.0208730
  N       -1.3834780     1.7915450    -0.0193170
  N        2.5221760    -2.0364130     0.0734370
  C       -0.5634760    -0.3442740    -0.0026930
  C       -0.2075923     0.9862328    -0.0145964
  C        1.1380320     1.4076430     0.0031510
  C       -2.3683130     0.9036150    -0.0164120
  C        1.5275980    -1.0721200    -0.0057920
  C       -2.7322540    -1.6127190     0.0339130
  H       -3.4247340     1.1445090    -0.0228960
  H       -2.2735910    -2.3629350    -0.6109560
  H       -2.7853950    -1.9995380     1.0543320
  H       -3.7366260    -1.3828770    -0.3245450
  H        2.9468270     0.4301980     0.1174830
  H        2.1372730    -2.9631930    -0.0801050
  H        3.3349710    -1.8642740    -0.5097710
units angstrom
no_reorient  #important for SAPT in psi4, default
symmetry c1  #important for SAPT in psi4, default
}

set PROPERTIES_ORIGIN ["COM"]
properties('MP2/aug-cc-pvtz', properties = ['dipole'])
--------------------------------------------------------------------------

    Molecular point group: c1
  Charge       = 0
  Multiplicity = 1
  Basis Set: AUG-CC-PVTZ
    Blend: AUG-CC-PVTZ
  Basis Set: (AUG-CC-PVTZ AUX)
    Blend: AUG-CC-PVTZ-JKFIT

    Orbital Energies [Eh]
    ---------------------

    Doubly Occupied:

       1A    -20.520228     2A    -15.632028     3A    -15.628366
       4A    -15.611004     5A    -15.571069     6A    -15.561494
       7A    -11.396723     8A    -11.362644     9A    -11.323004
      10A    -11.309081    11A    -11.289745    12A    -11.244888
      13A     -1.391035    14A     -1.359144    15A     -1.332909
      16A     -1.219729    17A     -1.213937    18A     -1.183524
      19A     -1.035336    20A     -0.986238    21A     -0.904857
      22A     -0.881893    23A     -0.807428    24A     -0.769774
      25A     -0.738932    26A     -0.727356    27A     -0.691341
      28A     -0.671411    29A     -0.652953    30A     -0.641918
      31A     -0.625932    32A     -0.613065    33A     -0.588675
      34A     -0.579234    35A     -0.559541    36A     -0.542035
      37A     -0.491378    38A     -0.460119    39A     -0.436456
      40A     -0.431770    41A     -0.429357    42A     -0.388317
      43A     -0.305765

  @DF-RHF Final Energy:  -578.62803478716683

   => Energetics <=

    Nuclear Repulsion Energy =            693.4207103650342106
    One-Electron Energy =               -2163.8742210152677217
    Two-Electron Energy =                 891.8254758630666856
    Total Energy =                       -578.6280347871668255
  Basis Set: (AUG-CC-PVTZ AUX)
    Blend: AUG-CC-PVTZ-RI
    Molecular point group: c1

    Geometry (in Angstrom), charge = 0, multiplicity = 1:

       Center              X                  Y                   Z               Mass
    ------------   -----------------  -----------------  -----------------  -----------------
         O            1.635972929510     2.463290866980     0.020657294624    15.994914619570
         N           -1.958747070490    -0.452508133020    -0.017066705376    14.003074004430
         N            1.928681929510     0.180390866980     0.009066294624    14.003074004430
         N            0.241104929510    -1.482113133020    -0.023147705376    14.003074004430
         N           -1.409301070490     1.739624866980    -0.021591705376    14.003074004430
         N            2.496352929510    -2.088333133020     0.071162294624    14.003074004430
         C           -0.589299070490    -0.396194133020    -0.004967705376    12.000000000000
         C           -0.233415370490     0.934312666980    -0.016871105376    12.000000000000
         C            1.112208929510     1.355722866980     0.000876294624    12.000000000000
         C           -2.394136070490     0.851694866980    -0.018686705376    12.000000000000
         C            1.501774929510    -1.124040133020    -0.008066705376    12.000000000000
         C           -2.758077070490    -1.664639133020     0.031638294624    12.000000000000
         H           -3.450557070490     1.092588866980    -0.025170705376     1.007825032230
         H           -2.299414070490    -2.414855133020    -0.613230705376     1.007825032230
         H           -2.811218070490    -2.051458133020     1.052057294624     1.007825032230
         H           -3.762449070490    -1.434797133020    -0.326819705376     1.007825032230
         H            2.921003929510     0.378277866980     0.115208294624     1.007825032230
         H            2.111449929510    -3.015113133020    -0.082379705376     1.007825032230
         H            3.309147929510    -1.916194133020    -0.512045705376     1.007825032230

  Basis Set: AUG-CC-PVTZ
    Blend: AUG-CC-PVTZ
  Basis Set: (AUG-CC-PVTZ AUX)
    Blend: AUG-CC-PVTZ-JKFIT
	 Reference Energy          =    -578.6280347871668255 [Eh]
	 Singles Energy            =      -0.0000000000000000 [Eh]
	 Same-Spin Energy          =      -0.6155729943390365 [Eh]
	 Opposite-Spin Energy      =      -1.8198051830265045 [Eh]
	 Correlation Energy        =      -2.4353781773655410 [Eh]
	 Total Energy              =    -581.0634129645324037 [Eh]

	 ================> DF-SCS-MP2 Energies <==================
	-----------------------------------------------------------
	 SCS Same-Spin Scale       =       0.3333333333333333 [-]
	 SCS Opposite-Spin Scale   =       1.2000000000000000 [-]
	 SCS Same-Spin Energy      =      -0.2051909981130121 [Eh]
	 SCS Opposite-Spin Energy  =      -2.1837662196318055 [Eh]
	 SCS Correlation Energy    =      -2.3889572177448177 [Eh]
	 SCS Total Energy          =    -581.0169920049116854 [Eh]
	-----------------------------------------------------------

  Dipole Moment: [D]
     X:    -0.5509      Y:    -6.8108      Z:    -0.8521     Total:     6.8860

*** Psi4 exiting successfully. Buy a developer a beer!
