                               Psi4 1.3.2 release

  ==> Input File <==

--------------------------------------------------------------------------
#psi4
#
memory 32 gb

molecule  {
0 1
  O       -1.4697740     2.5644010     0.0803940
  N        1.9191590    -0.5831280    -0.0556370
  N       -1.9102790     0.3061000     0.0485010
  N       -0.3427170    -1.4672350    -0.0387560
  N        1.4783542     1.7017994    -0.0077200
  N       -2.6294290    -1.9169300     0.1110730
  C        0.5576980    -0.4369160    -0.0295360
  C        0.3337570     0.9396730    -0.0094060
  C       -0.9949156     1.4940054     0.0369645
  C        2.4390620     0.6894910    -0.0699270
  C       -1.5730580    -1.0260450     0.0187980
  C        2.6353690    -1.8453210    -0.0655260
  H        3.5092610     0.8590810    -0.0866130
  H        2.3729340    -2.4304260     0.8177420
  H        2.3794720    -2.4140780    -0.9605130
  H        3.7041390    -1.6305860    -0.0592400
  H       -2.8879820     0.5691470     0.1693100
  H       -2.3258040    -2.8676930    -0.0642460
  H       -3.4596940    -1.6726380    -0.4173570
units angstrom
no_reorient  #important for SAPT in psi4, default
symmetry c1  #important for SAPT in psi4, default
}

set PROPERTIES_ORIGIN ["COM"]
properties('MP2/aug-cc-pvtz', properties = ['dipole'])
--------------------------------------------------------------------------

    Molecular point group: c1
  Charge       = 0
  Multiplicity = 1
  Basis Set: AUG-CC-PVTZ
    Blend: AUG-CC-PVTZ
  Basis Set: (AUG-CC-PVTZ AUX)
    Blend: AUG-CC-PVTZ-JKFIT

    Orbital Energies [Eh]
    ---------------------

    Doubly Occupied:

       1A    -20.537155     2A    -15.639656     3A    -15.614224
       4A    -15.604145     5A    -15.568295     6A    -15.563802
       7A    -11.387999     8A    -11.365910     9A    -11.318148
      10A    -11.314660    11A    -11.291342    12A    -11.247307
      13A     -1.419547    14A     -1.363359    15A     -1.328018
      16A     -1.209190    17A     -1.203888    18A     -1.182305
      19A     -1.020006    20A     -0.990540    21A     -0.897231
      22A     -0.866376    23A     -0.803491    24A     -0.768538
      25A     -0.725903    26A     -0.722437    27A     -0.688583
      28A     -0.669319    29A     -0.656792    30A     -0.639463
      31A     -0.628107    32A     -0.621518    33A     -0.580695
      34A     -0.578378    35A     -0.561231    36A     -0.550722
      37A     -0.492866    38A     -0.454254    39A     -0.444404
      40A     -0.437313    41A     -0.426322    42A     -0.393754
      43A     -0.290467

  @DF-RHF Final Energy:  -578.61422307363773

   => Energetics <=

    Nuclear Repulsion Energy =            691.7385982674926481
    One-Electron Energy =               -2160.5703198044925557
    Two-Electron Energy =                 890.2174984633620625
    Total Energy =                       -578.6142230736377314
  Basis Set: (AUG-CC-PVTZ AUX)
    Blend: AUG-CC-PVTZ-RI
    Molecular point group: c1

    Geometry (in Angstrom), charge = 0, multiplicity = 1:

       Center              X                  Y                   Z               Mass
    ------------   -----------------  -----------------  -----------------  -----------------
         O           -1.468506608169     2.554124584338     0.080022530675    15.994914619570
         N            1.920426391831    -0.593404415662    -0.056008469325    14.003074004430
         N           -1.909011608169     0.295823584338     0.048129530675    14.003074004430
         N           -0.341449608169    -1.477511415662    -0.039127469325    14.003074004430
         N            1.479621591831     1.691522984338    -0.008091469325    14.003074004430
         N           -2.628161608169    -1.927206415662     0.110701530675    14.003074004430
         C            0.558965391831    -0.447192415662    -0.029907469325    12.000000000000
         C            0.335024391831     0.929396584338    -0.009777469325    12.000000000000
         C           -0.993648208169     1.483728984338     0.036593030675    12.000000000000
         C            2.440329391831     0.679214584338    -0.070298469325    12.000000000000
         C           -1.571790608169    -1.036321415662     0.018426530675    12.000000000000
         C            2.636636391831    -1.855597415662    -0.065897469325    12.000000000000
         H            3.510528391831     0.848804584338    -0.086984469325     1.007825032230
         H            2.374201391831    -2.440702415662     0.817370530675     1.007825032230
         H            2.380739391831    -2.424354415662    -0.960884469325     1.007825032230
         H            3.705406391831    -1.640862415662    -0.059611469325     1.007825032230
         H           -2.886714608169     0.558870584338     0.168938530675     1.007825032230
         H           -2.324536608169    -2.877969415662    -0.064617469325     1.007825032230
         H           -3.458426608169    -1.682914415662    -0.417728469325     1.007825032230

  Basis Set: AUG-CC-PVTZ
    Blend: AUG-CC-PVTZ
  Basis Set: (AUG-CC-PVTZ AUX)
    Blend: AUG-CC-PVTZ-JKFIT
	 Reference Energy          =    -578.6142230736377314 [Eh]
	 Singles Energy            =      -0.0000000000000000 [Eh]
	 Same-Spin Energy          =      -0.6174800841672472 [Eh]
	 Opposite-Spin Energy      =      -1.8230471540572541 [Eh]
	 Correlation Energy        =      -2.4405272382245013 [Eh]
	 Total Energy              =    -581.0547503118622217 [Eh]

	 ================> DF-SCS-MP2 Energies <==================
	-----------------------------------------------------------
	 SCS Same-Spin Scale       =       0.3333333333333333 [-]
	 SCS Opposite-Spin Scale   =       1.2000000000000000 [-]
	 SCS Same-Spin Energy      =      -0.2058266947224157 [Eh]
	 SCS Opposite-Spin Energy  =      -2.1876565848687051 [Eh]
	 SCS Correlation Energy    =      -2.3934832795911207 [Eh]
	 SCS Total Energy          =    -581.0077063532288548 [Eh]
	-----------------------------------------------------------

  Dipole Moment: [D]
     X:     0.0658      Y:    -6.2381      Z:    -0.9236     Total:     6.3064

*** Psi4 exiting successfully. Buy a developer a beer!
