                               Psi4 1.4a3.dev225

  ==> Input File <==

--------------------------------------------------------------------------
#psi4
#
memory 32 gb

molecule  {
0 1
  O        1.6617960     2.5152110     0.0229320
  N       -1.9329240    -0.4005880    -0.0147920
  N        1.9545050     0.2323110     0.0113410
  N        0.2669280    -1.4301930    -0.0208730
  N       -1.3834780     1.7915450    -0.0193170
  N        2.5221760    -2.0364130     0.0734370
  C       -0.5634760    -0.3442740    -0.0026930
  C       -0.2488450     1.0144850    -0.0147620
  C        1.1380320     1.4076430     0.0031510
  C       -2.3683130     0.9036150    -0.0164120
  C        1.5419336    -1.0860191    -0.0046500
  C       -2.7322540    -1.6127190     0.0339130
  H       -3.4247340     1.1445090    -0.0228960
  H       -2.2735910    -2.3629350    -0.6109560
  H       -2.7853950    -1.9995380     1.0543320
  H       -3.7366260    -1.3828770    -0.3245450
  H        2.9468270     0.4301980     0.1174830
  H        2.1372730    -2.9631930    -0.0801050
  H        3.3349710    -1.8642740    -0.5097710
units angstrom
no_reorient  #important for SAPT in psi4, default
symmetry c1  #important for SAPT in psi4, default
}

set PROPERTIES_ORIGIN ["COM"]
properties('MP2/aug-cc-pvtz', properties = ['dipole'])
--------------------------------------------------------------------------

    Molecular point group: c1
  Charge       = 0
  Multiplicity = 1
  Basis Set: AUG-CC-PVTZ
    Blend: AUG-CC-PVTZ
  Basis Set: (AUG-CC-PVTZ AUX)
    Blend: AUG-CC-PVTZ-JKFIT

    Orbital Energies [Eh]
    ---------------------

    Doubly Occupied:

       1A    -20.520585     2A    -15.631861     3A    -15.628381
       4A    -15.614155     5A    -15.569982     6A    -15.559083
       7A    -11.397443     8A    -11.364323     9A    -11.318721
      10A    -11.306176    11A    -11.288421    12A    -11.246003
      13A     -1.389362    14A     -1.359540    15A     -1.334537
      16A     -1.223667    17A     -1.213092    18A     -1.188331
      19A     -1.027975    20A     -0.985168    21A     -0.900196
      22A     -0.881862    23A     -0.806623    24A     -0.765852
      25A     -0.739781    26A     -0.733012    27A     -0.693491
      28A     -0.669675    29A     -0.649039    30A     -0.642840
      31A     -0.624775    32A     -0.609855    33A     -0.593300
      34A     -0.577664    35A     -0.561574    36A     -0.541701
      37A     -0.490508    38A     -0.461258    39A     -0.439077
      40A     -0.428435    41A     -0.427815    42A     -0.391820
      43A     -0.296858

  @DF-RHF Final Energy:  -578.62957743418042

   => Energetics <=

    Nuclear Repulsion Energy =            692.9071263029895817
    One-Electron Energy =               -2162.8857705686314148
    Two-Electron Energy =                 891.3490668314614140
    Total Energy =                       -578.6295774341804190
  Basis Set: (AUG-CC-PVTZ AUX)
    Blend: AUG-CC-PVTZ-RI
    Molecular point group: c1

    Geometry (in Angstrom), charge = 0, multiplicity = 1:

       Center              X                  Y                   Z               Mass
    ------------   -----------------  -----------------  -----------------  -----------------
         O            1.637929765198     2.462247416597     0.020586311703    15.994914619570
         N           -1.956790234802    -0.453551583403    -0.017137688297    14.003074004430
         N            1.930638765198     0.179347416597     0.008995311703    14.003074004430
         N            0.243061765198    -1.483156583403    -0.023218688297    14.003074004430
         N           -1.407344234802     1.738581416597    -0.021662688297    14.003074004430
         N            2.498309765198    -2.089376583403     0.071091311703    14.003074004430
         C           -0.587342234802    -0.397237583403    -0.005038688297    12.000000000000
         C           -0.272711234802     0.961521416597    -0.017107688297    12.000000000000
         C            1.114165765198     1.354679416597     0.000805311703    12.000000000000
         C           -2.392179234802     0.850651416597    -0.018757688297    12.000000000000
         C            1.518067365198    -1.138982683403    -0.006995688297    12.000000000000
         C           -2.756120234802    -1.665682583403     0.031567311703    12.000000000000
         H           -3.448600234802     1.091545416597    -0.025241688297     1.007825032230
         H           -2.297457234802    -2.415898583403    -0.613301688297     1.007825032230
         H           -2.809261234802    -2.052501583403     1.051986311703     1.007825032230
         H           -3.760492234802    -1.435840583403    -0.326890688297     1.007825032230
         H            2.922960765198     0.377234416597     0.115137311703     1.007825032230
         H            2.113406765198    -3.016156583403    -0.082450688297     1.007825032230
         H            3.311104765198    -1.917237583403    -0.512116688297     1.007825032230

  Basis Set: AUG-CC-PVTZ
    Blend: AUG-CC-PVTZ
  Basis Set: (AUG-CC-PVTZ AUX)
    Blend: AUG-CC-PVTZ-JKFIT
	 Reference Energy          =    -578.6295774341804190 [Eh]
	 Singles Energy            =      -0.0000000000000000 [Eh]
	 Same-Spin Energy          =      -0.6162505940268850 [Eh]
	 Opposite-Spin Energy      =      -1.8199660570422935 [Eh]
	 Correlation Energy        =      -2.4362166510691785 [Eh]
	 Total Energy              =    -581.0657940852496495 [Eh]

	 ================> DF-SCS-MP2 Energies <==================
	-----------------------------------------------------------
	 SCS Same-Spin Scale       =       0.3333333333333333 [-]
	 SCS Opposite-Spin Scale   =       1.2000000000000000 [-]
	 SCS Same-Spin Energy      =      -0.2054168646756283 [Eh]
	 SCS Opposite-Spin Energy  =      -2.1839592684507521 [Eh]
	 SCS Correlation Energy    =      -2.3893761331263805 [Eh]
	 SCS Total Energy          =    -581.0189535673067667 [Eh]
	-----------------------------------------------------------

  Dipole Moment: [D]
     X:    -0.3906      Y:    -6.8680      Z:    -0.8470     Total:     6.9311

*** Psi4 exiting successfully. Buy a developer a beer!
