                               Psi4 1.3.2 release

  ==> Input File <==

--------------------------------------------------------------------------
#psi4
#
memory 32 gb

molecule  {
0 1
  O       -1.4697740     2.5644010     0.0803940
  N        1.9191590    -0.5831280    -0.0556370
  N       -1.9102790     0.3061000     0.0485010
  N       -0.3427170    -1.4672350    -0.0387560
  N        1.5166440     1.6409000    -0.0105650
  N       -2.6294290    -1.9169300     0.1110730
  C        0.5576980    -0.4369160    -0.0295360
  C        0.3337570     0.9396730    -0.0094060
  C       -0.9840423     1.3922327     0.0289541
  C        2.4390620     0.6894910    -0.0699270
  C       -1.5730580    -1.0260450     0.0187980
  C        2.6353690    -1.8453210    -0.0655260
  H        3.5092610     0.8590810    -0.0866130
  H        2.3729340    -2.4304260     0.8177420
  H        2.3794720    -2.4140780    -0.9605130
  H        3.7041390    -1.6305860    -0.0592400
  H       -2.8967915     0.5346976     0.1677818
  H       -2.3258040    -2.8676930    -0.0642460
  H       -3.4596940    -1.6726380    -0.4173570
units angstrom
no_reorient  #important for SAPT in psi4, default
symmetry c1  #important for SAPT in psi4, default
}

set PROPERTIES_ORIGIN ["COM"]
properties('MP2/aug-cc-pvtz', properties = ['dipole'])
--------------------------------------------------------------------------

    Molecular point group: c1
  Charge       = 0
  Multiplicity = 1
  Basis Set: AUG-CC-PVTZ
    Blend: AUG-CC-PVTZ
  Basis Set: (AUG-CC-PVTZ AUX)
    Blend: AUG-CC-PVTZ-JKFIT

    Orbital Energies [Eh]
    ---------------------

    Doubly Occupied:

       1A    -20.509273     2A    -15.636702     3A    -15.631902
       4A    -15.612643     5A    -15.574119     6A    -15.562972
       7A    -11.397369     8A    -11.361984     9A    -11.325925
      10A    -11.311965    11A    -11.292135    12A    -11.247258
      13A     -1.385469    14A     -1.352764    15A     -1.322884
      16A     -1.220384    17A     -1.215850    18A     -1.194228
      19A     -1.038766    20A     -0.991866    21A     -0.909541
      22A     -0.881339    23A     -0.809096    24A     -0.770358
      25A     -0.746881    26A     -0.732907    27A     -0.693262
      28A     -0.674615    29A     -0.649181    30A     -0.646035
      31A     -0.627827    32A     -0.599087    33A     -0.593913
      34A     -0.579233    35A     -0.564072    36A     -0.532324
      37A     -0.496376    38A     -0.460909    39A     -0.437649
      40A     -0.424857    41A     -0.423690    42A     -0.395514
      43A     -0.302705

  @DF-RHF Final Energy:  -578.62327861625727

   => Energetics <=

    Nuclear Repulsion Energy =            693.8515516587640377
    One-Electron Energy =               -2164.6739974108709248
    Two-Electron Energy =                 892.1991671358496205
    Total Energy =                       -578.6232786162572665
  Basis Set: (AUG-CC-PVTZ AUX)
    Blend: AUG-CC-PVTZ-RI
    Molecular point group: c1

    Geometry (in Angstrom), charge = 0, multiplicity = 1:

       Center              X                  Y                   Z               Mass
    ------------   -----------------  -----------------  -----------------  -----------------
         O           -1.472491558521     2.566899972263     0.080855557991    15.994914619570
         N            1.916441441479    -0.580629027737    -0.055175442009    14.003074004430
         N           -1.912996558521     0.308598972263     0.048962557991    14.003074004430
         N           -0.345434558521    -1.464736027737    -0.038294442009    14.003074004430
         N            1.513926441479     1.643398972263    -0.010103442009    14.003074004430
         N           -2.632146558521    -1.914431027737     0.111534557991    14.003074004430
         C            0.554980441479    -0.434417027737    -0.029074442009    12.000000000000
         C            0.331039441479     0.942171972263    -0.008944442009    12.000000000000
         C           -0.986759858521     1.394731672263     0.029415657991    12.000000000000
         C            2.436344441479     0.691989972263    -0.069465442009    12.000000000000
         C           -1.575775558521    -1.023546027737     0.019259557991    12.000000000000
         C            2.632651441479    -1.842822027737    -0.065064442009    12.000000000000
         H            3.506543441479     0.861579972263    -0.086151442009     1.007825032230
         H            2.370216441479    -2.427927027737     0.818203557991     1.007825032230
         H            2.376754441479    -2.411579027737    -0.960051442009     1.007825032230
         H            3.701421441479    -1.628087027737    -0.058778442009     1.007825032230
         H           -2.899509058521     0.537196572263     0.168243357991     1.007825032230
         H           -2.328521558521    -2.865194027737    -0.063784442009     1.007825032230
         H           -3.462411558521    -1.670139027737    -0.416895442009     1.007825032230

  Basis Set: AUG-CC-PVTZ
    Blend: AUG-CC-PVTZ
  Basis Set: (AUG-CC-PVTZ AUX)
    Blend: AUG-CC-PVTZ-JKFIT
	 Reference Energy          =    -578.6232786162572665 [Eh]
	 Singles Energy            =      -0.0000000000000000 [Eh]
	 Same-Spin Energy          =      -0.6169874323201392 [Eh]
	 Opposite-Spin Energy      =      -1.8215340374863345 [Eh]
	 Correlation Energy        =      -2.4385214698064734 [Eh]
	 Total Energy              =    -581.0618000860637267 [Eh]

	 ================> DF-SCS-MP2 Energies <==================
	-----------------------------------------------------------
	 SCS Same-Spin Scale       =       0.3333333333333333 [-]
	 SCS Opposite-Spin Scale   =       1.2000000000000000 [-]
	 SCS Same-Spin Energy      =      -0.2056624774400464 [Eh]
	 SCS Opposite-Spin Energy  =      -2.1858408449836011 [Eh]
	 SCS Correlation Energy    =      -2.3915033224236475 [Eh]
	 SCS Total Energy          =    -581.0147819386809260 [Eh]
	-----------------------------------------------------------

  Dipole Moment: [D]
     X:     0.2502      Y:    -7.1848      Z:    -0.9567     Total:     7.2526

*** Psi4 exiting successfully. Buy a developer a beer!
