                               Psi4 1.3.2 release

  ==> Input File <==

--------------------------------------------------------------------------
#psi4
#
memory 32 gb

molecule  {
0 1
  O       -1.4697740     2.5644010     0.0803940
  N        1.9191590    -0.5831280    -0.0556370
  N       -1.9102790     0.3061000     0.0485010
  N       -0.3427170    -1.4672350    -0.0387560
  N        1.5166440     1.6409000    -0.0105650
  N       -2.6294290    -1.9169300     0.1110730
  C        0.5576980    -0.4369160    -0.0295360
  C        0.3337570     0.9396730    -0.0094060
  C       -1.0221650     1.4237120     0.0351730
  C        2.2999848     0.8329393    -0.0609767
  C       -1.5730580    -1.0260450     0.0187980
  C        2.6353690    -1.8453210    -0.0655260
  H        3.5092610     0.8590810    -0.0866130
  H        2.3729340    -2.4304260     0.8177420
  H        2.3794720    -2.4140780    -0.9605130
  H        3.7041390    -1.6305860    -0.0592400
  H       -2.8879820     0.5691470     0.1693100
  H       -2.3258040    -2.8676930    -0.0642460
  H       -3.4596940    -1.6726380    -0.4173570
units angstrom
no_reorient  #important for SAPT in psi4, default
symmetry c1  #important for SAPT in psi4, default
}

set PROPERTIES_ORIGIN ["COM"]
properties('MP2/aug-cc-pvtz', properties = ['dipole'])
--------------------------------------------------------------------------

    Molecular point group: c1
  Charge       = 0
  Multiplicity = 1
  Basis Set: AUG-CC-PVTZ
    Blend: AUG-CC-PVTZ
  Basis Set: (AUG-CC-PVTZ AUX)
    Blend: AUG-CC-PVTZ-JKFIT

    Orbital Energies [Eh]
    ---------------------

    Doubly Occupied:

       1A    -20.516430     2A    -15.628815     3A    -15.613108
       4A    -15.612643     5A    -15.571179     6A    -15.550766
       7A    -11.399811     8A    -11.361576     9A    -11.325665
      10A    -11.303816    11A    -11.284743    12A    -11.246241
      13A     -1.397958    14A     -1.373531    15A     -1.340027
      16A     -1.250598    17A     -1.219403    18A     -1.196972
      19A     -1.042038    20A     -0.976595    21A     -0.891338
      22A     -0.877445    23A     -0.801205    24A     -0.768818
      25A     -0.748678    26A     -0.725500    27A     -0.691176
      28A     -0.670115    29A     -0.646047    30A     -0.637609
      31A     -0.624627    32A     -0.612452    33A     -0.585354
      34A     -0.581615    35A     -0.571935    36A     -0.540946
      37A     -0.488120    38A     -0.473723    39A     -0.438255
      40A     -0.434703    41A     -0.428794    42A     -0.392921
      43A     -0.312586

  @DF-RHF Final Energy:  -578.57537371768126

   => Energetics <=

    Nuclear Repulsion Energy =            696.1846339079573909
    One-Electron Energy =               -2169.2082614490773267
    Two-Electron Energy =                 894.4482538234385629
    Total Energy =                       -578.5753737176812592
  Basis Set: (AUG-CC-PVTZ AUX)
    Blend: AUG-CC-PVTZ-RI
    Molecular point group: c1

    Geometry (in Angstrom), charge = 0, multiplicity = 1:

       Center              X                  Y                   Z               Mass
    ------------   -----------------  -----------------  -----------------  -----------------
         O           -1.459663160027     2.553972644278     0.079743447661    15.994914619570
         N            1.929269839973    -0.593556355722    -0.056287552339    14.003074004430
         N           -1.900168160027     0.295671644278     0.047850447661    14.003074004430
         N           -0.332606160027    -1.477663355722    -0.039406552339    14.003074004430
         N            1.526754839973     1.630471644278    -0.011215552339    14.003074004430
         N           -2.619318160027    -1.927358355722     0.110422447661    14.003074004430
         C            0.567808839973    -0.447344355722    -0.030186552339    12.000000000000
         C            0.343867839973     0.929244644278    -0.010056552339    12.000000000000
         C           -1.012054160027     1.413283644278     0.034522447661    12.000000000000
         C            2.310095639973     0.822510944278    -0.061627252339    12.000000000000
         C           -1.562947160027    -1.036473355722     0.018147447661    12.000000000000
         C            2.645479839973    -1.855749355722    -0.066176552339    12.000000000000
         H            3.519371839973     0.848652644278    -0.087263552339     1.007825032230
         H            2.383044839973    -2.440854355722     0.817091447661     1.007825032230
         H            2.389582839973    -2.424506355722    -0.961163552339     1.007825032230
         H            3.714249839973    -1.641014355722    -0.059890552339     1.007825032230
         H           -2.877871160027     0.558718644278     0.168659447661     1.007825032230
         H           -2.315693160027    -2.878121355722    -0.064896552339     1.007825032230
         H           -3.449583160027    -1.683066355722    -0.418007552339     1.007825032230

  Basis Set: AUG-CC-PVTZ
    Blend: AUG-CC-PVTZ
  Basis Set: (AUG-CC-PVTZ AUX)
    Blend: AUG-CC-PVTZ-JKFIT
	 Reference Energy          =    -578.5753737176812592 [Eh]
	 Singles Energy            =      -0.0000000000000000 [Eh]
	 Same-Spin Energy          =      -0.6119831654180469 [Eh]
	 Opposite-Spin Energy      =      -1.8127822989202400 [Eh]
	 Correlation Energy        =      -2.4247654643382868 [Eh]
	 Total Energy              =    -581.0001391820195522 [Eh]

	 ================> DF-SCS-MP2 Energies <==================
	-----------------------------------------------------------
	 SCS Same-Spin Scale       =       0.3333333333333333 [-]
	 SCS Opposite-Spin Scale   =       1.2000000000000000 [-]
	 SCS Same-Spin Energy      =      -0.2039943884726823 [Eh]
	 SCS Opposite-Spin Energy  =      -2.1753387587042878 [Eh]
	 SCS Correlation Energy    =      -2.3793331471769701 [Eh]
	 SCS Total Energy          =    -580.9547068648582808 [Eh]
	-----------------------------------------------------------

  Dipole Moment: [D]
     X:    -0.2285      Y:    -6.3052      Z:    -0.9257     Total:     6.3769

*** Psi4 exiting successfully. Buy a developer a beer!
