                               Psi4 1.3.2 release

  ==> Input File <==

--------------------------------------------------------------------------
#psi4
#
memory 32 gb

molecule  {
0 1
  O       -1.4697740     2.5644010     0.0803940
  N        1.9191590    -0.5831280    -0.0556370
  N       -1.9102790     0.3061000     0.0485010
  N       -0.3427170    -1.4672350    -0.0387560
  N        1.5166440     1.6409000    -0.0105650
  N       -2.6294290    -1.9169300     0.1110730
  C        0.5486809    -0.4291104    -0.0289407
  C        0.3337570     0.9396730    -0.0094060
  C       -1.0221650     1.4237120     0.0351730
  C        2.4390620     0.6894910    -0.0699270
  C       -1.5691469    -1.0153222     0.0190751
  C        2.6353690    -1.8453210    -0.0655260
  H        3.5092610     0.8590810    -0.0866130
  H        2.3729340    -2.4304260     0.8177420
  H        2.3794720    -2.4140780    -0.9605130
  H        3.7041390    -1.6305860    -0.0592400
  H       -2.8879820     0.5691470     0.1693100
  H       -2.3258040    -2.8676930    -0.0642460
  H       -3.4596940    -1.6726380    -0.4173570
units angstrom
no_reorient  #important for SAPT in psi4, default
symmetry c1  #important for SAPT in psi4, default
}

set PROPERTIES_ORIGIN ["COM"]
properties('MP2/aug-cc-pvtz', properties = ['dipole'])
--------------------------------------------------------------------------

    Molecular point group: c1
  Charge       = 0
  Multiplicity = 1
  Basis Set: AUG-CC-PVTZ
    Blend: AUG-CC-PVTZ
  Basis Set: (AUG-CC-PVTZ AUX)
    Blend: AUG-CC-PVTZ-JKFIT

    Orbital Energies [Eh]
    ---------------------

    Doubly Occupied:

       1A    -20.522170     2A    -15.631825     3A    -15.631007
       4A    -15.609247     5A    -15.571473     6A    -15.559028
       7A    -11.395707     8A    -11.365311     9A    -11.318820
      10A    -11.307984    11A    -11.288925    12A    -11.247206
      13A     -1.392174    14A     -1.359706    15A     -1.334041
      16A     -1.219393    17A     -1.215299    18A     -1.190505
      19A     -1.030809    20A     -0.985692    21A     -0.901700
      22A     -0.883097    23A     -0.808078    24A     -0.767674
      25A     -0.741620    26A     -0.727058    27A     -0.691418
      28A     -0.670635    29A     -0.650888    30A     -0.640311
      31A     -0.626673    32A     -0.611420    33A     -0.594246
      34A     -0.576953    35A     -0.560488    36A     -0.541333
      37A     -0.495557    38A     -0.458690    39A     -0.441163
      40A     -0.430551    41A     -0.429973    42A     -0.392466
      43A     -0.299887

  @DF-RHF Final Energy:  -578.63061416152084

   => Energetics <=

    Nuclear Repulsion Energy =            693.6410110797027073
    One-Electron Energy =               -2164.3068504413322444
    Two-Electron Energy =                 892.0352252001085844
    Total Energy =                       -578.6306141615208389
  Basis Set: (AUG-CC-PVTZ AUX)
    Blend: AUG-CC-PVTZ-RI
    Molecular point group: c1

    Geometry (in Angstrom), charge = 0, multiplicity = 1:

       Center              X                  Y                   Z               Mass
    ------------   -----------------  -----------------  -----------------  -----------------
         O           -1.469402679713     2.563054147058     0.080330699742    15.994914619570
         N            1.919530320287    -0.584474852942    -0.055700300258    14.003074004430
         N           -1.909907679713     0.304753147058     0.048437699742    14.003074004430
         N           -0.342345679713    -1.468581852942    -0.038819300258    14.003074004430
         N            1.517015320287     1.639553147058    -0.010628300258    14.003074004430
         N           -2.629057679713    -1.918276852942     0.111009699742    14.003074004430
         C            0.549052220287    -0.430457252942    -0.029004000258    12.000000000000
         C            0.334128320287     0.938326147058    -0.009469300258    12.000000000000
         C           -1.021793679713     1.422365147058     0.035109699742    12.000000000000
         C            2.439433320287     0.688144147058    -0.069990300258    12.000000000000
         C           -1.568775579713    -1.016669052942     0.019011799742    12.000000000000
         C            2.635740320287    -1.846667852942    -0.065589300258    12.000000000000
         H            3.509632320287     0.857734147058    -0.086676300258     1.007825032230
         H            2.373305320287    -2.431772852942     0.817678699742     1.007825032230
         H            2.379843320287    -2.415424852942    -0.960576300258     1.007825032230
         H            3.704510320287    -1.631932852942    -0.059303300258     1.007825032230
         H           -2.887610679713     0.567800147058     0.169246699742     1.007825032230
         H           -2.325432679713    -2.869039852942    -0.064309300258     1.007825032230
         H           -3.459322679713    -1.673984852942    -0.417420300258     1.007825032230

  Basis Set: AUG-CC-PVTZ
    Blend: AUG-CC-PVTZ
  Basis Set: (AUG-CC-PVTZ AUX)
    Blend: AUG-CC-PVTZ-JKFIT
	 Reference Energy          =    -578.6306141615208389 [Eh]
	 Singles Energy            =      -0.0000000000000000 [Eh]
	 Same-Spin Energy          =      -0.6159315276384750 [Eh]
	 Opposite-Spin Energy      =      -1.8197967582972367 [Eh]
	 Correlation Energy        =      -2.4357282859357117 [Eh]
	 Total Energy              =    -581.0663424474565772 [Eh]

	 ================> DF-SCS-MP2 Energies <==================
	-----------------------------------------------------------
	 SCS Same-Spin Scale       =       0.3333333333333333 [-]
	 SCS Opposite-Spin Scale   =       1.2000000000000000 [-]
	 SCS Same-Spin Energy      =      -0.2053105092128250 [Eh]
	 SCS Opposite-Spin Energy  =      -2.1837561099566840 [Eh]
	 SCS Correlation Energy    =      -2.3890666191695091 [Eh]
	 SCS Total Energy          =    -581.0196807806903507 [Eh]
	-----------------------------------------------------------

  Dipole Moment: [D]
     X:    -0.0128      Y:    -6.7055      Z:    -0.9378     Total:     6.7708

*** Psi4 exiting successfully. Buy a developer a beer!
