                               Psi4 1.3.2 release

  ==> Input File <==

--------------------------------------------------------------------------
#psi4
#
memory 32 gb

molecule  {
0 1
  O       -1.4697740     2.5644010     0.0803940
  N        1.9191590    -0.5831280    -0.0556370
  N       -1.9102790     0.3061000     0.0485010
  N       -0.3427170    -1.4672350    -0.0387560
  N        1.5516916     1.5780786    -0.0134069
  N       -2.6294290    -1.9169300     0.1110730
  C        0.5576980    -0.4369160    -0.0295360
  C        0.3337570     0.9396730    -0.0094060
  C       -1.0456979     1.3520919     0.0332593
  C        2.4390620     0.6894910    -0.0699270
  C       -1.5730580    -1.0260450     0.0187980
  C        2.6353690    -1.8453210    -0.0655260
  H        3.5092610     0.8590810    -0.0866130
  H        2.3729340    -2.4304260     0.8177420
  H        2.3794720    -2.4140780    -0.9605130
  H        3.7041390    -1.6305860    -0.0592400
  H       -2.8879820     0.5691470     0.1693100
  H       -2.3258040    -2.8676930    -0.0642460
  H       -3.4596940    -1.6726380    -0.4173570
units angstrom
no_reorient  #important for SAPT in psi4, default
symmetry c1  #important for SAPT in psi4, default
}

set PROPERTIES_ORIGIN ["COM"]
properties('MP2/aug-cc-pvtz', properties = ['dipole'])
--------------------------------------------------------------------------

    Molecular point group: c1
  Charge       = 0
  Multiplicity = 1
  Basis Set: AUG-CC-PVTZ
    Blend: AUG-CC-PVTZ
  Basis Set: (AUG-CC-PVTZ AUX)
    Blend: AUG-CC-PVTZ-JKFIT

    Orbital Energies [Eh]
    ---------------------

    Doubly Occupied:

       1A    -20.504930     2A    -15.641781     3A    -15.626146
       4A    -15.616647     5A    -15.577939     6A    -15.550653
       7A    -11.403140     8A    -11.362546     9A    -11.320351
      10A    -11.299187    11A    -11.287339    12A    -11.249087
      13A     -1.393169    14A     -1.360450    15A     -1.317936
      16A     -1.228706    17A     -1.226265    18A     -1.197410
      19A     -1.039082    20A     -0.982693    21A     -0.909543
      22A     -0.896312    23A     -0.815269    24A     -0.765027
      25A     -0.755186    26A     -0.736228    27A     -0.698179
      28A     -0.674863    29A     -0.648690    30A     -0.644701
      31A     -0.633774    32A     -0.611767    33A     -0.587189
      34A     -0.573521    35A     -0.566023    36A     -0.536266
      37A     -0.494598    38A     -0.464470    39A     -0.431362
      40A     -0.424652    41A     -0.416432    42A     -0.392628
      43A     -0.305861

  @DF-RHF Final Energy:  -578.62154136562458

   => Energetics <=

    Nuclear Repulsion Energy =            695.4724274362467895
    One-Electron Energy =               -2167.8519359459010047
    Two-Electron Energy =                 893.7579671440296352
    Total Energy =                       -578.6215413656245801
  Basis Set: (AUG-CC-PVTZ AUX)
    Blend: AUG-CC-PVTZ-RI
    Molecular point group: c1

    Geometry (in Angstrom), charge = 0, multiplicity = 1:

       Center              X                  Y                   Z               Mass
    ------------   -----------------  -----------------  -----------------  -----------------
         O           -1.471036286102     2.574937187084     0.080774334125    15.994914619570
         N            1.917896713898    -0.572591812916    -0.055256665875    14.003074004430
         N           -1.911541286102     0.316636187084     0.048881334125    14.003074004430
         N           -0.343979286102    -1.456698812916    -0.038375665875    14.003074004430
         N            1.550429313898     1.588614787084    -0.013026565875    14.003074004430
         N           -2.630691286102    -1.906393812916     0.111453334125    14.003074004430
         C            0.556435713898    -0.426379812916    -0.029155665875    12.000000000000
         C            0.332494713898     0.950209187084    -0.009025665875    12.000000000000
         C           -1.046960186102     1.362628087084     0.033639634125    12.000000000000
         C            2.437799713898     0.700027187084    -0.069546665875    12.000000000000
         C           -1.574320286102    -1.015508812916     0.019178334125    12.000000000000
         C            2.634106713898    -1.834784812916    -0.065145665875    12.000000000000
         H            3.507998713898     0.869617187084    -0.086232665875     1.007825032230
         H            2.371671713898    -2.419889812916     0.818122334125     1.007825032230
         H            2.378209713898    -2.403541812916    -0.960132665875     1.007825032230
         H            3.702876713898    -1.620049812916    -0.058859665875     1.007825032230
         H           -2.889244286102     0.579683187084     0.169690334125     1.007825032230
         H           -2.327066286102    -2.857156812916    -0.063865665875     1.007825032230
         H           -3.460956286102    -1.662101812916    -0.416976665875     1.007825032230

  Basis Set: AUG-CC-PVTZ
    Blend: AUG-CC-PVTZ
  Basis Set: (AUG-CC-PVTZ AUX)
    Blend: AUG-CC-PVTZ-JKFIT
	 Reference Energy          =    -578.6215413656245801 [Eh]
	 Singles Energy            =      -0.0000000000000000 [Eh]
	 Same-Spin Energy          =      -0.6153626716001310 [Eh]
	 Opposite-Spin Energy      =      -1.8177269188886751 [Eh]
	 Correlation Energy        =      -2.4330895904888061 [Eh]
	 Total Energy              =    -581.0546309561134422 [Eh]

	 ================> DF-SCS-MP2 Energies <==================
	-----------------------------------------------------------
	 SCS Same-Spin Scale       =       0.3333333333333333 [-]
	 SCS Opposite-Spin Scale   =       1.2000000000000000 [-]
	 SCS Same-Spin Energy      =      -0.2051208905333770 [Eh]
	 SCS Opposite-Spin Energy  =      -2.1812723026664100 [Eh]
	 SCS Correlation Energy    =      -2.3863931931997868 [Eh]
	 SCS Total Energy          =    -581.0079345588243314 [Eh]
	-----------------------------------------------------------

  Dipole Moment: [D]
     X:    -0.0694      Y:    -7.2716      Z:    -0.9499     Total:     7.3337

*** Psi4 exiting successfully. Buy a developer a beer!
