                               Psi4 1.3.2 release

  ==> Input File <==

--------------------------------------------------------------------------
#psi4
#
memory 32 gb

molecule  {
0 1
  O       -1.4697740     2.5644010     0.0803940
  N        1.9191590    -0.5831280    -0.0556370
  N       -1.9102790     0.3061000     0.0485010
  N       -0.3427170    -1.4672350    -0.0387560
  N        1.4783289     1.7018393    -0.0094239
  N       -2.6294290    -1.9169300     0.1110730
  C        0.4853412    -0.4467574    -0.0290291
  C        0.3337570     0.9396730    -0.0094060
  C       -1.0221650     1.4237120     0.0351730
  C        2.4390620     0.6894910    -0.0699270
  C       -1.5730580    -1.0260450     0.0187980
  C        2.6353690    -1.8453210    -0.0655260
  H        3.5092610     0.8590810    -0.0866130
  H        2.3729340    -2.4304260     0.8177420
  H        2.3794720    -2.4140780    -0.9605130
  H        3.7041390    -1.6305860    -0.0592400
  H       -2.8879820     0.5691470     0.1693100
  H       -2.3258040    -2.8676930    -0.0642460
  H       -3.4596940    -1.6726380    -0.4173570
units angstrom
no_reorient  #important for SAPT in psi4, default
symmetry c1  #important for SAPT in psi4, default
}

set PROPERTIES_ORIGIN ["COM"]
properties('MP2/aug-cc-pvtz', properties = ['dipole'])
--------------------------------------------------------------------------

    Molecular point group: c1
  Charge       = 0
  Multiplicity = 1
  Basis Set: AUG-CC-PVTZ
    Blend: AUG-CC-PVTZ
  Basis Set: (AUG-CC-PVTZ AUX)
    Blend: AUG-CC-PVTZ-JKFIT

    Orbital Energies [Eh]
    ---------------------

    Doubly Occupied:

       1A    -20.519699     2A    -15.633347     3A    -15.632478
       4A    -15.613035     5A    -15.574592     6A    -15.565036
       7A    -11.399449     8A    -11.361171     9A    -11.320372
      10A    -11.318777    11A    -11.287525    12A    -11.250046
      13A     -1.392345    14A     -1.353476    15A     -1.326198
      16A     -1.228854    17A     -1.221094    18A     -1.180368
      19A     -1.022861    20A     -0.981961    21A     -0.900558
      22A     -0.886262    23A     -0.810510    24A     -0.767775
      25A     -0.735286    26A     -0.726242    27A     -0.693092
      28A     -0.667126    29A     -0.652428    30A     -0.640429
      31A     -0.628565    32A     -0.610366    33A     -0.578818
      34A     -0.569845    35A     -0.554305    36A     -0.541222
      37A     -0.501464    38A     -0.464688    39A     -0.445738
      40A     -0.431971    41A     -0.429074    42A     -0.389576
      43A     -0.288549

  @DF-RHF Final Energy:  -578.60897583644044

   => Energetics <=

    Nuclear Repulsion Energy =            692.2217183099263593
    One-Electron Energy =               -2161.4682446144929600
    Two-Electron Energy =                 890.6375504681260509
    Total Energy =                       -578.6089758364404361
  Basis Set: (AUG-CC-PVTZ AUX)
    Blend: AUG-CC-PVTZ-RI
    Molecular point group: c1

    Geometry (in Angstrom), charge = 0, multiplicity = 1:

       Center              X                  Y                   Z               Mass
    ------------   -----------------  -----------------  -----------------  -----------------
         O           -1.461263229838     2.559946887847     0.080260467388    15.994914619570
         N            1.927669770162    -0.587582112153    -0.055770532612    14.003074004430
         N           -1.901768229838     0.301645887847     0.048367467388    14.003074004430
         N           -0.334206229838    -1.471689112153    -0.038889532612    14.003074004430
         N            1.486839670162     1.697385187847    -0.009557432612    14.003074004430
         N           -2.620918229838    -1.921384112153     0.110939467388    14.003074004430
         C            0.493851970162    -0.451211512153    -0.029162632612    12.000000000000
         C            0.342267770162     0.935218887847    -0.009539532612    12.000000000000
         C           -1.013654229838     1.419257887847     0.035039467388    12.000000000000
         C            2.447572770162     0.685036887847    -0.070060532612    12.000000000000
         C           -1.564547229838    -1.030499112153     0.018664467388    12.000000000000
         C            2.643879770162    -1.849775112153    -0.065659532612    12.000000000000
         H            3.517771770162     0.854626887847    -0.086746532612     1.007825032230
         H            2.381444770162    -2.434880112153     0.817608467388     1.007825032230
         H            2.387982770162    -2.418532112153    -0.960646532612     1.007825032230
         H            3.712649770162    -1.635040112153    -0.059373532612     1.007825032230
         H           -2.879471229838     0.564692887847     0.169176467388     1.007825032230
         H           -2.317293229838    -2.872147112153    -0.064379532612     1.007825032230
         H           -3.451183229838    -1.677092112153    -0.417490532612     1.007825032230

  Basis Set: AUG-CC-PVTZ
    Blend: AUG-CC-PVTZ
  Basis Set: (AUG-CC-PVTZ AUX)
    Blend: AUG-CC-PVTZ-JKFIT
	 Reference Energy          =    -578.6089758364404361 [Eh]
	 Singles Energy            =      -0.0000000000000000 [Eh]
	 Same-Spin Energy          =      -0.6191428658342922 [Eh]
	 Opposite-Spin Energy      =      -1.8255595964040685 [Eh]
	 Correlation Energy        =      -2.4447024622383609 [Eh]
	 Total Energy              =    -581.0536782986788467 [Eh]

	 ================> DF-SCS-MP2 Energies <==================
	-----------------------------------------------------------
	 SCS Same-Spin Scale       =       0.3333333333333333 [-]
	 SCS Opposite-Spin Scale   =       1.2000000000000000 [-]
	 SCS Same-Spin Energy      =      -0.2063809552780974 [Eh]
	 SCS Opposite-Spin Energy  =      -2.1906715156848819 [Eh]
	 SCS Correlation Energy    =      -2.3970524709629792 [Eh]
	 SCS Total Energy          =    -581.0060283074034260 [Eh]
	-----------------------------------------------------------

  Dipole Moment: [D]
     X:    -0.2746      Y:    -7.0027      Z:    -0.9348     Total:     7.0702

*** Psi4 exiting successfully. Buy a developer a beer!
