                               Psi4 1.3.2 release

  ==> Input File <==

--------------------------------------------------------------------------
#psi4
#
memory 32 gb

molecule  {
0 1
  O       -1.4697740     2.5644010     0.0803940
  N        1.9163951    -0.6068692    -0.0558655
  N       -1.9102790     0.3061000     0.0485010
  N       -0.3427170    -1.4672350    -0.0387560
  N        1.5166440     1.6409000    -0.0105650
  N       -2.6294290    -1.9169300     0.1110730
  C        0.5576980    -0.4369160    -0.0295360
  C        0.3097677     0.9355496    -0.0090245
  C       -1.0221650     1.4237120     0.0351730
  C        2.4390620     0.6894910    -0.0699270
  C       -1.5730580    -1.0260450     0.0187980
  C        2.6353690    -1.8453210    -0.0655260
  H        3.5092610     0.8590810    -0.0866130
  H        2.3729340    -2.4304260     0.8177420
  H        2.3794720    -2.4140780    -0.9605130
  H        3.7041390    -1.6305860    -0.0592400
  H       -2.8879820     0.5691470     0.1693100
  H       -2.3258040    -2.8676930    -0.0642460
  H       -3.4596940    -1.6726380    -0.4173570
units angstrom
no_reorient  #important for SAPT in psi4, default
symmetry c1  #important for SAPT in psi4, default
}

set PROPERTIES_ORIGIN ["COM"]
properties('MP2/aug-cc-pvtz', properties = ['dipole'])
--------------------------------------------------------------------------

    Molecular point group: c1
  Charge       = 0
  Multiplicity = 1
  Basis Set: AUG-CC-PVTZ
    Blend: AUG-CC-PVTZ
  Basis Set: (AUG-CC-PVTZ AUX)
    Blend: AUG-CC-PVTZ-JKFIT

    Orbital Energies [Eh]
    ---------------------

    Doubly Occupied:

       1A    -20.519192     2A    -15.632424     3A    -15.628935
       4A    -15.611139     5A    -15.570878     6A    -15.563663
       7A    -11.396782     8A    -11.362473     9A    -11.323691
      10A    -11.310751    11A    -11.287668    12A    -11.246587
      13A     -1.390284    14A     -1.357560    15A     -1.332593
      16A     -1.219752    17A     -1.215724    18A     -1.190790
      19A     -1.031888    20A     -0.987411    21A     -0.900752
      22A     -0.882492    23A     -0.808147    24A     -0.768523
      25A     -0.739596    26A     -0.729639    27A     -0.692251
      28A     -0.671667    29A     -0.652883    30A     -0.641574
      31A     -0.627322    32A     -0.610717    33A     -0.593972
      34A     -0.577544    35A     -0.558521    36A     -0.541095
      37A     -0.493956    38A     -0.459244    39A     -0.438190
      40A     -0.430817    41A     -0.428902    42A     -0.390309
      43A     -0.301649

  @DF-RHF Final Energy:  -578.62880053549816

   => Energetics <=

    Nuclear Repulsion Energy =            693.2981132391603296
    One-Electron Energy =               -2163.6139386989398190
    Two-Electron Energy =                 891.6870249242813316
    Total Energy =                       -578.6288005354981578
  Basis Set: (AUG-CC-PVTZ AUX)
    Blend: AUG-CC-PVTZ-RI
    Molecular point group: c1

    Geometry (in Angstrom), charge = 0, multiplicity = 1:

       Center              X                  Y                   Z               Mass
    ------------   -----------------  -----------------  -----------------  -----------------
         O           -1.467795418331     2.566714954385     0.080385771981    15.994914619570
         N            1.918373681669    -0.604555245615    -0.055873728019    14.003074004430
         N           -1.908300418331     0.308413954385     0.048492771981    14.003074004430
         N           -0.340738418331    -1.464921045615    -0.038764228019    14.003074004430
         N            1.518622581669     1.643213954385    -0.010573228019    14.003074004430
         N           -2.627450418331    -1.914616045615     0.111064771981    14.003074004430
         C            0.559676581669    -0.434602045615    -0.029544228019    12.000000000000
         C            0.311746281669     0.937863554385    -0.009032728019    12.000000000000
         C           -1.020186418331     1.426025954385     0.035164771981    12.000000000000
         C            2.441040581669     0.691804954385    -0.069935228019    12.000000000000
         C           -1.571079418331    -1.023731045615     0.018789771981    12.000000000000
         C            2.637347581669    -1.843007045615    -0.065534228019    12.000000000000
         H            3.511239581669     0.861394954385    -0.086621228019     1.007825032230
         H            2.374912581669    -2.428112045615     0.817733771981     1.007825032230
         H            2.381450581669    -2.411764045615    -0.960521228019     1.007825032230
         H            3.706117581669    -1.628272045615    -0.059248228019     1.007825032230
         H           -2.886003418331     0.571460954385     0.169301771981     1.007825032230
         H           -2.323825418331    -2.865379045615    -0.064254228019     1.007825032230
         H           -3.457715418331    -1.670324045615    -0.417365228019     1.007825032230

  Basis Set: AUG-CC-PVTZ
    Blend: AUG-CC-PVTZ
  Basis Set: (AUG-CC-PVTZ AUX)
    Blend: AUG-CC-PVTZ-JKFIT
	 Reference Energy          =    -578.6288005354981578 [Eh]
	 Singles Energy            =      -0.0000000000000000 [Eh]
	 Same-Spin Energy          =      -0.6159550065433367 [Eh]
	 Opposite-Spin Energy      =      -1.8201458004505298 [Eh]
	 Correlation Energy        =      -2.4361008069938666 [Eh]
	 Total Energy              =    -581.0649013424920213 [Eh]

	 ================> DF-SCS-MP2 Energies <==================
	-----------------------------------------------------------
	 SCS Same-Spin Scale       =       0.3333333333333333 [-]
	 SCS Opposite-Spin Scale   =       1.2000000000000000 [-]
	 SCS Same-Spin Energy      =      -0.2053183355144456 [Eh]
	 SCS Opposite-Spin Energy  =      -2.1841749605406355 [Eh]
	 SCS Correlation Energy    =      -2.3894932960550812 [Eh]
	 SCS Total Energy          =    -581.0182938315532510 [Eh]
	-----------------------------------------------------------

  Dipole Moment: [D]
     X:    -0.0005      Y:    -6.7800      Z:    -0.9377     Total:     6.8445

*** Psi4 exiting successfully. Buy a developer a beer!
