                               Psi4 1.3.2 release

  ==> Input File <==

--------------------------------------------------------------------------
#psi4
#
memory 32 gb

molecule  {
0 1
  O       -1.4697740     2.5644010     0.0803940
  N        1.9191590    -0.5831280    -0.0556370
  N       -1.9102790     0.3061000     0.0485010
  N       -0.3427170    -1.4672350    -0.0387560
  N        1.5227173     1.6305520    -0.0107550
  N       -2.6294290    -1.9169300     0.1110730
  C        0.5697031    -0.4349081    -0.0296152
  C        0.3337570     0.9396730    -0.0094060
  C       -1.0221650     1.4237120     0.0351730
  C        2.4390620     0.6894910    -0.0699270
  C       -1.5730580    -1.0260450     0.0187980
  C        2.6353690    -1.8453210    -0.0655260
  H        3.5092610     0.8590810    -0.0866130
  H        2.3729340    -2.4304260     0.8177420
  H        2.3794720    -2.4140780    -0.9605130
  H        3.7041390    -1.6305860    -0.0592400
  H       -2.8879820     0.5691470     0.1693100
  H       -2.3258040    -2.8676930    -0.0642460
  H       -3.4596940    -1.6726380    -0.4173570
units angstrom
no_reorient  #important for SAPT in psi4, default
symmetry c1  #important for SAPT in psi4, default
}

set PROPERTIES_ORIGIN ["COM"]
properties('MP2/aug-cc-pvtz', properties = ['dipole'])
--------------------------------------------------------------------------

    Molecular point group: c1
  Charge       = 0
  Multiplicity = 1
  Basis Set: AUG-CC-PVTZ
    Blend: AUG-CC-PVTZ
  Basis Set: (AUG-CC-PVTZ AUX)
    Blend: AUG-CC-PVTZ-JKFIT

    Orbital Energies [Eh]
    ---------------------

    Doubly Occupied:

       1A    -20.520994     2A    -15.632724     3A    -15.628721
       4A    -15.610259     5A    -15.570256     6A    -15.558489
       7A    -11.395443     8A    -11.364714     9A    -11.318965
      10A    -11.305321    11A    -11.289752    12A    -11.246445
      13A     -1.390807    14A     -1.363311    15A     -1.333947
      16A     -1.218660    17A     -1.215214    18A     -1.191551
      19A     -1.030620    20A     -0.987331    21A     -0.901901
      22A     -0.881404    23A     -0.807350    24A     -0.766901
      25A     -0.742818    26A     -0.729190    27A     -0.692038
      28A     -0.672198    29A     -0.649855    30A     -0.641596
      31A     -0.626105    32A     -0.610391    33A     -0.596129
      34A     -0.579954    35A     -0.562349    36A     -0.541553
      37A     -0.492090    38A     -0.458457    39A     -0.439238
      40A     -0.429008    41A     -0.428138    42A     -0.393268
      43A     -0.299918

  @DF-RHF Final Energy:  -578.63196751900534

   => Energetics <=

    Nuclear Repulsion Energy =            693.6890622356086169
    One-Electron Energy =               -2164.4113120380093278
    Two-Electron Energy =                 892.0902822833953678
    Total Energy =                       -578.6319675190053431
  Basis Set: (AUG-CC-PVTZ AUX)
    Blend: AUG-CC-PVTZ-RI
    Molecular point group: c1

    Geometry (in Angstrom), charge = 0, multiplicity = 1:

       Center              X                  Y                   Z               Mass
    ------------   -----------------  -----------------  -----------------  -----------------
         O           -1.471161853154     2.565133023170     0.080415998133    15.994914619570
         N            1.917771146846    -0.582395976830    -0.055615001867    14.003074004430
         N           -1.911666853154     0.306832023170     0.048522998133    14.003074004430
         N           -0.344104853154    -1.466502976830    -0.038734001867    14.003074004430
         N            1.521329446846     1.631284023170    -0.010733001867    14.003074004430
         N           -2.630816853154    -1.916197976830     0.111094998133    14.003074004430
         C            0.568315246846    -0.434176076830    -0.029593201867    12.000000000000
         C            0.332369146846     0.940405023170    -0.009384001867    12.000000000000
         C           -1.023552853154     1.424444023170     0.035194998133    12.000000000000
         C            2.437674146846     0.690223023170    -0.069905001867    12.000000000000
         C           -1.574445853154    -1.025312976830     0.018819998133    12.000000000000
         C            2.633981146846    -1.844588976830    -0.065504001867    12.000000000000
         H            3.507873146846     0.859813023170    -0.086591001867     1.007825032230
         H            2.371546146846    -2.429693976830     0.817763998133     1.007825032230
         H            2.378084146846    -2.413345976830    -0.960491001867     1.007825032230
         H            3.702751146846    -1.629853976830    -0.059218001867     1.007825032230
         H           -2.889369853154     0.569879023170     0.169331998133     1.007825032230
         H           -2.327191853154    -2.866960976830    -0.064224001867     1.007825032230
         H           -3.461081853154    -1.671905976830    -0.417335001867     1.007825032230

  Basis Set: AUG-CC-PVTZ
    Blend: AUG-CC-PVTZ
  Basis Set: (AUG-CC-PVTZ AUX)
    Blend: AUG-CC-PVTZ-JKFIT
	 Reference Energy          =    -578.6319675190053431 [Eh]
	 Singles Energy            =      -0.0000000000000000 [Eh]
	 Same-Spin Energy          =      -0.6156241644121365 [Eh]
	 Opposite-Spin Energy      =      -1.8189776043494823 [Eh]
	 Correlation Energy        =      -2.4346017687616186 [Eh]
	 Total Energy              =    -581.0665692877669244 [Eh]

	 ================> DF-SCS-MP2 Energies <==================
	-----------------------------------------------------------
	 SCS Same-Spin Scale       =       0.3333333333333333 [-]
	 SCS Opposite-Spin Scale   =       1.2000000000000000 [-]
	 SCS Same-Spin Energy      =      -0.2052080548040455 [Eh]
	 SCS Opposite-Spin Energy  =      -2.1827731252193785 [Eh]
	 SCS Correlation Energy    =      -2.3879811800234241 [Eh]
	 SCS Total Energy          =    -581.0199486990287596 [Eh]
	-----------------------------------------------------------

  Dipole Moment: [D]
     X:     0.0322      Y:    -6.7560      Z:    -0.9380     Total:     6.8208

*** Psi4 exiting successfully. Buy a developer a beer!
