                               Psi4 1.3.2 release

  ==> Input File <==

--------------------------------------------------------------------------
#psi4
#
memory 32 gb

molecule  {
0 1
  O       -1.4697740     2.5644010     0.0803940
  N        1.9532186    -0.5655743    -0.1212474
  N       -1.9102790     0.3061000     0.0485010
  N       -0.3427170    -1.4672350    -0.0387560
  N        1.5166440     1.6409000    -0.0105650
  N       -2.6294290    -1.9169300     0.1110730
  C        0.5576980    -0.4369160    -0.0295360
  C        0.3337570     0.9396730    -0.0094060
  C       -1.0221650     1.4237120     0.0351730
  C        2.4390620     0.6894910    -0.0699270
  C       -1.5730580    -1.0260450     0.0187980
  C        2.6353690    -1.8453210    -0.0655260
  H        3.5092610     0.8590810    -0.0866130
  H        2.4082941    -2.4713492     0.7992908
  H        2.3794720    -2.4140780    -0.9605130
  H        3.7041390    -1.6305860    -0.0592400
  H       -2.8879820     0.5691470     0.1693100
  H       -2.3258040    -2.8676930    -0.0642460
  H       -3.4596940    -1.6726380    -0.4173570
units angstrom
no_reorient  #important for SAPT in psi4, default
symmetry c1  #important for SAPT in psi4, default
}

set PROPERTIES_ORIGIN ["COM"]
properties('MP2/aug-cc-pvtz', properties = ['dipole'])
--------------------------------------------------------------------------

    Molecular point group: c1
  Charge       = 0
  Multiplicity = 1
  Basis Set: AUG-CC-PVTZ
    Blend: AUG-CC-PVTZ
  Basis Set: (AUG-CC-PVTZ AUX)
    Blend: AUG-CC-PVTZ-JKFIT

    Orbital Energies [Eh]
    ---------------------

    Doubly Occupied:

       1A    -20.522226     2A    -15.634104     3A    -15.630353
       4A    -15.610767     5A    -15.572303     6A    -15.555914
       7A    -11.396175     8A    -11.365404     9A    -11.320769
      10A    -11.307023    11A    -11.289426    12A    -11.249333
      13A     -1.391051    14A     -1.360039    15A     -1.334995
      16A     -1.219630    17A     -1.215479    18A     -1.190703
      19A     -1.028275    20A     -0.987067    21A     -0.904288
      22A     -0.882388    23A     -0.807700    24A     -0.766574
      25A     -0.741591    26A     -0.728996    27A     -0.692942
      28A     -0.669536    29A     -0.654977    30A     -0.641427
      31A     -0.626988    32A     -0.613519    33A     -0.592413
      34A     -0.570237    35A     -0.560769    36A     -0.541086
      37A     -0.494069    38A     -0.460193    39A     -0.440105
      40A     -0.430172    41A     -0.428359    42A     -0.394393
      43A     -0.297641

  @DF-RHF Final Energy:  -578.62648709214261

   => Energetics <=

    Nuclear Repulsion Energy =            692.8650625660619653
    One-Electron Energy =               -2162.7402994757321721
    Two-Electron Energy =                 891.2487498175274823
    Total Energy =                       -578.6264870921426109
  Basis Set: (AUG-CC-PVTZ AUX)
    Blend: AUG-CC-PVTZ-RI
    Molecular point group: c1

    Geometry (in Angstrom), charge = 0, multiplicity = 1:

       Center              X                  Y                   Z               Mass
    ------------   -----------------  -----------------  -----------------  -----------------
         O           -1.472879174943     2.563161852863     0.086072748778    15.994914619570
         N            1.950113425057    -0.566813447137    -0.115568651222    14.003074004430
         N           -1.913384174943     0.304860852863     0.054179748778    14.003074004430
         N           -0.345822174943    -1.468474147137    -0.033077251222    14.003074004430
         N            1.513538825057     1.639660852863    -0.004886251222    14.003074004430
         N           -2.632534174943    -1.918169147137     0.116751748778    14.003074004430
         C            0.554592825057    -0.438155147137    -0.023857251222    12.000000000000
         C            0.330651825057     0.938433852863    -0.003727251222    12.000000000000
         C           -1.025270174943     1.422472852863     0.040851748778    12.000000000000
         C            2.435956825057     0.688251852863    -0.064248251222    12.000000000000
         C           -1.576163174943    -1.027284147137     0.024476748778    12.000000000000
         C            2.632263825057    -1.846560147137    -0.059847251222    12.000000000000
         H            3.506155825057     0.857841852863    -0.080934251222     1.007825032230
         H            2.405188925057    -2.472588347137     0.804969548778     1.007825032230
         H            2.376366825057    -2.415317147137    -0.954834251222     1.007825032230
         H            3.701033825057    -1.631825147137    -0.053561251222     1.007825032230
         H           -2.891087174943     0.567907852863     0.174988748778     1.007825032230
         H           -2.328909174943    -2.868932147137    -0.058567251222     1.007825032230
         H           -3.462799174943    -1.673877147137    -0.411678251222     1.007825032230

  Basis Set: AUG-CC-PVTZ
    Blend: AUG-CC-PVTZ
  Basis Set: (AUG-CC-PVTZ AUX)
    Blend: AUG-CC-PVTZ-JKFIT
	 Reference Energy          =    -578.6264870921426109 [Eh]
	 Singles Energy            =      -0.0000000000000000 [Eh]
	 Same-Spin Energy          =      -0.6163081469988287 [Eh]
	 Opposite-Spin Energy      =      -1.8202431879260443 [Eh]
	 Correlation Energy        =      -2.4365513349248733 [Eh]
	 Total Energy              =    -581.0630384270674540 [Eh]

	 ================> DF-SCS-MP2 Energies <==================
	-----------------------------------------------------------
	 SCS Same-Spin Scale       =       0.3333333333333333 [-]
	 SCS Opposite-Spin Scale   =       1.2000000000000000 [-]
	 SCS Same-Spin Energy      =      -0.2054360489996096 [Eh]
	 SCS Opposite-Spin Energy  =      -2.1842918255112531 [Eh]
	 SCS Correlation Energy    =      -2.3897278745108625 [Eh]
	 SCS Total Energy          =    -581.0162149666534788 [Eh]
	-----------------------------------------------------------

  Dipole Moment: [D]
     X:    -0.0988      Y:    -6.8018      Z:    -0.8950     Total:     6.8612

*** Psi4 exiting successfully. Buy a developer a beer!
