                               Psi4 1.3.2 release

  ==> Input File <==

--------------------------------------------------------------------------
#psi4
#
memory 32 gb

molecule  {
0 1
  O       -1.4697740     2.5644010     0.0803940
  N        1.9191590    -0.5831280    -0.0556370
  N       -1.9102790     0.3061000     0.0485010
  N       -0.3427170    -1.4672350    -0.0387560
  N        1.5403754     1.5992221    -0.0124604
  N       -2.6294290    -1.9169300     0.1110730
  C        0.5576980    -0.4369160    -0.0295360
  C        0.3337570     0.9396730    -0.0094060
  C       -1.0382707     1.3761006     0.0339105
  C        2.4390620     0.6894910    -0.0699270
  C       -1.5730580    -1.0260450     0.0187980
  C        2.6353690    -1.8453210    -0.0655260
  H        3.5092610     0.8590810    -0.0866130
  H        2.3729340    -2.4304260     0.8177420
  H        2.3794720    -2.4140780    -0.9605130
  H        3.7041390    -1.6305860    -0.0592400
  H       -2.8879820     0.5691470     0.1693100
  H       -2.3258040    -2.8676930    -0.0642460
  H       -3.4596940    -1.6726380    -0.4173570
units angstrom
no_reorient  #important for SAPT in psi4, default
symmetry c1  #important for SAPT in psi4, default
}

set PROPERTIES_ORIGIN ["COM"]
properties('MP2/aug-cc-pvtz', properties = ['dipole'])
--------------------------------------------------------------------------

    Molecular point group: c1
  Charge       = 0
  Multiplicity = 1
  Basis Set: AUG-CC-PVTZ
    Blend: AUG-CC-PVTZ
  Basis Set: (AUG-CC-PVTZ AUX)
    Blend: AUG-CC-PVTZ-JKFIT

    Orbital Energies [Eh]
    ---------------------

    Doubly Occupied:

       1A    -20.510231     2A    -15.637863     3A    -15.628389
       4A    -15.614713     5A    -15.575576     6A    -15.553658
       7A    -11.400868     8A    -11.363173     9A    -11.319927
      10A    -11.301962    11A    -11.288038    12A    -11.248123
      13A     -1.390322    14A     -1.357851    15A     -1.326005
      16A     -1.226277    17A     -1.222952    18A     -1.195314
      19A     -1.035862    20A     -0.983910    21A     -0.906125
      22A     -0.892217    23A     -0.812564    24A     -0.765019
      25A     -0.751304    26A     -0.733879    27A     -0.696071
      28A     -0.673384    29A     -0.646447    30A     -0.645912
      31A     -0.631166    32A     -0.606768    33A     -0.593295
      34A     -0.576273    35A     -0.564190    36A     -0.537136
      37A     -0.494359    38A     -0.462578    39A     -0.434522
      40A     -0.427009    41A     -0.421070    42A     -0.392552
      43A     -0.303458

  @DF-RHF Final Energy:  -578.62777749788143

   => Energetics <=

    Nuclear Repulsion Energy =            694.7627573419053988
    One-Electron Energy =               -2166.4844426672907503
    Two-Electron Energy =                 893.0939078275039265
    Total Energy =                       -578.6277774978814250
  Basis Set: (AUG-CC-PVTZ AUX)
    Blend: AUG-CC-PVTZ-RI
    Molecular point group: c1

    Geometry (in Angstrom), charge = 0, multiplicity = 1:

       Center              X                  Y                   Z               Mass
    ------------   -----------------  -----------------  -----------------  -----------------
         O           -1.470616238479     2.571398107428     0.080646697728    15.994914619570
         N            1.918316761521    -0.576130892572    -0.055384302272    14.003074004430
         N           -1.911121238479     0.313097107428     0.048753697728    14.003074004430
         N           -0.343559238479    -1.460237892572    -0.038503302272    14.003074004430
         N            1.539533161521     1.606219207428    -0.012207702272    14.003074004430
         N           -2.630271238479    -1.909932892572     0.111325697728    14.003074004430
         C            0.556855761521    -0.429918892572    -0.029283302272    12.000000000000
         C            0.332914761521     0.946670107428    -0.009153302272    12.000000000000
         C           -1.039112938479     1.383097707428     0.034163197728    12.000000000000
         C            2.438219761521     0.696488107428    -0.069674302272    12.000000000000
         C           -1.573900238479    -1.019047892572     0.019050697728    12.000000000000
         C            2.634526761521    -1.838323892572    -0.065273302272    12.000000000000
         H            3.508418761521     0.866078107428    -0.086360302272     1.007825032230
         H            2.372091761521    -2.423428892572     0.817994697728     1.007825032230
         H            2.378629761521    -2.407080892572    -0.960260302272     1.007825032230
         H            3.703296761521    -1.623588892572    -0.058987302272     1.007825032230
         H           -2.888824238479     0.576144107428     0.169562697728     1.007825032230
         H           -2.326646238479    -2.860695892572    -0.063993302272     1.007825032230
         H           -3.460536238479    -1.665640892572    -0.417104302272     1.007825032230

  Basis Set: AUG-CC-PVTZ
    Blend: AUG-CC-PVTZ
  Basis Set: (AUG-CC-PVTZ AUX)
    Blend: AUG-CC-PVTZ-JKFIT
	 Reference Energy          =    -578.6277774978814250 [Eh]
	 Singles Energy            =      -0.0000000000000000 [Eh]
	 Same-Spin Energy          =      -0.6155244560937294 [Eh]
	 Opposite-Spin Energy      =      -1.8183020064193327 [Eh]
	 Correlation Energy        =      -2.4338264625130623 [Eh]
	 Total Energy              =    -581.0616039603944500 [Eh]

	 ================> DF-SCS-MP2 Energies <==================
	-----------------------------------------------------------
	 SCS Same-Spin Scale       =       0.3333333333333333 [-]
	 SCS Opposite-Spin Scale   =       1.2000000000000000 [-]
	 SCS Same-Spin Energy      =      -0.2051748186979098 [Eh]
	 SCS Opposite-Spin Energy  =      -2.1819624077031992 [Eh]
	 SCS Correlation Energy    =      -2.3871372264011090 [Eh]
	 SCS Total Energy          =    -581.0149147242825620 [Eh]
	-----------------------------------------------------------

  Dipole Moment: [D]
     X:    -0.0524      Y:    -7.1185      Z:    -0.9460     Total:     7.1812

*** Psi4 exiting successfully. Buy a developer a beer!
