                               Psi4 1.3.2 release

  ==> Input File <==

--------------------------------------------------------------------------
#psi4
#
memory 32 gb

molecule  {
0 1
  O       -1.4697740     2.5644010     0.0803940
  N        1.9163902    -0.6068642    -0.0561486
  N       -1.9102790     0.3061000     0.0485010
  N       -0.3246020    -1.4827833    -0.0394229
  N        1.5166440     1.6409000    -0.0105650
  N       -2.6294290    -1.9169300     0.1110730
  C        0.5576980    -0.4369160    -0.0295360
  C        0.3337570     0.9396730    -0.0094060
  C       -1.0221650     1.4237120     0.0351730
  C        2.4390620     0.6894910    -0.0699270
  C       -1.5730580    -1.0260450     0.0187980
  C        2.6353690    -1.8453210    -0.0655260
  H        3.5092610     0.8590810    -0.0866130
  H        2.3729340    -2.4304260     0.8177420
  H        2.3794720    -2.4140780    -0.9605130
  H        3.7041390    -1.6305860    -0.0592400
  H       -2.8879820     0.5691470     0.1693100
  H       -2.3258040    -2.8676930    -0.0642460
  H       -3.4596940    -1.6726380    -0.4173570
units angstrom
no_reorient  #important for SAPT in psi4, default
symmetry c1  #important for SAPT in psi4, default
}

set PROPERTIES_ORIGIN ["COM"]
properties('MP2/aug-cc-pvtz', properties = ['dipole'])
--------------------------------------------------------------------------

    Molecular point group: c1
  Charge       = 0
  Multiplicity = 1
  Basis Set: AUG-CC-PVTZ
    Blend: AUG-CC-PVTZ
  Basis Set: (AUG-CC-PVTZ AUX)
    Blend: AUG-CC-PVTZ-JKFIT

    Orbital Energies [Eh]
    ---------------------

    Doubly Occupied:

       1A    -20.521249     2A    -15.632048     3A    -15.630555
       4A    -15.613147     5A    -15.573093     6A    -15.562077
       7A    -11.400833     8A    -11.364852     9A    -11.319998
      10A    -11.308905    11A    -11.286178    12A    -11.246836
      13A     -1.390145    14A     -1.357979    15A     -1.331740
      16A     -1.220758    17A     -1.215914    18A     -1.191588
      19A     -1.027677    20A     -0.985785    21A     -0.897984
      22A     -0.883686    23A     -0.806253    24A     -0.767718
      25A     -0.740991    26A     -0.729134    27A     -0.692799
      28A     -0.670423    29A     -0.651247    30A     -0.639370
      31A     -0.625483    32A     -0.610958    33A     -0.594442
      34A     -0.575640    35A     -0.558754    36A     -0.540641
      37A     -0.496070    38A     -0.459515    39A     -0.441358
      40A     -0.430297    41A     -0.429895    42A     -0.391170
      43A     -0.297384

  @DF-RHF Final Energy:  -578.62740903960889

   => Energetics <=

    Nuclear Repulsion Energy =            692.7900459194972882
    One-Electron Energy =               -2162.6097749653526989
    Two-Electron Energy =                 891.1923200062465185
    Total Energy =                       -578.6274090396088923
  Basis Set: (AUG-CC-PVTZ AUX)
    Blend: AUG-CC-PVTZ-RI
    Molecular point group: c1

    Geometry (in Angstrom), charge = 0, multiplicity = 1:

       Center              X                  Y                   Z               Mass
    ------------   -----------------  -----------------  -----------------  -----------------
         O           -1.471075753194     2.567733784053     0.080494098482    15.994914619570
         N            1.915088446806    -0.603531415947    -0.056048501518    14.003074004430
         N           -1.911580753194     0.309432784053     0.048601098482    14.003074004430
         N           -0.325903753194    -1.479450515947    -0.039322801518    14.003074004430
         N            1.515342246806     1.644232784053    -0.010464901518    14.003074004430
         N           -2.630730753194    -1.913597215947     0.111173098482    14.003074004430
         C            0.556396246806    -0.433583215947    -0.029435901518    12.000000000000
         C            0.332455246806     0.943005784053    -0.009305901518    12.000000000000
         C           -1.023466753194     1.427044784053     0.035273098482    12.000000000000
         C            2.437760246806     0.692823784053    -0.069826901518    12.000000000000
         C           -1.574359753194    -1.022712215947     0.018898098482    12.000000000000
         C            2.634067246806    -1.841988215947    -0.065425901518    12.000000000000
         H            3.507959246806     0.862413784053    -0.086512901518     1.007825032230
         H            2.371632246806    -2.427093215947     0.817842098482     1.007825032230
         H            2.378170246806    -2.410745215947    -0.960412901518     1.007825032230
         H            3.702837246806    -1.627253215947    -0.059139901518     1.007825032230
         H           -2.889283753194     0.572479784053     0.169410098482     1.007825032230
         H           -2.327105753194    -2.864360215947    -0.064145901518     1.007825032230
         H           -3.460995753194    -1.669305215947    -0.417256901518     1.007825032230

  Basis Set: AUG-CC-PVTZ
    Blend: AUG-CC-PVTZ
  Basis Set: (AUG-CC-PVTZ AUX)
    Blend: AUG-CC-PVTZ-JKFIT
	 Reference Energy          =    -578.6274090396088923 [Eh]
	 Singles Energy            =      -0.0000000000000000 [Eh]
	 Same-Spin Energy          =      -0.6164193217910843 [Eh]
	 Opposite-Spin Energy      =      -1.8208733484978199 [Eh]
	 Correlation Energy        =      -2.4372926702889042 [Eh]
	 Total Energy              =    -581.0647017098978040 [Eh]

	 ================> DF-SCS-MP2 Energies <==================
	-----------------------------------------------------------
	 SCS Same-Spin Scale       =       0.3333333333333333 [-]
	 SCS Opposite-Spin Scale   =       1.2000000000000000 [-]
	 SCS Same-Spin Energy      =      -0.2054731072636947 [Eh]
	 SCS Opposite-Spin Energy  =      -2.1850480181973837 [Eh]
	 SCS Correlation Energy    =      -2.3905211254610785 [Eh]
	 SCS Total Energy          =    -581.0179301650699699 [Eh]
	-----------------------------------------------------------

  Dipole Moment: [D]
     X:    -0.1428      Y:    -6.7149      Z:    -0.9307     Total:     6.7806

*** Psi4 exiting successfully. Buy a developer a beer!
