                               Psi4 1.3.2 release

  ==> Input File <==

--------------------------------------------------------------------------
#psi4
#
memory 32 gb

molecule  {
0 1
  O       -1.4697740     2.5644010     0.0803940
  N        1.9191590    -0.5831280    -0.0556370
  N       -1.9102790     0.3061000     0.0485010
  N       -0.3427170    -1.4672350    -0.0387560
  N        1.5166440     1.6409000    -0.0105650
  N       -2.6294290    -1.9169300     0.1110730
  C        0.5576980    -0.4369160    -0.0295360
  C        0.3337570     0.9396730    -0.0094060
  C       -1.0221650     1.4237120     0.0351730
  C        2.4390620     0.6894910    -0.0699270
  C       -1.5730580    -1.0260450     0.0187980
  C        2.6353690    -1.8453210    -0.0655260
  H        3.5092610     0.8590810    -0.0866130
  H        2.3488906    -2.4840314     0.8986641
  H        2.3794720    -2.4140780    -0.9605130
  H        3.7041390    -1.6305860    -0.0592400
  H       -2.8879820     0.5691470     0.1693100
  H       -2.3258040    -2.8676930    -0.0642460
  H       -3.4596940    -1.6726380    -0.4173570
units angstrom
no_reorient  #important for SAPT in psi4, default
symmetry c1  #important for SAPT in psi4, default
}

set PROPERTIES_ORIGIN ["COM"]
properties('MP2/aug-cc-pvtz', properties = ['dipole'])
--------------------------------------------------------------------------

    Molecular point group: c1
  Charge       = 0
  Multiplicity = 1
  Basis Set: AUG-CC-PVTZ
    Blend: AUG-CC-PVTZ
  Basis Set: (AUG-CC-PVTZ AUX)
    Blend: AUG-CC-PVTZ-JKFIT

    Orbital Energies [Eh]
    ---------------------

    Doubly Occupied:

       1A    -20.521115     2A    -15.633919     3A    -15.629482
       4A    -15.610771     5A    -15.570945     6A    -15.560171
       7A    -11.396168     8A    -11.364521     9A    -11.319494
      10A    -11.307877    11A    -11.300337    12A    -11.247366
      13A     -1.390919    14A     -1.360971    15A     -1.334230
      16A     -1.219203    17A     -1.216368    18A     -1.190594
      19A     -1.029539    20A     -0.980411    21A     -0.901379
      22A     -0.882342    23A     -0.807873    24A     -0.765478
      25A     -0.741074    26A     -0.729456    27A     -0.692235
      28A     -0.668510    29A     -0.649120    30A     -0.639085
      31A     -0.625151    32A     -0.609566    33A     -0.594123
      34A     -0.575475    35A     -0.555746    36A     -0.539022
      37A     -0.493467    38A     -0.459393    39A     -0.440211
      40A     -0.429536    41A     -0.429073    42A     -0.392095
      43A     -0.298712

  @DF-RHF Final Energy:  -578.62400928761633

   => Energetics <=

    Nuclear Repulsion Energy =            693.0312188254562216
    One-Electron Energy =               -2163.1054160407884410
    Two-Electron Energy =                 891.4501879277160015
    Total Energy =                       -578.6240092876163317
  Basis Set: (AUG-CC-PVTZ AUX)
    Blend: AUG-CC-PVTZ-RI
    Molecular point group: c1

    Geometry (in Angstrom), charge = 0, multiplicity = 1:

       Center              X                  Y                   Z               Mass
    ------------   -----------------  -----------------  -----------------  -----------------
         O           -1.469627078866     2.564728430303     0.079900042169    15.994914619570
         N            1.919305921134    -0.582800569697    -0.056130957831    14.003074004430
         N           -1.910132078866     0.306427430303     0.048007042169    14.003074004430
         N           -0.342570078866    -1.466907569697    -0.039249957831    14.003074004430
         N            1.516790921134     1.641227430303    -0.011058957831    14.003074004430
         N           -2.629282078866    -1.916602569697     0.110579042169    14.003074004430
         C            0.557844921134    -0.436588569697    -0.030029957831    12.000000000000
         C            0.333903921134     0.940000430303    -0.009899957831    12.000000000000
         C           -1.022018078866     1.424039430303     0.034679042169    12.000000000000
         C            2.439208921134     0.689818430303    -0.070420957831    12.000000000000
         C           -1.572911078866    -1.025717569697     0.018304042169    12.000000000000
         C            2.635515921134    -1.844993569697    -0.066019957831    12.000000000000
         H            3.509407921134     0.859408430303    -0.087106957831     1.007825032230
         H            2.349037521134    -2.483703969697     0.898170142169     1.007825032230
         H            2.379618921134    -2.413750569697    -0.961006957831     1.007825032230
         H            3.704285921134    -1.630258569697    -0.059733957831     1.007825032230
         H           -2.887835078866     0.569474430303     0.168816042169     1.007825032230
         H           -2.325657078866    -2.867365569697    -0.064739957831     1.007825032230
         H           -3.459547078866    -1.672310569697    -0.417850957831     1.007825032230

  Basis Set: AUG-CC-PVTZ
    Blend: AUG-CC-PVTZ
  Basis Set: (AUG-CC-PVTZ AUX)
    Blend: AUG-CC-PVTZ-JKFIT
	 Reference Energy          =    -578.6240092876163317 [Eh]
	 Singles Energy            =      -0.0000000000000000 [Eh]
	 Same-Spin Energy          =      -0.6161539228903885 [Eh]
	 Opposite-Spin Energy      =      -1.8205946880232280 [Eh]
	 Correlation Energy        =      -2.4367486109136163 [Eh]
	 Total Energy              =    -581.0607578985299142 [Eh]

	 ================> DF-SCS-MP2 Energies <==================
	-----------------------------------------------------------
	 SCS Same-Spin Scale       =       0.3333333333333333 [-]
	 SCS Opposite-Spin Scale   =       1.2000000000000000 [-]
	 SCS Same-Spin Energy      =      -0.2053846409634628 [Eh]
	 SCS Opposite-Spin Energy  =      -2.1847136256278734 [Eh]
	 SCS Correlation Energy    =      -2.3900982665913362 [Eh]
	 SCS Total Energy          =    -581.0141075542076123 [Eh]
	-----------------------------------------------------------

  Dipole Moment: [D]
     X:    -0.0379      Y:    -6.7496      Z:    -0.9582     Total:     6.8174

*** Psi4 exiting successfully. Buy a developer a beer!
