                               Psi4 1.4a3.dev225

  ==> Input File <==

--------------------------------------------------------------------------
#psi4
#
memory 32 gb

molecule  {
0 1
  O        1.6617960     2.5152110     0.0229320
  N       -1.9329240    -0.4005880    -0.0147920
  N        1.9545050     0.2323110     0.0113410
  N        0.2669280    -1.4301930    -0.0208730
  N       -1.3834780     1.7915450    -0.0193170
  N        2.5221760    -2.0364130     0.0734370
  C       -0.5634760    -0.3442740    -0.0026930
  C       -0.2488450     1.0144850    -0.0147620
  C        1.1380320     1.4076430     0.0031510
  C       -2.3746461     0.9225858    -0.0164356
  C        1.5275980    -1.0721200    -0.0057920
  C       -2.7322540    -1.6127190     0.0339130
  H       -3.4247340     1.1445090    -0.0228960
  H       -2.2735910    -2.3629350    -0.6109560
  H       -2.7853950    -1.9995380     1.0543320
  H       -3.7366260    -1.3828770    -0.3245450
  H        2.9468270     0.4301980     0.1174830
  H        2.1372730    -2.9631930    -0.0801050
  H        3.3349710    -1.8642740    -0.5097710
units angstrom
no_reorient  #important for SAPT in psi4, default
symmetry c1  #important for SAPT in psi4, default
}

set PROPERTIES_ORIGIN ["COM"]
properties('MP2/aug-cc-pvtz', properties = ['dipole'])
--------------------------------------------------------------------------

    Molecular point group: c1
  Charge       = 0
  Multiplicity = 1
  Basis Set: AUG-CC-PVTZ
    Blend: AUG-CC-PVTZ
  Basis Set: (AUG-CC-PVTZ AUX)
    Blend: AUG-CC-PVTZ-JKFIT

    Orbital Energies [Eh]
    ---------------------

    Doubly Occupied:

       1A    -20.521167     2A    -15.630827     3A    -15.629500
       4A    -15.611147     5A    -15.571202     6A    -15.561182
       7A    -11.396718     8A    -11.364916     9A    -11.320515
      10A    -11.307310    11A    -11.287758    12A    -11.246960
      13A     -1.390410    14A     -1.357888    15A     -1.333042
      16A     -1.218877    17A     -1.216971    18A     -1.189692
      19A     -1.030083    20A     -0.983381    21A     -0.899329
      22A     -0.882540    23A     -0.808389    24A     -0.765817
      25A     -0.740973    26A     -0.729218    27A     -0.691393
      28A     -0.668897    29A     -0.647574    30A     -0.642039
      31A     -0.624916    32A     -0.610016    33A     -0.599926
      34A     -0.577107    35A     -0.560502    36A     -0.541230
      37A     -0.492585    38A     -0.460787    39A     -0.440013
      40A     -0.430140    41A     -0.428790    42A     -0.391556
      43A     -0.299936

  @DF-RHF Final Energy:  -578.63070206551106

   => Energetics <=

    Nuclear Repulsion Energy =            692.8360514426791497
    One-Electron Energy =               -2162.7270676299203842
    Two-Electron Energy =                 891.2603141217302891
    Total Energy =                       -578.6307020655110591
  Basis Set: (AUG-CC-PVTZ AUX)
    Blend: AUG-CC-PVTZ-RI
    Molecular point group: c1

    Geometry (in Angstrom), charge = 0, multiplicity = 1:

       Center              X                  Y                   Z               Mass
    ------------   -----------------  -----------------  -----------------  -----------------
         O            1.639432350907     2.459857820638     0.020671049200    15.994914619570
         N           -1.955287649093    -0.455941179362    -0.017052950800    14.003074004430
         N            1.932141350907     0.176957820638     0.009080049200    14.003074004430
         N            0.244564350907    -1.485546179362    -0.023133950800    14.003074004430
         N           -1.405841649093     1.736191820638    -0.021577950800    14.003074004430
         N            2.499812350907    -2.091766179362     0.071176049200    14.003074004430
         C           -0.585839649093    -0.399627179362    -0.004953950800    12.000000000000
         C           -0.271208649093     0.959131820638    -0.017022950800    12.000000000000
         C            1.115668350907     1.352289820638     0.000890049200    12.000000000000
         C           -2.397009749093     0.867232620638    -0.018696550800    12.000000000000
         C            1.505234350907    -1.127473179362    -0.008052950800    12.000000000000
         C           -2.754617649093    -1.668072179362     0.031652049200    12.000000000000
         H           -3.447097649093     1.089155820638    -0.025156950800     1.007825032230
         H           -2.295954649093    -2.418288179362    -0.613216950800     1.007825032230
         H           -2.807758649093    -2.054891179362     1.052071049200     1.007825032230
         H           -3.758989649093    -1.438230179362    -0.326805950800     1.007825032230
         H            2.924463350907     0.374844820638     0.115222049200     1.007825032230
         H            2.114909350907    -3.018546179362    -0.082365950800     1.007825032230
         H            3.312607350907    -1.919627179362    -0.512031950800     1.007825032230

  Basis Set: AUG-CC-PVTZ
    Blend: AUG-CC-PVTZ
  Basis Set: (AUG-CC-PVTZ AUX)
    Blend: AUG-CC-PVTZ-JKFIT
	 Reference Energy          =    -578.6307020655110591 [Eh]
	 Singles Energy            =      -0.0000000000000000 [Eh]
	 Same-Spin Energy          =      -0.6157664864115342 [Eh]
	 Opposite-Spin Energy      =      -1.8194823240687648 [Eh]
	 Correlation Energy        =      -2.4352488104802990 [Eh]
	 Total Energy              =    -581.0659508759913479 [Eh]

	 ================> DF-SCS-MP2 Energies <==================
	-----------------------------------------------------------
	 SCS Same-Spin Scale       =       0.3333333333333333 [-]
	 SCS Opposite-Spin Scale   =       1.2000000000000000 [-]
	 SCS Same-Spin Energy      =      -0.2052554954705114 [Eh]
	 SCS Opposite-Spin Energy  =      -2.1833787888825178 [Eh]
	 SCS Correlation Energy    =      -2.3886342843530293 [Eh]
	 SCS Total Energy          =    -581.0193363498640338 [Eh]
	-----------------------------------------------------------

  Dipole Moment: [D]
     X:    -0.5117      Y:    -6.6945      Z:    -0.8510     Total:     6.7678

*** Psi4 exiting successfully. Buy a developer a beer!
