                               Psi4 1.3.2 release

  ==> Input File <==

--------------------------------------------------------------------------
#psi4
#
memory 32 gb

molecule  {
0 1
  O       -1.4697740     2.5644010     0.0803940
  N        1.9191590    -0.5831280    -0.0556370
  N       -1.9102790     0.3061000     0.0485010
  N       -0.3427170    -1.4672350    -0.0387560
  N        1.5166440     1.6409000    -0.0105650
  N       -2.6294290    -1.9169300     0.1110730
  C        0.5576980    -0.4369160    -0.0295360
  C        0.3337570     0.9396730    -0.0094060
  C       -1.0221650     1.4237120     0.0351730
  C        2.4390620     0.6894910    -0.0699270
  C       -1.5975923    -0.9291255     0.0209590
  C        2.6353690    -1.8453210    -0.0655260
  H        3.5092610     0.8590810    -0.0866130
  H        2.3729340    -2.4304260     0.8177420
  H        2.3794720    -2.4140780    -0.9605130
  H        3.7041390    -1.6305860    -0.0592400
  H       -2.8879820     0.5691470     0.1693100
  H       -2.3258040    -2.8676930    -0.0642460
  H       -3.4596940    -1.6726380    -0.4173570
units angstrom
no_reorient  #important for SAPT in psi4, default
symmetry c1  #important for SAPT in psi4, default
}

set PROPERTIES_ORIGIN ["COM"]
properties('MP2/aug-cc-pvtz', properties = ['dipole'])
--------------------------------------------------------------------------

    Molecular point group: c1
  Charge       = 0
  Multiplicity = 1
  Basis Set: AUG-CC-PVTZ
    Blend: AUG-CC-PVTZ
  Basis Set: (AUG-CC-PVTZ AUX)
    Blend: AUG-CC-PVTZ-JKFIT

    Orbital Energies [Eh]
    ---------------------

    Doubly Occupied:

       1A    -20.526439     2A    -15.644987     3A    -15.629761
       4A    -15.606618     5A    -15.568693     6A    -15.558650
       7A    -11.397176     8A    -11.370209     9A    -11.318245
      10A    -11.307120    11A    -11.287845    12A    -11.245311
      13A     -1.404750    14A     -1.360399    15A     -1.342627
      16A     -1.225527    17A     -1.203357    18A     -1.188283
      19A     -1.027677    20A     -0.986550    21A     -0.912195
      22A     -0.892309    23A     -0.803856    24A     -0.770253
      25A     -0.754553    26A     -0.720023    27A     -0.692082
      28A     -0.672454    29A     -0.654130    30A     -0.641866
      31A     -0.618954    32A     -0.610910    33A     -0.595477
      34A     -0.575481    35A     -0.560500    36A     -0.537242
      37A     -0.495037    38A     -0.455919    39A     -0.445643
      40A     -0.437098    41A     -0.429099    42A     -0.392356
      43A     -0.293240

  @DF-RHF Final Energy:  -578.61664926096000

   => Energetics <=

    Nuclear Repulsion Energy =            694.0606071606973728
    One-Electron Energy =               -2165.0327088264994018
    Two-Electron Energy =                 892.3554524048420262
    Total Energy =                       -578.6166492609600027
  Basis Set: (AUG-CC-PVTZ AUX)
    Blend: AUG-CC-PVTZ-RI
    Molecular point group: c1

    Geometry (in Angstrom), charge = 0, multiplicity = 1:

       Center              X                  Y                   Z               Mass
    ------------   -----------------  -----------------  -----------------  -----------------
         O           -1.467990269357     2.557355223247     0.080237020316    15.994914619570
         N            1.920942730643    -0.590173776753    -0.055793979684    14.003074004430
         N           -1.908495269357     0.299054223247     0.048344020316    14.003074004430
         N           -0.340933269357    -1.474280776753    -0.038912979684    14.003074004430
         N            1.518427730643     1.633854223247    -0.010721979684    14.003074004430
         N           -2.627645269357    -1.923975776753     0.110916020316    14.003074004430
         C            0.559481730643    -0.443961776753    -0.029692979684    12.000000000000
         C            0.335540730643     0.932627223247    -0.009562979684    12.000000000000
         C           -1.020381269357     1.416666223247     0.035016020316    12.000000000000
         C            2.440845730643     0.682445223247    -0.070083979684    12.000000000000
         C           -1.595808569357    -0.936171276753     0.020802020316    12.000000000000
         C            2.637152730643    -1.852366776753    -0.065682979684    12.000000000000
         H            3.511044730643     0.852035223247    -0.086769979684     1.007825032230
         H            2.374717730643    -2.437471776753     0.817585020316     1.007825032230
         H            2.381255730643    -2.421123776753    -0.960669979684     1.007825032230
         H            3.705922730643    -1.637631776753    -0.059396979684     1.007825032230
         H           -2.886198269357     0.562101223247     0.169153020316     1.007825032230
         H           -2.324020269357    -2.874738776753    -0.064402979684     1.007825032230
         H           -3.457910269357    -1.679683776753    -0.417513979684     1.007825032230

  Basis Set: AUG-CC-PVTZ
    Blend: AUG-CC-PVTZ
  Basis Set: (AUG-CC-PVTZ AUX)
    Blend: AUG-CC-PVTZ-JKFIT
	 Reference Energy          =    -578.6166492609600027 [Eh]
	 Singles Energy            =      -0.0000000000000000 [Eh]
	 Same-Spin Energy          =      -0.6165354602374278 [Eh]
	 Opposite-Spin Energy      =      -1.8206424068156006 [Eh]
	 Correlation Energy        =      -2.4371778670530286 [Eh]
	 Total Energy              =    -581.0538271280130402 [Eh]

	 ================> DF-SCS-MP2 Energies <==================
	-----------------------------------------------------------
	 SCS Same-Spin Scale       =       0.3333333333333333 [-]
	 SCS Opposite-Spin Scale   =       1.2000000000000000 [-]
	 SCS Same-Spin Energy      =      -0.2055118200791426 [Eh]
	 SCS Opposite-Spin Energy  =      -2.1847708881787207 [Eh]
	 SCS Correlation Energy    =      -2.3902827082578630 [Eh]
	 SCS Total Energy          =    -581.0069319692178169 [Eh]
	-----------------------------------------------------------

  Dipole Moment: [D]
     X:    -0.1282      Y:    -6.3148      Z:    -0.9280     Total:     6.3839

*** Psi4 exiting successfully. Buy a developer a beer!
