                               Psi4 1.4a3.dev225

  ==> Input File <==

--------------------------------------------------------------------------
#psi4
#
memory 32 gb

molecule  {
0 1
  O        1.6617960     2.5152110     0.0229320
  N       -1.9329240    -0.4005880    -0.0147920
  N        1.9545050     0.2323110     0.0113410
  N        0.2669280    -1.4301930    -0.0208730
  N       -1.3834780     1.7915450    -0.0193170
  N        2.5221760    -2.0364130     0.0734370
  C       -0.5634760    -0.3442740    -0.0026930
  C       -0.2488450     1.0144850    -0.0147620
  C        1.1380320     1.4076430     0.0031510
  C       -2.3683130     0.9036150    -0.0164120
  C        1.5275980    -1.0721200    -0.0057920
  C       -2.7212498    -1.5960319     0.0332425
  H       -3.4247340     1.1445090    -0.0228960
  H       -2.2735910    -2.3629350    -0.6109560
  H       -2.7853950    -1.9995380     1.0543320
  H       -3.7366260    -1.3828770    -0.3245450
  H        2.9468270     0.4301980     0.1174830
  H        2.1372730    -2.9631930    -0.0801050
  H        3.3349710    -1.8642740    -0.5097710
units angstrom
no_reorient  #important for SAPT in psi4, default
symmetry c1  #important for SAPT in psi4, default
}

set PROPERTIES_ORIGIN ["COM"]
properties('MP2/aug-cc-pvtz', properties = ['dipole'])
--------------------------------------------------------------------------

    Molecular point group: c1
  Charge       = 0
  Multiplicity = 1
  Basis Set: AUG-CC-PVTZ
    Blend: AUG-CC-PVTZ
  Basis Set: (AUG-CC-PVTZ AUX)
    Blend: AUG-CC-PVTZ-JKFIT

    Orbital Energies [Eh]
    ---------------------

    Doubly Occupied:

       1A    -20.521881     2A    -15.633320     3A    -15.629835
       4A    -15.611023     5A    -15.571521     6A    -15.560749
       7A    -11.396496     8A    -11.365422     9A    -11.320344
      10A    -11.307771    11A    -11.288629    12A    -11.247923
      13A     -1.391517    14A     -1.362465    15A     -1.334610
      16A     -1.219238    17A     -1.216672    18A     -1.193249
      19A     -1.029890    20A     -0.985556    21A     -0.902244
      22A     -0.882424    23A     -0.807912    24A     -0.767810
      25A     -0.742259    26A     -0.729051    27A     -0.691938
      28A     -0.671535    29A     -0.652797    30A     -0.642506
      31A     -0.625145    32A     -0.611677    33A     -0.595249
      34A     -0.574213    35A     -0.559311    36A     -0.541121
      37A     -0.493751    38A     -0.460733    39A     -0.440718
      40A     -0.430154    41A     -0.429579    42A     -0.392722
      43A     -0.299134

  @DF-RHF Final Energy:  -578.63017968445195

   => Energetics <=

    Nuclear Repulsion Energy =            693.5992012244186071
    One-Electron Energy =               -2164.1945676207219549
    Two-Electron Energy =                 891.9651867118512882
    Total Energy =                       -578.6301796844519458
  Basis Set: (AUG-CC-PVTZ AUX)
    Blend: AUG-CC-PVTZ-RI
    Molecular point group: c1

    Geometry (in Angstrom), charge = 0, multiplicity = 1:

       Center              X                  Y                   Z               Mass
    ------------   -----------------  -----------------  -----------------  -----------------
         O            1.638171953339     2.460023842448     0.020718077929    15.994914619570
         N           -1.956548046661    -0.455775157552    -0.017005922071    14.003074004430
         N            1.930880953339     0.177123842448     0.009127077929    14.003074004430
         N            0.243303953339    -1.485380157552    -0.023086922071    14.003074004430
         N           -1.407102046661     1.736357842448    -0.021530922071    14.003074004430
         N            2.498551953339    -2.091600157552     0.071223077929    14.003074004430
         C           -0.587100046661    -0.399461157552    -0.004906922071    12.000000000000
         C           -0.272469046661     0.959297842448    -0.016975922071    12.000000000000
         C            1.114407953339     1.352455842448     0.000937077929    12.000000000000
         C           -2.391937046661     0.848427842448    -0.018625922071    12.000000000000
         C            1.503973953339    -1.127307157552    -0.008005922071    12.000000000000
         C           -2.744873846661    -1.651219057552     0.031028577929    12.000000000000
         H           -3.448358046661     1.089321842448    -0.025109922071     1.007825032230
         H           -2.297215046661    -2.418122157552    -0.613169922071     1.007825032230
         H           -2.809019046661    -2.054725157552     1.052118077929     1.007825032230
         H           -3.760250046661    -1.438064157552    -0.326758922071     1.007825032230
         H            2.923202953339     0.375010842448     0.115269077929     1.007825032230
         H            2.113648953339    -3.018380157552    -0.082318922071     1.007825032230
         H            3.311346953339    -1.919461157552    -0.511984922071     1.007825032230

  Basis Set: AUG-CC-PVTZ
    Blend: AUG-CC-PVTZ
  Basis Set: (AUG-CC-PVTZ AUX)
    Blend: AUG-CC-PVTZ-JKFIT
	 Reference Energy          =    -578.6301796844519458 [Eh]
	 Singles Energy            =      -0.0000000000000000 [Eh]
	 Same-Spin Energy          =      -0.6161951313826026 [Eh]
	 Opposite-Spin Energy      =      -1.8198574447594242 [Eh]
	 Correlation Energy        =      -2.4360525761420266 [Eh]
	 Total Energy              =    -581.0662322605940062 [Eh]

	 ================> DF-SCS-MP2 Energies <==================
	-----------------------------------------------------------
	 SCS Same-Spin Scale       =       0.3333333333333333 [-]
	 SCS Opposite-Spin Scale   =       1.2000000000000000 [-]
	 SCS Same-Spin Energy      =      -0.2053983771275342 [Eh]
	 SCS Opposite-Spin Energy  =      -2.1838289337113088 [Eh]
	 SCS Correlation Energy    =      -2.3892273108388431 [Eh]
	 SCS Total Energy          =    -581.0194069952907512 [Eh]
	-----------------------------------------------------------

  Dipole Moment: [D]
     X:    -0.4770      Y:    -6.7018      Z:    -0.8561     Total:     6.7730

*** Psi4 exiting successfully. Buy a developer a beer!
