                               Psi4 1.3.2 release

  ==> Input File <==

--------------------------------------------------------------------------
#psi4
#
memory 32 gb

molecule  {
0 1
  O       -1.4697740     2.5644010     0.0803940
  N        1.9191590    -0.5831280    -0.0556370
  N       -1.9102790     0.3061000     0.0485010
  N       -0.3505527    -1.4886499    -0.0375717
  N        1.5166440     1.6409000    -0.0105650
  N       -2.6137015    -1.9352828     0.1107664
  C        0.5576980    -0.4369160    -0.0295360
  C        0.3337570     0.9396730    -0.0094060
  C       -1.0221650     1.4237120     0.0351730
  C        2.4390620     0.6894910    -0.0699270
  C       -1.5730580    -1.0260450     0.0187980
  C        2.6353690    -1.8453210    -0.0655260
  H        3.5092610     0.8590810    -0.0866130
  H        2.3729340    -2.4304260     0.8177420
  H        2.3794720    -2.4140780    -0.9605130
  H        3.7041390    -1.6305860    -0.0592400
  H       -2.8879820     0.5691470     0.1693100
  H       -2.3258040    -2.8676930    -0.0642460
  H       -3.4596940    -1.6726380    -0.4173570
units angstrom
no_reorient  #important for SAPT in psi4, default
symmetry c1  #important for SAPT in psi4, default
}

set PROPERTIES_ORIGIN ["COM"]
properties('MP2/aug-cc-pvtz', properties = ['dipole'])
--------------------------------------------------------------------------

    Molecular point group: c1
  Charge       = 0
  Multiplicity = 1
  Basis Set: AUG-CC-PVTZ
    Blend: AUG-CC-PVTZ
  Basis Set: (AUG-CC-PVTZ AUX)
    Blend: AUG-CC-PVTZ-JKFIT

    Orbital Energies [Eh]
    ---------------------

    Doubly Occupied:

       1A    -20.522450     2A    -15.633643     3A    -15.630407
       4A    -15.608635     5A    -15.571920     6A    -15.560256
       7A    -11.395063     8A    -11.365641     9A    -11.320328
      10A    -11.307695    11A    -11.289518    12A    -11.248182
      13A     -1.390772    14A     -1.360672    15A     -1.333729
      16A     -1.220405    17A     -1.211895    18A     -1.190191
      19A     -1.029838    20A     -0.986851    21A     -0.901899
      22A     -0.880178    23A     -0.806206    24A     -0.766366
      25A     -0.741418    26A     -0.728350    27A     -0.694047
      28A     -0.670731    29A     -0.651028    30A     -0.639038
      31A     -0.624515    32A     -0.611366    33A     -0.594252
      34A     -0.578167    35A     -0.561149    36A     -0.541607
      37A     -0.494663    38A     -0.456602    39A     -0.441263
      40A     -0.430589    41A     -0.428966    42A     -0.393058
      43A     -0.300087

  @DF-RHF Final Energy:  -578.62895399894387

   => Energetics <=

    Nuclear Repulsion Energy =            692.9149365019048901
    One-Electron Energy =               -2162.8605079877270327
    Two-Electron Energy =                 891.3166174868783855
    Total Energy =                       -578.6289539989438708
  Basis Set: (AUG-CC-PVTZ AUX)
    Blend: AUG-CC-PVTZ-RI
    Molecular point group: c1

    Geometry (in Angstrom), charge = 0, multiplicity = 1:

       Center              X                  Y                   Z               Mass
    ------------   -----------------  -----------------  -----------------  -----------------
         O           -1.470443369121     2.567774775680     0.080319663499    15.994914619570
         N            1.918489630879    -0.579754224320    -0.055711336501    14.003074004430
         N           -1.910948369121     0.309473775680     0.048426663499    14.003074004430
         N           -0.351222069121    -1.485276124320    -0.037646036501    14.003074004430
         N            1.515974630879     1.644273775680    -0.010639336501    14.003074004430
         N           -2.614370869121    -1.931909024320     0.110692063499    14.003074004430
         C            0.557028630879    -0.433542224320    -0.029610336501    12.000000000000
         C            0.333087630879     0.943046775680    -0.009480336501    12.000000000000
         C           -1.022834369121     1.427085775680     0.035098663499    12.000000000000
         C            2.438392630879     0.692864775680    -0.070001336501    12.000000000000
         C           -1.573727369121    -1.022671224320     0.018723663499    12.000000000000
         C            2.634699630879    -1.841947224320    -0.065600336501    12.000000000000
         H            3.508591630879     0.862454775680    -0.086687336501     1.007825032230
         H            2.372264630879    -2.427052224320     0.817667663499     1.007825032230
         H            2.378802630879    -2.410704224320    -0.960587336501     1.007825032230
         H            3.703469630879    -1.627212224320    -0.059314336501     1.007825032230
         H           -2.888651369121     0.572520775680     0.169235663499     1.007825032230
         H           -2.326473369121    -2.864319224320    -0.064320336501     1.007825032230
         H           -3.460363369121    -1.669264224320    -0.417431336501     1.007825032230

  Basis Set: AUG-CC-PVTZ
    Blend: AUG-CC-PVTZ
  Basis Set: (AUG-CC-PVTZ AUX)
    Blend: AUG-CC-PVTZ-JKFIT
	 Reference Energy          =    -578.6289539989438708 [Eh]
	 Singles Energy            =      -0.0000000000000000 [Eh]
	 Same-Spin Energy          =      -0.6159200941339620 [Eh]
	 Opposite-Spin Energy      =      -1.8200844707098129 [Eh]
	 Correlation Energy        =      -2.4360045648437749 [Eh]
	 Total Energy              =    -581.0649585637876271 [Eh]

	 ================> DF-SCS-MP2 Energies <==================
	-----------------------------------------------------------
	 SCS Same-Spin Scale       =       0.3333333333333333 [-]
	 SCS Opposite-Spin Scale   =       1.2000000000000000 [-]
	 SCS Same-Spin Energy      =      -0.2053066980446540 [Eh]
	 SCS Opposite-Spin Energy  =      -2.1841013648517755 [Eh]
	 SCS Correlation Energy    =      -2.3894080628964294 [Eh]
	 SCS Total Energy          =    -581.0183620618403211 [Eh]
	-----------------------------------------------------------

  Dipole Moment: [D]
     X:    -0.0005      Y:    -6.6899      Z:    -0.9313     Total:     6.7544

*** Psi4 exiting successfully. Buy a developer a beer!
