                               Psi4 1.3.2 release

  ==> Input File <==

--------------------------------------------------------------------------
#psi4
#
memory 32 gb

molecule  {
0 1
  O       -1.4697740     2.5644010     0.0803940
  N        1.9191590    -0.5831280    -0.0556370
  N       -1.9102790     0.3061000     0.0485010
  N       -0.3427170    -1.4672350    -0.0387560
  N        1.5166440     1.6409000    -0.0105650
  N       -2.6294290    -1.9169300     0.1110730
  C        0.5576980    -0.4369160    -0.0295360
  C        0.5057989     1.0416611    -0.0095746
  C       -1.0221650     1.4237120     0.0351730
  C        2.4390620     0.6894910    -0.0699270
  C       -1.5730580    -1.0260450     0.0187980
  C        2.6353690    -1.8453210    -0.0655260
  H        3.5092610     0.8590810    -0.0866130
  H        2.3729340    -2.4304260     0.8177420
  H        2.3794720    -2.4140780    -0.9605130
  H        3.7041390    -1.6305860    -0.0592400
  H       -2.8879820     0.5691470     0.1693100
  H       -2.3258040    -2.8676930    -0.0642460
  H       -3.4596940    -1.6726380    -0.4173570
units angstrom
no_reorient  #important for SAPT in psi4, default
symmetry c1  #important for SAPT in psi4, default
}

set PROPERTIES_ORIGIN ["COM"]
properties('MP2/aug-cc-pvtz', properties = ['dipole'])
--------------------------------------------------------------------------

    Molecular point group: c1
  Charge       = 0
  Multiplicity = 1
  Basis Set: AUG-CC-PVTZ
    Blend: AUG-CC-PVTZ
  Basis Set: (AUG-CC-PVTZ AUX)
    Blend: AUG-CC-PVTZ-JKFIT

    Orbital Energies [Eh]
    ---------------------

    Doubly Occupied:

       1A    -20.525447     2A    -15.640098     3A    -15.632284
       4A    -15.608506     5A    -15.570655     6A    -15.552109
       7A    -11.391583     8A    -11.369644     9A    -11.304987
      10A    -11.297357    11A    -11.287893    12A    -11.258749
      13A     -1.396248    14A     -1.375426    15A     -1.337420
      16A     -1.252695    17A     -1.215512    18A     -1.200674
      19A     -1.008170    20A     -0.988587    21A     -0.891906
      22A     -0.875087    23A     -0.812265    24A     -0.768694
      25A     -0.744919    26A     -0.727717    27A     -0.690899
      28A     -0.671245    29A     -0.646743    30A     -0.638978
      31A     -0.625400    32A     -0.613531    33A     -0.587828
      34A     -0.578262    35A     -0.574674    36A     -0.539734
      37A     -0.505848    38A     -0.464256    39A     -0.453898
      40A     -0.434338    41A     -0.410352    42A     -0.400255
      43A     -0.267847

  @DF-RHF Final Energy:  -578.56383090137717

   => Energetics <=

    Nuclear Repulsion Energy =            692.9896332997028594
    One-Electron Energy =               -2162.8294920173798346
    Two-Electron Energy =                 891.2760278162999157
    Total Energy =                       -578.5638309013771732
  Basis Set: (AUG-CC-PVTZ AUX)
    Blend: AUG-CC-PVTZ-RI
    Molecular point group: c1

    Geometry (in Angstrom), charge = 0, multiplicity = 1:

       Center              X                  Y                   Z               Mass
    ------------   -----------------  -----------------  -----------------  -----------------
         O           -1.482281085365     2.556986743085     0.080406378993    15.994914619570
         N            1.906651914635    -0.590542256915    -0.055624621007    14.003074004430
         N           -1.922786085365     0.298685743085     0.048513378993    14.003074004430
         N           -0.355224085365    -1.474649256915    -0.038743621007    14.003074004430
         N            1.504136914635     1.633485743085    -0.010552621007    14.003074004430
         N           -2.641936085365    -1.924344256915     0.111085378993    14.003074004430
         C            0.545190914635    -0.444330256915    -0.029523621007    12.000000000000
         C            0.493291814635     1.034246843085    -0.009562221007    12.000000000000
         C           -1.034672085365     1.416297743085     0.035185378993    12.000000000000
         C            2.426554914635     0.682076743085    -0.069914621007    12.000000000000
         C           -1.585565085365    -1.033459256915     0.018810378993    12.000000000000
         C            2.622861914635    -1.852735256915    -0.065513621007    12.000000000000
         H            3.496753914635     0.851666743085    -0.086600621007     1.007825032230
         H            2.360426914635    -2.437840256915     0.817754378993     1.007825032230
         H            2.366964914635    -2.421492256915    -0.960500621007     1.007825032230
         H            3.691631914635    -1.638000256915    -0.059227621007     1.007825032230
         H           -2.900489085365     0.561732743085     0.169322378993     1.007825032230
         H           -2.338311085365    -2.875107256915    -0.064233621007     1.007825032230
         H           -3.472201085365    -1.680052256915    -0.417344621007     1.007825032230

  Basis Set: AUG-CC-PVTZ
    Blend: AUG-CC-PVTZ
  Basis Set: (AUG-CC-PVTZ AUX)
    Blend: AUG-CC-PVTZ-JKFIT
	 Reference Energy          =    -578.5638309013771732 [Eh]
	 Singles Energy            =      -0.0000000000000000 [Eh]
	 Same-Spin Energy          =      -0.6199735224750522 [Eh]
	 Opposite-Spin Energy      =      -1.8236783529885248 [Eh]
	 Correlation Energy        =      -2.4436518754635772 [Eh]
	 Total Energy              =    -581.0074827768407886 [Eh]

	 ================> DF-SCS-MP2 Energies <==================
	-----------------------------------------------------------
	 SCS Same-Spin Scale       =       0.3333333333333333 [-]
	 SCS Opposite-Spin Scale   =       1.2000000000000000 [-]
	 SCS Same-Spin Energy      =      -0.2066578408250174 [Eh]
	 SCS Opposite-Spin Energy  =      -2.1884140235862297 [Eh]
	 SCS Correlation Energy    =      -2.3950718644112472 [Eh]
	 SCS Total Energy          =    -580.9589027657883662 [Eh]
	-----------------------------------------------------------

  Dipole Moment: [D]
     X:     0.0593      Y:    -6.4117      Z:    -0.9325     Total:     6.4794

*** Psi4 exiting successfully. Buy a developer a beer!
