                               Psi4 1.3.2 release

  ==> Input File <==

--------------------------------------------------------------------------
#psi4
#
memory 32 gb

molecule  {
0 1
  O       -1.4697740     2.5644010     0.0803940
  N        1.9191590    -0.5831280    -0.0556370
  N       -1.9102790     0.3061000     0.0485010
  N       -0.3427170    -1.4672350    -0.0387560
  N        1.5166440     1.6409000    -0.0105650
  N       -2.6294290    -1.9169300     0.1110730
  C        0.5553556    -0.4607033    -0.0294132
  C        0.3337570     0.9396730    -0.0094060
  C       -1.0221650     1.4237120     0.0351730
  C        2.4390620     0.6894910    -0.0699270
  C       -1.5730580    -1.0260450     0.0187980
  C        2.6132365    -1.8576293    -0.0650541
  H        3.5092610     0.8590810    -0.0866130
  H        2.3729340    -2.4304260     0.8177420
  H        2.3794720    -2.4140780    -0.9605130
  H        3.7041390    -1.6305860    -0.0592400
  H       -2.8879820     0.5691470     0.1693100
  H       -2.3258040    -2.8676930    -0.0642460
  H       -3.4596940    -1.6726380    -0.4173570
units angstrom
no_reorient  #important for SAPT in psi4, default
symmetry c1  #important for SAPT in psi4, default
}

set PROPERTIES_ORIGIN ["COM"]
properties('MP2/aug-cc-pvtz', properties = ['dipole'])
--------------------------------------------------------------------------

    Molecular point group: c1
  Charge       = 0
  Multiplicity = 1
  Basis Set: AUG-CC-PVTZ
    Blend: AUG-CC-PVTZ
  Basis Set: (AUG-CC-PVTZ AUX)
    Blend: AUG-CC-PVTZ-JKFIT

    Orbital Energies [Eh]
    ---------------------

    Doubly Occupied:

       1A    -20.518834     2A    -15.633295     3A    -15.630031
       4A    -15.611845     5A    -15.571339     6A    -15.560440
       7A    -11.397933     8A    -11.362634     9A    -11.320852
      10A    -11.307228    11A    -11.289160    12A    -11.247570
      13A     -1.390325    14A     -1.359762    15A     -1.334678
      16A     -1.221011    17A     -1.219224    18A     -1.191267
      19A     -1.026106    20A     -0.985763    21A     -0.902657
      22A     -0.884705    23A     -0.808615    24A     -0.764072
      25A     -0.742018    26A     -0.730526    27A     -0.692903
      28A     -0.673285    29A     -0.648096    30A     -0.644858
      31A     -0.628713    32A     -0.609357    33A     -0.593134
      34A     -0.571228    35A     -0.562276    36A     -0.542542
      37A     -0.494437    38A     -0.461594    39A     -0.439394
      40A     -0.430173    41A     -0.426969    42A     -0.393283
      43A     -0.294374

  @DF-RHF Final Energy:  -578.62826153992842

   => Energetics <=

    Nuclear Repulsion Energy =            693.4231798018228119
    One-Electron Energy =               -2163.8658689327849061
    Two-Electron Energy =                 891.8144275910337910
    Total Energy =                       -578.6282615399284168
  Basis Set: (AUG-CC-PVTZ AUX)
    Blend: AUG-CC-PVTZ-RI
    Molecular point group: c1

    Geometry (in Angstrom), charge = 0, multiplicity = 1:

       Center              X                  Y                   Z               Mass
    ------------   -----------------  -----------------  -----------------  -----------------
         O           -1.467994587654     2.567025235794     0.080350888145    15.994914619570
         N            1.920938412346    -0.580503764206    -0.055680111855    14.003074004430
         N           -1.908499587654     0.308724235794     0.048457888145    14.003074004430
         N           -0.340937587654    -1.464610764206    -0.038799111855    14.003074004430
         N            1.518423412346     1.643524235794    -0.010608111855    14.003074004430
         N           -2.627649587654    -1.914305764206     0.111029888145    14.003074004430
         C            0.557135012346    -0.458079064206    -0.029456311855    12.000000000000
         C            0.335536412346     0.942297235794    -0.009449111855    12.000000000000
         C           -1.020385587654     1.426336235794     0.035129888145    12.000000000000
         C            2.440841412346     0.692115235794    -0.069970111855    12.000000000000
         C           -1.571278587654    -1.023420764206     0.018754888145    12.000000000000
         C            2.615015912346    -1.855005064206    -0.065097211855    12.000000000000
         H            3.511040412346     0.861705235794    -0.086656111855     1.007825032230
         H            2.374713412346    -2.427801764206     0.817698888145     1.007825032230
         H            2.381251412346    -2.411453764206    -0.960556111855     1.007825032230
         H            3.705918412346    -1.627961764206    -0.059283111855     1.007825032230
         H           -2.886202587654     0.571771235794     0.169266888145     1.007825032230
         H           -2.324024587654    -2.865068764206    -0.064289111855     1.007825032230
         H           -3.457914587654    -1.670013764206    -0.417400111855     1.007825032230

  Basis Set: AUG-CC-PVTZ
    Blend: AUG-CC-PVTZ
  Basis Set: (AUG-CC-PVTZ AUX)
    Blend: AUG-CC-PVTZ-JKFIT
	 Reference Energy          =    -578.6282615399284168 [Eh]
	 Singles Energy            =      -0.0000000000000000 [Eh]
	 Same-Spin Energy          =      -0.6166505669330886 [Eh]
	 Opposite-Spin Energy      =      -1.8202291064567797 [Eh]
	 Correlation Energy        =      -2.4368796733898686 [Eh]
	 Total Energy              =    -581.0651412133182703 [Eh]

	 ================> DF-SCS-MP2 Energies <==================
	-----------------------------------------------------------
	 SCS Same-Spin Scale       =       0.3333333333333333 [-]
	 SCS Opposite-Spin Scale   =       1.2000000000000000 [-]
	 SCS Same-Spin Energy      =      -0.2055501889776962 [Eh]
	 SCS Opposite-Spin Energy  =      -2.1842749277481355 [Eh]
	 SCS Correlation Energy    =      -2.3898251167258318 [Eh]
	 SCS Total Energy          =    -581.0180866566543045 [Eh]
	-----------------------------------------------------------

  Dipole Moment: [D]
     X:    -0.0383      Y:    -6.8532      Z:    -0.9383     Total:     6.9173

*** Psi4 exiting successfully. Buy a developer a beer!
