                               Psi4 1.4a3.dev225

  ==> Input File <==

--------------------------------------------------------------------------
#psi4
#
memory 32 gb

molecule  {
0 1
  O        1.6617960     2.5152110     0.0229320
  N       -1.9329240    -0.4005880    -0.0147920
  N        1.9545050     0.2323110     0.0113410
  N        0.2669280    -1.4301930    -0.0208730
  N       -1.3834780     1.7915450    -0.0193170
  N        2.5221760    -2.0364130     0.0734370
  C       -0.5634760    -0.3442740    -0.0026930
  C       -0.2488450     1.0144850    -0.0147620
  C        1.1380320     1.4076430     0.0031510
  C       -2.3683130     0.9036150    -0.0164120
  C        1.5275980    -1.0721200    -0.0057920
  C       -2.7322540    -1.6127190     0.0339130
  H       -3.4247340     1.1445090    -0.0228960
  H       -2.2525598    -2.3973348    -0.6405253
  H       -2.7853950    -1.9995380     1.0543320
  H       -3.7366260    -1.3828770    -0.3245450
  H        2.9468270     0.4301980     0.1174830
  H        2.1372730    -2.9631930    -0.0801050
  H        3.3349710    -1.8642740    -0.5097710
units angstrom
no_reorient  #important for SAPT in psi4, default
symmetry c1  #important for SAPT in psi4, default
}

set PROPERTIES_ORIGIN ["COM"]
properties('MP2/aug-cc-pvtz', properties = ['dipole'])
--------------------------------------------------------------------------

    Molecular point group: c1
  Charge       = 0
  Multiplicity = 1
  Basis Set: AUG-CC-PVTZ
    Blend: AUG-CC-PVTZ
  Basis Set: (AUG-CC-PVTZ AUX)
    Blend: AUG-CC-PVTZ-JKFIT

    Orbital Energies [Eh]
    ---------------------

    Doubly Occupied:

       1A    -20.521531     2A    -15.633226     3A    -15.629496
       4A    -15.610777     5A    -15.571109     6A    -15.560226
       7A    -11.396116     8A    -11.365056     9A    -11.319775
      10A    -11.307367    11A    -11.294588    12A    -11.247435
      13A     -1.390931    14A     -1.360777    15A     -1.333909
      16A     -1.218789    17A     -1.216041    18A     -1.190269
      19A     -1.029177    20A     -0.982567    21A     -0.901108
      22A     -0.882012    23A     -0.807247    24A     -0.765911
      25A     -0.741091    26A     -0.728502    27A     -0.691115
      28A     -0.669800    29A     -0.648980    30A     -0.642269
      31A     -0.623467    32A     -0.609962    33A     -0.594304
      34A     -0.575437    35A     -0.558981    36A     -0.541124
      37A     -0.492729    38A     -0.460405    39A     -0.440287
      40A     -0.429787    41A     -0.429202    42A     -0.392734
      43A     -0.298699

  @DF-RHF Final Energy:  -578.62833459076569

   => Energetics <=

    Nuclear Repulsion Energy =            692.9628595563801809
    One-Electron Energy =               -2162.9737648691157119
    Two-Electron Energy =                 891.3825707219698415
    Total Energy =                       -578.6283345907656894
  Basis Set: (AUG-CC-PVTZ AUX)
    Blend: AUG-CC-PVTZ-RI
    Molecular point group: c1

    Geometry (in Angstrom), charge = 0, multiplicity = 1:

       Center              X                  Y                   Z               Mass
    ------------   -----------------  -----------------  -----------------  -----------------
         O            1.638843534777     2.461447003592     0.020849872512    15.994914619570
         N           -1.955876465223    -0.454351996408    -0.016874127488    14.003074004430
         N            1.931552534777     0.178547003592     0.009258872512    14.003074004430
         N            0.243975534777    -1.483956996408    -0.022955127488    14.003074004430
         N           -1.406430465223     1.737781003592    -0.021399127488    14.003074004430
         N            2.499223534777    -2.090176996408     0.071354872512    14.003074004430
         C           -0.586428465223    -0.398037996408    -0.004775127488    12.000000000000
         C           -0.271797465223     0.960721003592    -0.016844127488    12.000000000000
         C            1.115079534777     1.353879003592     0.001068872512    12.000000000000
         C           -2.391265465223     0.849851003592    -0.018494127488    12.000000000000
         C            1.504645534777    -1.125883996408    -0.007874127488    12.000000000000
         C           -2.755206465223    -1.666482996408     0.031830872512    12.000000000000
         H           -3.447686465223     1.090745003592    -0.024978127488     1.007825032230
         H           -2.275512265223    -2.451098796408    -0.642607427488     1.007825032230
         H           -2.808347465223    -2.053301996408     1.052249872512     1.007825032230
         H           -3.759578465223    -1.436640996408    -0.326627127488     1.007825032230
         H            2.923874534777     0.376434003592     0.115400872512     1.007825032230
         H            2.114320534777    -3.016956996408    -0.082187127488     1.007825032230
         H            3.312018534777    -1.918037996408    -0.511853127488     1.007825032230

  Basis Set: AUG-CC-PVTZ
    Blend: AUG-CC-PVTZ
  Basis Set: (AUG-CC-PVTZ AUX)
    Blend: AUG-CC-PVTZ-JKFIT
	 Reference Energy          =    -578.6283345907656894 [Eh]
	 Singles Energy            =      -0.0000000000000000 [Eh]
	 Same-Spin Energy          =      -0.6161435900010095 [Eh]
	 Opposite-Spin Energy      =      -1.8202209351804850 [Eh]
	 Correlation Energy        =      -2.4363645251814945 [Eh]
	 Total Energy              =    -581.0646991159471781 [Eh]

	 ================> DF-SCS-MP2 Energies <==================
	-----------------------------------------------------------
	 SCS Same-Spin Scale       =       0.3333333333333333 [-]
	 SCS Opposite-Spin Scale   =       1.2000000000000000 [-]
	 SCS Same-Spin Energy      =      -0.2053811966670032 [Eh]
	 SCS Opposite-Spin Energy  =      -2.1842651222165821 [Eh]
	 SCS Correlation Energy    =      -2.3896463188835853 [Eh]
	 SCS Total Energy          =    -581.0179809096492818 [Eh]
	-----------------------------------------------------------

  Dipole Moment: [D]
     X:    -0.5129      Y:    -6.7346      Z:    -0.8460     Total:     6.8069

*** Psi4 exiting successfully. Buy a developer a beer!
