                               Psi4 1.3.2 release

  ==> Input File <==

--------------------------------------------------------------------------
#psi4
#
memory 32 gb

molecule  {
0 1
  O       -1.4697740     2.5644010     0.0803940
  N        1.8970634    -0.5738607    -0.0543583
  N       -1.9102790     0.3061000     0.0485010
  N       -0.3427170    -1.4672350    -0.0387560
  N        1.5001937     1.6246252    -0.0098586
  N       -2.6294290    -1.9169300     0.1110730
  C        0.5576980    -0.4369160    -0.0295360
  C        0.3337570     0.9396730    -0.0094060
  C       -1.0221650     1.4237120     0.0351730
  C        2.4390620     0.6894910    -0.0699270
  C       -1.5730580    -1.0260450     0.0187980
  C        2.6353690    -1.8453210    -0.0655260
  H        3.5092610     0.8590810    -0.0866130
  H        2.3729340    -2.4304260     0.8177420
  H        2.3794720    -2.4140780    -0.9605130
  H        3.7041390    -1.6305860    -0.0592400
  H       -2.8879820     0.5691470     0.1693100
  H       -2.3258040    -2.8676930    -0.0642460
  H       -3.4596940    -1.6726380    -0.4173570
units angstrom
no_reorient  #important for SAPT in psi4, default
symmetry c1  #important for SAPT in psi4, default
}

set PROPERTIES_ORIGIN ["COM"]
properties('MP2/aug-cc-pvtz', properties = ['dipole'])
--------------------------------------------------------------------------

    Molecular point group: c1
  Charge       = 0
  Multiplicity = 1
  Basis Set: AUG-CC-PVTZ
    Blend: AUG-CC-PVTZ
  Basis Set: (AUG-CC-PVTZ AUX)
    Blend: AUG-CC-PVTZ-JKFIT

    Orbital Energies [Eh]
    ---------------------

    Doubly Occupied:

       1A    -20.520544     2A    -15.633115     3A    -15.628357
       4A    -15.610038     5A    -15.569487     6A    -15.557087
       7A    -11.395097     8A    -11.363455     9A    -11.315166
      10A    -11.304537    11A    -11.291149    12A    -11.243729
      13A     -1.391407    14A     -1.364035    15A     -1.334204
      16A     -1.218359    17A     -1.216909    18A     -1.190082
      19A     -1.029596    20A     -0.986623    21A     -0.902528
      22A     -0.881435    23A     -0.808274    24A     -0.767248
      25A     -0.742806    26A     -0.729392    27A     -0.691786
      28A     -0.671792    29A     -0.645924    30A     -0.642159
      31A     -0.625528    32A     -0.608409    33A     -0.598623
      34A     -0.582498    35A     -0.563591    36A     -0.541807
      37A     -0.491884    38A     -0.458692    39A     -0.439526
      40A     -0.428552    41A     -0.426383    42A     -0.394382
      43A     -0.296468

  @DF-RHF Final Energy:  -578.63072225615508

   => Energetics <=

    Nuclear Repulsion Energy =            694.5889694170411985
    One-Electron Energy =               -2166.2340591328697883
    Two-Electron Energy =                 893.0143674596735082
    Total Energy =                       -578.6307222561550816
  Basis Set: (AUG-CC-PVTZ AUX)
    Blend: AUG-CC-PVTZ-RI
    Molecular point group: c1

    Geometry (in Angstrom), charge = 0, multiplicity = 1:

       Center              X                  Y                   Z               Mass
    ------------   -----------------  -----------------  -----------------  -----------------
         O           -1.466503888832     2.564995607845     0.080225718699    15.994914619570
         N            1.900333511168    -0.573266092155    -0.054526581301    14.003074004430
         N           -1.907008888832     0.306694607845     0.048332718699    14.003074004430
         N           -0.339446888832    -1.466640392155    -0.038924281301    14.003074004430
         N            1.503463811168     1.625219807845    -0.010026881301    14.003074004430
         N           -2.626158888832    -1.916335392155     0.110904718699    14.003074004430
         C            0.560968111168    -0.436321392155    -0.029704281301    12.000000000000
         C            0.337027111168     0.940267607845    -0.009574281301    12.000000000000
         C           -1.018894888832     1.424306607845     0.035004718699    12.000000000000
         C            2.442332111168     0.690085607845    -0.070095281301    12.000000000000
         C           -1.569787888832    -1.025450392155     0.018629718699    12.000000000000
         C            2.638639111168    -1.844726392155    -0.065694281301    12.000000000000
         H            3.512531111168     0.859675607845    -0.086781281301     1.007825032230
         H            2.376204111168    -2.429831392155     0.817573718699     1.007825032230
         H            2.382742111168    -2.413483392155    -0.960681281301     1.007825032230
         H            3.707409111168    -1.629991392155    -0.059408281301     1.007825032230
         H           -2.884711888832     0.569741607845     0.169141718699     1.007825032230
         H           -2.322533888832    -2.867098392155    -0.064414281301     1.007825032230
         H           -3.456423888832    -1.672043392155    -0.417525281301     1.007825032230

  Basis Set: AUG-CC-PVTZ
    Blend: AUG-CC-PVTZ
  Basis Set: (AUG-CC-PVTZ AUX)
    Blend: AUG-CC-PVTZ-JKFIT
	 Reference Energy          =    -578.6307222561550816 [Eh]
	 Singles Energy            =      -0.0000000000000000 [Eh]
	 Same-Spin Energy          =      -0.6161575986319662 [Eh]
	 Opposite-Spin Energy      =      -1.8192689017034374 [Eh]
	 Correlation Energy        =      -2.4354265003354034 [Eh]
	 Total Energy              =    -581.0661487564905201 [Eh]

	 ================> DF-SCS-MP2 Energies <==================
	-----------------------------------------------------------
	 SCS Same-Spin Scale       =       0.3333333333333333 [-]
	 SCS Opposite-Spin Scale   =       1.2000000000000000 [-]
	 SCS Same-Spin Energy      =      -0.2053858662106554 [Eh]
	 SCS Opposite-Spin Energy  =      -2.1831226820441247 [Eh]
	 SCS Correlation Energy    =      -2.3885085482547801 [Eh]
	 SCS Total Energy          =    -581.0192308044098581 [Eh]
	-----------------------------------------------------------

  Dipole Moment: [D]
     X:     0.0874      Y:    -6.7932      Z:    -0.9410     Total:     6.8587

*** Psi4 exiting successfully. Buy a developer a beer!
