                               Psi4 1.3.2 release

  ==> Input File <==

--------------------------------------------------------------------------
#psi4
#
memory 32 gb

molecule  {
0 1
  O       -1.4296715     2.5793505     0.0799857
  N        1.9191590    -0.5831280    -0.0556370
  N       -1.9102790     0.3061000     0.0485010
  N       -0.3427170    -1.4672350    -0.0387560
  N        1.5166440     1.6409000    -0.0105650
  N       -2.6294290    -1.9169300     0.1110730
  C        0.5576980    -0.4369160    -0.0295360
  C        0.3498599     0.9872886    -0.0082759
  C       -1.0221650     1.4237120     0.0351730
  C        2.4390620     0.6894910    -0.0699270
  C       -1.5730580    -1.0260450     0.0187980
  C        2.6353690    -1.8453210    -0.0655260
  H        3.5092610     0.8590810    -0.0866130
  H        2.3729340    -2.4304260     0.8177420
  H        2.3794720    -2.4140780    -0.9605130
  H        3.7041390    -1.6305860    -0.0592400
  H       -2.8879820     0.5691470     0.1693100
  H       -2.3258040    -2.8676930    -0.0642460
  H       -3.4596940    -1.6726380    -0.4173570
units angstrom
no_reorient  #important for SAPT in psi4, default
symmetry c1  #important for SAPT in psi4, default
}

set PROPERTIES_ORIGIN ["COM"]
properties('MP2/aug-cc-pvtz', properties = ['dipole'])
--------------------------------------------------------------------------

    Molecular point group: c1
  Charge       = 0
  Multiplicity = 1
  Basis Set: AUG-CC-PVTZ
    Blend: AUG-CC-PVTZ
  Basis Set: (AUG-CC-PVTZ AUX)
    Blend: AUG-CC-PVTZ-JKFIT

    Orbital Energies [Eh]
    ---------------------

    Doubly Occupied:

       1A    -20.518315     2A    -15.635088     3A    -15.632174
       4A    -15.611384     5A    -15.572198     6A    -15.558306
       7A    -11.396816     8A    -11.362769     9A    -11.320254
      10A    -11.305127    11A    -11.289708    12A    -11.248694
      13A     -1.389335    14A     -1.359640    15A     -1.335168
      16A     -1.220433    17A     -1.218880    18A     -1.195461
      19A     -1.022648    20A     -0.988047    21A     -0.901778
      22A     -0.883033    23A     -0.807501    24A     -0.761801
      25A     -0.744608    26A     -0.731403    27A     -0.692569
      28A     -0.670379    29A     -0.647378    30A     -0.643314
      31A     -0.627170    32A     -0.607182    33A     -0.599002
      34A     -0.578552    35A     -0.562124    36A     -0.541038
      37A     -0.495333    38A     -0.460262    39A     -0.441201
      40A     -0.430053    41A     -0.421229    42A     -0.396278
      43A     -0.289556

  @DF-RHF Final Energy:  -578.62553336751716

   => Energetics <=

    Nuclear Repulsion Energy =            693.0478673756593935
    One-Electron Energy =               -2163.1204195892028110
    Two-Electron Energy =                 891.4470188460263671
    Total Energy =                       -578.6255333675171642
  Basis Set: (AUG-CC-PVTZ AUX)
    Blend: AUG-CC-PVTZ-RI
    Molecular point group: c1

    Geometry (in Angstrom), charge = 0, multiplicity = 1:

       Center              X                  Y                   Z               Mass
    ------------   -----------------  -----------------  -----------------  -----------------
         O           -1.434727996261     2.574440431581     0.079943229854    15.994914619570
         N            1.914102503739    -0.588038068419    -0.055679470146    14.003074004430
         N           -1.915335496261     0.301189931581     0.048458529854    14.003074004430
         N           -0.347773496261    -1.472145068419    -0.038798470146    14.003074004430
         N            1.511587503739     1.635989931581    -0.010607470146    14.003074004430
         N           -2.634485496261    -1.921840068419     0.111030529854    14.003074004430
         C            0.552641503739    -0.441826068419    -0.029578470146    12.000000000000
         C            0.344803403739     0.982378531581    -0.008318370146    12.000000000000
         C           -1.027221496261     1.418801931581     0.035130529854    12.000000000000
         C            2.434005503739     0.684580931581    -0.069969470146    12.000000000000
         C           -1.578114496261    -1.030955068419     0.018755529854    12.000000000000
         C            2.630312503739    -1.850231068419    -0.065568470146    12.000000000000
         H            3.504204503739     0.854170931581    -0.086655470146     1.007825032230
         H            2.367877503739    -2.435336068419     0.817699529854     1.007825032230
         H            2.374415503739    -2.418988068419    -0.960555470146     1.007825032230
         H            3.699082503739    -1.635496068419    -0.059282470146     1.007825032230
         H           -2.893038496261     0.564236931581     0.169267529854     1.007825032230
         H           -2.330860496261    -2.872603068419    -0.064288470146     1.007825032230
         H           -3.464750496261    -1.677548068419    -0.417399470146     1.007825032230

  Basis Set: AUG-CC-PVTZ
    Blend: AUG-CC-PVTZ
  Basis Set: (AUG-CC-PVTZ AUX)
    Blend: AUG-CC-PVTZ-JKFIT
	 Reference Energy          =    -578.6255333675171642 [Eh]
	 Singles Energy            =      -0.0000000000000000 [Eh]
	 Same-Spin Energy          =      -0.6172057953649550 [Eh]
	 Opposite-Spin Energy      =      -1.8208159195086808 [Eh]
	 Correlation Energy        =      -2.4380217148736358 [Eh]
	 Total Energy              =    -581.0635550823908488 [Eh]

	 ================> DF-SCS-MP2 Energies <==================
	-----------------------------------------------------------
	 SCS Same-Spin Scale       =       0.3333333333333333 [-]
	 SCS Opposite-Spin Scale   =       1.2000000000000000 [-]
	 SCS Same-Spin Energy      =      -0.2057352651216517 [Eh]
	 SCS Opposite-Spin Energy  =      -2.1849791034104169 [Eh]
	 SCS Correlation Energy    =      -2.3907143685320684 [Eh]
	 SCS Total Energy          =    -581.0162477360491948 [Eh]
	-----------------------------------------------------------

  Dipole Moment: [D]
     X:    -0.0472      Y:    -6.8236      Z:    -0.9380     Total:     6.8880

*** Psi4 exiting successfully. Buy a developer a beer!
