                               Psi4 1.3.2 release

  ==> Input File <==

--------------------------------------------------------------------------
#psi4
#
memory 32 gb

molecule  {
0 1
  O       -1.4697740     2.5644010     0.0803940
  N        1.9191590    -0.5831280    -0.0556370
  N       -1.9102790     0.3061000     0.0485010
  N       -0.3427170    -1.4672350    -0.0387560
  N        1.5166440     1.6409000    -0.0105650
  N       -2.6294290    -1.9169300     0.1110730
  C        0.5576980    -0.4369160    -0.0295360
  C        0.3337570     0.9396730    -0.0094060
  C       -1.0221650     1.4237120     0.0351730
  C        2.4390620     0.6894910    -0.0699270
  C       -1.5730580    -1.0260450     0.0187980
  C        2.6353690    -1.8453210    -0.0655260
  H        3.5092610     0.8590810    -0.0866130
  H        2.3729340    -2.4304260     0.8177420
  H        2.3794720    -2.4140780    -0.9605130
  H        3.7041390    -1.6305860    -0.0592400
  H       -2.9838679     0.5949447     0.1811581
  H       -2.3258040    -2.8676930    -0.0642460
  H       -3.4596940    -1.6726380    -0.4173570
units angstrom
no_reorient  #important for SAPT in psi4, default
symmetry c1  #important for SAPT in psi4, default
}

set PROPERTIES_ORIGIN ["COM"]
properties('MP2/aug-cc-pvtz', properties = ['dipole'])
--------------------------------------------------------------------------

    Molecular point group: c1
  Charge       = 0
  Multiplicity = 1
  Basis Set: AUG-CC-PVTZ
    Blend: AUG-CC-PVTZ
  Basis Set: (AUG-CC-PVTZ AUX)
    Blend: AUG-CC-PVTZ-JKFIT

    Orbital Energies [Eh]
    ---------------------

    Doubly Occupied:

       1A    -20.520105     2A    -15.636575     3A    -15.632470
       4A    -15.609860     5A    -15.570369     6A    -15.559303
       7A    -11.395346     8A    -11.363860     9A    -11.318689
      10A    -11.306953    11A    -11.289088    12A    -11.246804
      13A     -1.388323    14A     -1.359940    15A     -1.332063
      16A     -1.216970    17A     -1.211672    18A     -1.187673
      19A     -1.028670    20A     -0.985667    21A     -0.898605
      22A     -0.877412    23A     -0.806042    24A     -0.764961
      25A     -0.731600    26A     -0.721044    27A     -0.690346
      28A     -0.670493    29A     -0.649085    30A     -0.638062
      31A     -0.624943    32A     -0.609797    33A     -0.590859
      34A     -0.578130    35A     -0.560527    36A     -0.540796
      37A     -0.492614    38A     -0.458608    39A     -0.439266
      40A     -0.428685    41A     -0.427383    42A     -0.392269
      43A     -0.298003

  @DF-RHF Final Energy:  -578.61984887324979

   => Energetics <=

    Nuclear Repulsion Energy =            692.8258972419146176
    One-Electron Energy =               -2162.7916331245914989
    Two-Electron Energy =                 891.3458870094270878
    Total Energy =                       -578.6198488732497935
  Basis Set: (AUG-CC-PVTZ AUX)
    Blend: AUG-CC-PVTZ-RI
    Molecular point group: c1

    Geometry (in Angstrom), charge = 0, multiplicity = 1:

       Center              X                  Y                   Z               Mass
    ------------   -----------------  -----------------  -----------------  -----------------
         O           -1.469188435643     2.564243624906     0.080321781975    15.994914619570
         N            1.919744564357    -0.583285375094    -0.055709218025    14.003074004430
         N           -1.909693435643     0.305942624906     0.048428781975    14.003074004430
         N           -0.342131435643    -1.467392375094    -0.038828218025    14.003074004430
         N            1.517229564357     1.640742624906    -0.010637218025    14.003074004430
         N           -2.628843435643    -1.917087375094     0.111000781975    14.003074004430
         C            0.558283564357    -0.437073375094    -0.029608218025    12.000000000000
         C            0.334342564357     0.939515624906    -0.009478218025    12.000000000000
         C           -1.021579435643     1.423554624906     0.035100781975    12.000000000000
         C            2.439647564357     0.689333624906    -0.069999218025    12.000000000000
         C           -1.572472435643    -1.026202375094     0.018725781975    12.000000000000
         C            2.635954564357    -1.845478375094    -0.065598218025    12.000000000000
         H            3.509846564357     0.858923624906    -0.086685218025     1.007825032230
         H            2.373519564357    -2.430583375094     0.817669781975     1.007825032230
         H            2.380057564357    -2.414235375094    -0.960585218025     1.007825032230
         H            3.704724564357    -1.630743375094    -0.059312218025     1.007825032230
         H           -2.983282335643     0.594787324906     0.181085881975     1.007825032230
         H           -2.325218435643    -2.867850375094    -0.064318218025     1.007825032230
         H           -3.459108435643    -1.672795375094    -0.417429218025     1.007825032230

  Basis Set: AUG-CC-PVTZ
    Blend: AUG-CC-PVTZ
  Basis Set: (AUG-CC-PVTZ AUX)
    Blend: AUG-CC-PVTZ-JKFIT
	 Reference Energy          =    -578.6198488732497935 [Eh]
	 Singles Energy            =      -0.0000000000000000 [Eh]
	 Same-Spin Energy          =      -0.6169987401852651 [Eh]
	 Opposite-Spin Energy      =      -1.8218457231654537 [Eh]
	 Correlation Energy        =      -2.4388444633507187 [Eh]
	 Total Energy              =    -581.0586933366005269 [Eh]

	 ================> DF-SCS-MP2 Energies <==================
	-----------------------------------------------------------
	 SCS Same-Spin Scale       =       0.3333333333333333 [-]
	 SCS Opposite-Spin Scale   =       1.2000000000000000 [-]
	 SCS Same-Spin Energy      =      -0.2056662467284217 [Eh]
	 SCS Opposite-Spin Energy  =      -2.1862148677985442 [Eh]
	 SCS Correlation Energy    =      -2.3918811145269658 [Eh]
	 SCS Total Energy          =    -581.0117299877767891 [Eh]
	-----------------------------------------------------------

  Dipole Moment: [D]
     X:    -0.1125      Y:    -6.7531      Z:    -0.9221     Total:     6.8167

*** Psi4 exiting successfully. Buy a developer a beer!
