                               Psi4 1.3.2 release

  ==> Input File <==

--------------------------------------------------------------------------
#psi4
#
memory 32 gb

molecule  {
0 1
  O       -1.4697740     2.5644010     0.0803940
  N        1.9191590    -0.5831280    -0.0556370
  N       -1.8986495     0.3090002     0.0480383
  N       -0.3389118    -1.4564706    -0.0387945
  N        1.5166440     1.6409000    -0.0105650
  N       -2.6294290    -1.9169300     0.1110730
  C        0.5576980    -0.4369160    -0.0295360
  C        0.3337570     0.9396730    -0.0094060
  C       -1.0221650     1.4237120     0.0351730
  C        2.4390620     0.6894910    -0.0699270
  C       -1.5730580    -1.0260450     0.0187980
  C        2.6353690    -1.8453210    -0.0655260
  H        3.5092610     0.8590810    -0.0866130
  H        2.3729340    -2.4304260     0.8177420
  H        2.3794720    -2.4140780    -0.9605130
  H        3.7041390    -1.6305860    -0.0592400
  H       -2.8879820     0.5691470     0.1693100
  H       -2.3258040    -2.8676930    -0.0642460
  H       -3.4596940    -1.6726380    -0.4173570
units angstrom
no_reorient  #important for SAPT in psi4, default
symmetry c1  #important for SAPT in psi4, default
}

set PROPERTIES_ORIGIN ["COM"]
properties('MP2/aug-cc-pvtz', properties = ['dipole'])
--------------------------------------------------------------------------

    Molecular point group: c1
  Charge       = 0
  Multiplicity = 1
  Basis Set: AUG-CC-PVTZ
    Blend: AUG-CC-PVTZ
  Basis Set: (AUG-CC-PVTZ AUX)
    Blend: AUG-CC-PVTZ-JKFIT

    Orbital Energies [Eh]
    ---------------------

    Doubly Occupied:

       1A    -20.519338     2A    -15.632136     3A    -15.630343
       4A    -15.612297     5A    -15.569893     6A    -15.558877
       7A    -11.396692     8A    -11.362827     9A    -11.317894
      10A    -11.306800    11A    -11.289104    12A    -11.245910
      13A     -1.391251    14A     -1.360243    15A     -1.334160
      16A     -1.220941    17A     -1.217322    18A     -1.190291
      19A     -1.029366    20A     -0.986062    21A     -0.902004
      22A     -0.883938    23A     -0.808670    24A     -0.766434
      25A     -0.739226    26A     -0.730493    27A     -0.693398
      28A     -0.671424    29A     -0.649470    30A     -0.642941
      31A     -0.627595    32A     -0.610108    33A     -0.592624
      34A     -0.578395    35A     -0.560741    36A     -0.542108
      37A     -0.492687    38A     -0.460668    39A     -0.439112
      40A     -0.428988    41A     -0.427872    42A     -0.392195
      43A     -0.297285

  @DF-RHF Final Energy:  -578.63045550998595

   => Energetics <=

    Nuclear Repulsion Energy =            693.9671844342840359
    One-Electron Energy =               -2164.9750333592955940
    Two-Electron Energy =                 892.3773934150256082
    Total Energy =                       -578.6304555099859499
  Basis Set: (AUG-CC-PVTZ AUX)
    Blend: AUG-CC-PVTZ-RI
    Molecular point group: c1

    Geometry (in Angstrom), charge = 0, multiplicity = 1:

       Center              X                  Y                   Z               Mass
    ------------   -----------------  -----------------  -----------------  -----------------
         O           -1.471083260973     2.563241917838     0.080436640640    15.994914619570
         N            1.917849739027    -0.584287082162    -0.055594359360    14.003074004430
         N           -1.899958760973     0.307841117838     0.048080940640    14.003074004430
         N           -0.340221060973    -1.457629682162    -0.038751859360    14.003074004430
         N            1.515334739027     1.639740917838    -0.010522359360    14.003074004430
         N           -2.630738260973    -1.918089082162     0.111115640640    14.003074004430
         C            0.556388739027    -0.438075082162    -0.029493359360    12.000000000000
         C            0.332447739027     0.938513917838    -0.009363359360    12.000000000000
         C           -1.023474260973     1.422552917838     0.035215640640    12.000000000000
         C            2.437752739027     0.688331917838    -0.069884359360    12.000000000000
         C           -1.574367260973    -1.027204082162     0.018840640640    12.000000000000
         C            2.634059739027    -1.846480082162    -0.065483359360    12.000000000000
         H            3.507951739027     0.857921917838    -0.086570359360     1.007825032230
         H            2.371624739027    -2.431585082162     0.817784640640     1.007825032230
         H            2.378162739027    -2.415237082162    -0.960470359360     1.007825032230
         H            3.702829739027    -1.631745082162    -0.059197359360     1.007825032230
         H           -2.889291260973     0.567987917838     0.169352640640     1.007825032230
         H           -2.327113260973    -2.868852082162    -0.064203359360     1.007825032230
         H           -3.461003260973    -1.673797082162    -0.417314359360     1.007825032230

  Basis Set: AUG-CC-PVTZ
    Blend: AUG-CC-PVTZ
  Basis Set: (AUG-CC-PVTZ AUX)
    Blend: AUG-CC-PVTZ-JKFIT
	 Reference Energy          =    -578.6304555099859499 [Eh]
	 Singles Energy            =      -0.0000000000000000 [Eh]
	 Same-Spin Energy          =      -0.6162872214503378 [Eh]
	 Opposite-Spin Energy      =      -1.8197839407214773 [Eh]
	 Correlation Energy        =      -2.4360711621718152 [Eh]
	 Total Energy              =    -581.0665266721578064 [Eh]

	 ================> DF-SCS-MP2 Energies <==================
	-----------------------------------------------------------
	 SCS Same-Spin Scale       =       0.3333333333333333 [-]
	 SCS Opposite-Spin Scale   =       1.2000000000000000 [-]
	 SCS Same-Spin Energy      =      -0.2054290738167792 [Eh]
	 SCS Opposite-Spin Energy  =      -2.1837407288657729 [Eh]
	 SCS Correlation Energy    =      -2.3891698026825523 [Eh]
	 SCS Total Energy          =    -581.0196253126684951 [Eh]
	-----------------------------------------------------------

  Dipole Moment: [D]
     X:    -0.0585      Y:    -6.8676      Z:    -0.9390     Total:     6.9318

*** Psi4 exiting successfully. Buy a developer a beer!
