                               Psi4 1.4a3.dev225

  ==> Input File <==

--------------------------------------------------------------------------
#psi4
#
memory 32 gb

molecule  {
0 1
  O        1.6617960     2.5152110     0.0229320
  N       -1.9329240    -0.4005880    -0.0147920
  N        1.9545050     0.2323110     0.0113410
  N        0.2669280    -1.4301930    -0.0208730
  N       -1.3834780     1.7915450    -0.0193170
  N        2.5221760    -2.0364130     0.0734370
  C       -0.5634760    -0.3442740    -0.0026930
  C       -0.2488450     1.0144850    -0.0147620
  C        1.1380320     1.4076430     0.0031510
  C       -2.3683130     0.9036150    -0.0164120
  C        1.5275980    -1.0721200    -0.0057920
  C       -2.7322540    -1.6127190     0.0339130
  H       -3.4247340     1.1445090    -0.0228960
  H       -2.2735910    -2.3629350    -0.6109560
  H       -2.7853950    -1.9995380     1.0543320
  H       -3.7366260    -1.3828770    -0.3245450
  H        2.9955939     0.4399230     0.1226993
  H        2.1372730    -2.9631930    -0.0801050
  H        3.3349710    -1.8642740    -0.5097710
units angstrom
no_reorient  #important for SAPT in psi4, default
symmetry c1  #important for SAPT in psi4, default
}

set PROPERTIES_ORIGIN ["COM"]
properties('MP2/aug-cc-pvtz', properties = ['dipole'])
--------------------------------------------------------------------------

    Molecular point group: c1
  Charge       = 0
  Multiplicity = 1
  Basis Set: AUG-CC-PVTZ
    Blend: AUG-CC-PVTZ
  Basis Set: (AUG-CC-PVTZ AUX)
    Blend: AUG-CC-PVTZ-JKFIT

    Orbital Energies [Eh]
    ---------------------

    Doubly Occupied:

       1A    -20.521060     2A    -15.633303     3A    -15.632591
       4A    -15.610349     5A    -15.570864     6A    -15.559852
       7A    -11.395733     8A    -11.364756     9A    -11.319435
      10A    -11.306935    11A    -11.289009    12A    -11.247208
      13A     -1.389588    14A     -1.360343    15A     -1.332775
      16A     -1.217095    17A     -1.213973    18A     -1.188965
      19A     -1.028781    20A     -0.985620    21A     -0.899628
      22A     -0.879471    23A     -0.806253    24A     -0.765358
      25A     -0.734243    26A     -0.726588    27A     -0.690514
      28A     -0.670413    29A     -0.649236    30A     -0.640335
      31A     -0.624603    32A     -0.610435    33A     -0.593101
      34A     -0.578137    35A     -0.560939    36A     -0.541194
      37A     -0.492630    38A     -0.460056    39A     -0.439849
      40A     -0.429059    41A     -0.428715    42A     -0.392605
      43A     -0.298385

  @DF-RHF Final Energy:  -578.62674852936834

   => Energetics <=

    Nuclear Repulsion Energy =            692.8458830258413172
    One-Electron Energy =               -2162.7852987519213457
    Two-Electron Energy =                 891.3126671967115726
    Total Energy =                       -578.6267485293683421
  Basis Set: (AUG-CC-PVTZ AUX)
    Blend: AUG-CC-PVTZ-RI
    Molecular point group: c1

    Geometry (in Angstrom), charge = 0, multiplicity = 1:

       Center              X                  Y                   Z               Mass
    ------------   -----------------  -----------------  -----------------  -----------------
         O            1.638674191048     2.461177594197     0.020637484752    15.994914619570
         N           -1.956045808952    -0.454621405803    -0.017086515248    14.003074004430
         N            1.931383191048     0.178277594197     0.009046484752    14.003074004430
         N            0.243806191048    -1.484226405803    -0.023167515248    14.003074004430
         N           -1.406599808952     1.737511594197    -0.021611515248    14.003074004430
         N            2.499054191048    -2.090446405803     0.071142484752    14.003074004430
         C           -0.586597808952    -0.398307405803    -0.004987515248    12.000000000000
         C           -0.271966808952     0.960451594197    -0.017056515248    12.000000000000
         C            1.114910191048     1.353609594197     0.000856484752    12.000000000000
         C           -2.391434808952     0.849581594197    -0.018706515248    12.000000000000
         C            1.504476191048    -1.126153405803    -0.008086515248    12.000000000000
         C           -2.755375808952    -1.666752405803     0.031618484752    12.000000000000
         H           -3.447855808952     1.090475594197    -0.025190515248     1.007825032230
         H           -2.296712808952    -2.416968405803    -0.613250515248     1.007825032230
         H           -2.808516808952    -2.053571405803     1.052037484752     1.007825032230
         H           -3.759747808952    -1.436910405803    -0.326839515248     1.007825032230
         H            2.972472091048     0.385889594197     0.120404784752     1.007825032230
         H            2.114151191048    -3.017226405803    -0.082399515248     1.007825032230
         H            3.311849191048    -1.918307405803    -0.512065515248     1.007825032230

  Basis Set: AUG-CC-PVTZ
    Blend: AUG-CC-PVTZ
  Basis Set: (AUG-CC-PVTZ AUX)
    Blend: AUG-CC-PVTZ-JKFIT
	 Reference Energy          =    -578.6267485293683421 [Eh]
	 Singles Energy            =      -0.0000000000000000 [Eh]
	 Same-Spin Energy          =      -0.6165291733396528 [Eh]
	 Opposite-Spin Energy      =      -1.8207824808677173 [Eh]
	 Correlation Energy        =      -2.4373116542073703 [Eh]
	 Total Energy              =    -581.0640601835757479 [Eh]

	 ================> DF-SCS-MP2 Energies <==================
	-----------------------------------------------------------
	 SCS Same-Spin Scale       =       0.3333333333333333 [-]
	 SCS Opposite-Spin Scale   =       1.2000000000000000 [-]
	 SCS Same-Spin Energy      =      -0.2055097244465509 [Eh]
	 SCS Opposite-Spin Energy  =      -2.1849389770412606 [Eh]
	 SCS Correlation Energy    =      -2.3904487014878115 [Eh]
	 SCS Total Energy          =    -581.0171972308561408 [Eh]
	-----------------------------------------------------------

  Dipole Moment: [D]
     X:    -0.4713      Y:    -6.7331      Z:    -0.8439     Total:     6.8021

*** Psi4 exiting successfully. Buy a developer a beer!
