                               Psi4 1.3.2 release

  ==> Input File <==

--------------------------------------------------------------------------
#psi4
#
memory 32 gb

molecule  {
0 1
  O       -1.4697740     2.5644010     0.0803940
  N        1.9191590    -0.5831280    -0.0556370
  N       -1.9102790     0.3061000     0.0485010
  N       -0.3427170    -1.4672350    -0.0387560
  N        1.5166440     1.6409000    -0.0105650
  N       -2.6294290    -1.9169300     0.1110730
  C        0.5576980    -0.4369160    -0.0295360
  C        0.3337570     0.9396730    -0.0094060
  C       -1.0221650     1.4237120     0.0351730
  C        2.4768788     0.7820589    -0.0709664
  C       -1.5730580    -1.0260450     0.0187980
  C        2.6353690    -1.8453210    -0.0655260
  H        3.5092610     0.8590810    -0.0866130
  H        2.3729340    -2.4304260     0.8177420
  H        2.3794720    -2.4140780    -0.9605130
  H        3.7041390    -1.6305860    -0.0592400
  H       -2.8879820     0.5691470     0.1693100
  H       -2.3258040    -2.8676930    -0.0642460
  H       -3.4596940    -1.6726380    -0.4173570
units angstrom
no_reorient  #important for SAPT in psi4, default
symmetry c1  #important for SAPT in psi4, default
}

set PROPERTIES_ORIGIN ["COM"]
properties('MP2/aug-cc-pvtz', properties = ['dipole'])
--------------------------------------------------------------------------

    Molecular point group: c1
  Charge       = 0
  Multiplicity = 1
  Basis Set: AUG-CC-PVTZ
    Blend: AUG-CC-PVTZ
  Basis Set: (AUG-CC-PVTZ AUX)
    Blend: AUG-CC-PVTZ-JKFIT

    Orbital Energies [Eh]
    ---------------------

    Doubly Occupied:

       1A    -20.519528     2A    -15.629449     3A    -15.622225
       4A    -15.612403     5A    -15.571109     6A    -15.565624
       7A    -11.398768     8A    -11.364018     9A    -11.322843
      10A    -11.309219    11A    -11.282336    12A    -11.245673
      13A     -1.389087    14A     -1.350314    15A     -1.328783
      16A     -1.221072    17A     -1.219399    18A     -1.186567
      19A     -1.033852    20A     -0.974481    21A     -0.894903
      22A     -0.882567    23A     -0.813322    24A     -0.763620
      25A     -0.741365    26A     -0.731100    27A     -0.693102
      28A     -0.663534    29A     -0.642823    30A     -0.638212
      31A     -0.623755    32A     -0.619860    33A     -0.604636
      34A     -0.572160    35A     -0.558418    36A     -0.539471
      37A     -0.490190    38A     -0.461579    39A     -0.438692
      40A     -0.431477    41A     -0.426858    42A     -0.386404
      43A     -0.304329

  @DF-RHF Final Energy:  -578.62325425427730

   => Energetics <=

    Nuclear Repulsion Energy =            691.8355772154134229
    One-Electron Energy =               -2160.7794021172840075
    Two-Electron Energy =                 890.3205706475932857
    Total Energy =                       -578.6232542542772990
  Basis Set: (AUG-CC-PVTZ AUX)
    Blend: AUG-CC-PVTZ-RI
    Molecular point group: c1

    Geometry (in Angstrom), charge = 0, multiplicity = 1:

       Center              X                  Y                   Z               Mass
    ------------   -----------------  -----------------  -----------------  -----------------
         O           -1.472523107503     2.557671578508     0.080469684940    15.994914619570
         N            1.916409892497    -0.589857421492    -0.055561315060    14.003074004430
         N           -1.913028107503     0.299370578508     0.048576684940    14.003074004430
         N           -0.345466107503    -1.473964421492    -0.038680315060    14.003074004430
         N            1.513894892497     1.634170578508    -0.010489315060    14.003074004430
         N           -2.632178107503    -1.923659421492     0.111148684940    14.003074004430
         C            0.554948892497    -0.443645421492    -0.029460315060    12.000000000000
         C            0.331007892497     0.932943578508    -0.009330315060    12.000000000000
         C           -1.024914107503     1.416982578508     0.035248684940    12.000000000000
         C            2.474129692497     0.775329478508    -0.070890715060    12.000000000000
         C           -1.575807107503    -1.032774421492     0.018873684940    12.000000000000
         C            2.632619892497    -1.852050421492    -0.065450315060    12.000000000000
         H            3.506511892497     0.852351578508    -0.086537315060     1.007825032230
         H            2.370184892497    -2.437155421492     0.817817684940     1.007825032230
         H            2.376722892497    -2.420807421492    -0.960437315060     1.007825032230
         H            3.701389892497    -1.637315421492    -0.059164315060     1.007825032230
         H           -2.890731107503     0.562417578508     0.169385684940     1.007825032230
         H           -2.328553107503    -2.874422421492    -0.064170315060     1.007825032230
         H           -3.462443107503    -1.679367421492    -0.417281315060     1.007825032230

  Basis Set: AUG-CC-PVTZ
    Blend: AUG-CC-PVTZ
  Basis Set: (AUG-CC-PVTZ AUX)
    Blend: AUG-CC-PVTZ-JKFIT
	 Reference Energy          =    -578.6232542542772990 [Eh]
	 Singles Energy            =      -0.0000000000000000 [Eh]
	 Same-Spin Energy          =      -0.6147881914150155 [Eh]
	 Opposite-Spin Energy      =      -1.8186228009628973 [Eh]
	 Correlation Energy        =      -2.4334109923779126 [Eh]
	 Total Energy              =    -581.0566652466552569 [Eh]

	 ================> DF-SCS-MP2 Energies <==================
	-----------------------------------------------------------
	 SCS Same-Spin Scale       =       0.3333333333333333 [-]
	 SCS Opposite-Spin Scale   =       1.2000000000000000 [-]
	 SCS Same-Spin Energy      =      -0.2049293971383385 [Eh]
	 SCS Opposite-Spin Energy  =      -2.1823473611554767 [Eh]
	 SCS Correlation Energy    =      -2.3872767582938152 [Eh]
	 SCS Total Energy          =    -581.0105310125711640 [Eh]
	-----------------------------------------------------------

  Dipole Moment: [D]
     X:    -0.0432      Y:    -6.4983      Z:    -0.9341     Total:     6.5652

*** Psi4 exiting successfully. Buy a developer a beer!
