                               Psi4 1.3.2 release

  ==> Input File <==

--------------------------------------------------------------------------
#psi4
#
memory 32 gb

molecule  {
0 1
  O       -1.4697740     2.5644010     0.0803940
  N        1.9191590    -0.5831280    -0.0556370
  N       -1.9102790     0.3061000     0.0485010
  N       -0.3427170    -1.4672350    -0.0387560
  N        1.5166440     1.6409000    -0.0105650
  N       -2.6294290    -1.9169300     0.1110730
  C        0.5576980    -0.4369160    -0.0295360
  C        0.3337570     0.9396730    -0.0094060
  C       -1.0221650     1.4237120     0.0351730
  C        2.4390620     0.6894910    -0.0699270
  C       -1.5296238    -1.0820742     0.0035794
  C        2.6353690    -1.8453210    -0.0655260
  H        3.5092610     0.8590810    -0.0866130
  H        2.3729340    -2.4304260     0.8177420
  H        2.3794720    -2.4140780    -0.9605130
  H        3.7041390    -1.6305860    -0.0592400
  H       -2.8879820     0.5691470     0.1693100
  H       -2.2765989    -2.8491840    -0.0713784
  H       -3.4596940    -1.6726380    -0.4173570
units angstrom
no_reorient  #important for SAPT in psi4, default
symmetry c1  #important for SAPT in psi4, default
}

set PROPERTIES_ORIGIN ["COM"]
properties('MP2/aug-cc-pvtz', properties = ['dipole'])
--------------------------------------------------------------------------

    Molecular point group: c1
  Charge       = 0
  Multiplicity = 1
  Basis Set: AUG-CC-PVTZ
    Blend: AUG-CC-PVTZ
  Basis Set: (AUG-CC-PVTZ AUX)
    Blend: AUG-CC-PVTZ-JKFIT

    Orbital Energies [Eh]
    ---------------------

    Doubly Occupied:

       1A    -20.518010     2A    -15.636893     3A    -15.617625
       4A    -15.608573     5A    -15.574409     6A    -15.561984
       7A    -11.391561     8A    -11.360297     9A    -11.321872
      10A    -11.309266    11A    -11.292003    12A    -11.250707
      13A     -1.388067    14A     -1.361909    15A     -1.335579
      16A     -1.226028    17A     -1.209172    18A     -1.191885
      19A     -1.033654    20A     -0.988042    21A     -0.901493
      22A     -0.871916    23A     -0.811045    24A     -0.767952
      25A     -0.741279    26A     -0.722538    27A     -0.687438
      28A     -0.673680    29A     -0.651577    30A     -0.642801
      31A     -0.626194    32A     -0.609792    33A     -0.593803
      34A     -0.581594    35A     -0.563172    36A     -0.543440
      37A     -0.495899    38A     -0.462880    39A     -0.438335
      40A     -0.428700    41A     -0.422266    42A     -0.394910
      43A     -0.305384

  @DF-RHF Final Energy:  -578.62327962006157

   => Energetics <=

    Nuclear Repulsion Energy =            693.6066771561011137
    One-Electron Energy =               -2164.2286691115186841
    Two-Electron Energy =                 891.9987123353560037
    Total Energy =                       -578.6232796200615667
  Basis Set: (AUG-CC-PVTZ AUX)
    Blend: AUG-CC-PVTZ-RI
    Molecular point group: c1

    Geometry (in Angstrom), charge = 0, multiplicity = 1:

       Center              X                  Y                   Z               Mass
    ------------   -----------------  -----------------  -----------------  -----------------
         O           -1.473231912453     2.568361371780     0.081544040781    15.994914619570
         N            1.915701087547    -0.579167628220    -0.054486959219    14.003074004430
         N           -1.913736912453     0.310060371780     0.049651040781    14.003074004430
         N           -0.346174912453    -1.463274628220    -0.037605959219    14.003074004430
         N            1.513186087547     1.644860371780    -0.009414959219    14.003074004430
         N           -2.632886912453    -1.912969628220     0.112223040781    14.003074004430
         C            0.554240087547    -0.432955628220    -0.028385959219    12.000000000000
         C            0.330299087547     0.943633371780    -0.008255959219    12.000000000000
         C           -1.025622912453     1.427672371780     0.036323040781    12.000000000000
         C            2.435604087547     0.693451371780    -0.068776959219    12.000000000000
         C           -1.533081712453    -1.078113828220     0.004729440781    12.000000000000
         C            2.631911087547    -1.841360628220    -0.064375959219    12.000000000000
         H            3.505803087547     0.863041371780    -0.085462959219     1.007825032230
         H            2.369476087547    -2.426465628220     0.818892040781     1.007825032230
         H            2.376014087547    -2.410117628220    -0.959362959219     1.007825032230
         H            3.700681087547    -1.626625628220    -0.058089959219     1.007825032230
         H           -2.891439912453     0.573107371780     0.170460040781     1.007825032230
         H           -2.280056812453    -2.845223628220    -0.070228359219     1.007825032230
         H           -3.463151912453    -1.668677628220    -0.416206959219     1.007825032230

  Basis Set: AUG-CC-PVTZ
    Blend: AUG-CC-PVTZ
  Basis Set: (AUG-CC-PVTZ AUX)
    Blend: AUG-CC-PVTZ-JKFIT
	 Reference Energy          =    -578.6232796200615667 [Eh]
	 Singles Energy            =      -0.0000000000000000 [Eh]
	 Same-Spin Energy          =      -0.6157100969080569 [Eh]
	 Opposite-Spin Energy      =      -1.8197725558701598 [Eh]
	 Correlation Energy        =      -2.4354826527782167 [Eh]
	 Total Energy              =    -581.0587622728397719 [Eh]

	 ================> DF-SCS-MP2 Energies <==================
	-----------------------------------------------------------
	 SCS Same-Spin Scale       =       0.3333333333333333 [-]
	 SCS Opposite-Spin Scale   =       1.2000000000000000 [-]
	 SCS Same-Spin Energy      =      -0.2052366989693523 [Eh]
	 SCS Opposite-Spin Energy  =      -2.1837270670441917 [Eh]
	 SCS Correlation Energy    =      -2.3889637660135441 [Eh]
	 SCS Total Energy          =    -581.0122433860750562 [Eh]
	-----------------------------------------------------------

  Dipole Moment: [D]
     X:     0.3449      Y:    -6.9850      Z:    -0.9831     Total:     7.0622

*** Psi4 exiting successfully. Buy a developer a beer!
