                               Psi4 1.3.2 release

  ==> Input File <==

--------------------------------------------------------------------------
#psi4
#
memory 32 gb

molecule  {
0 1
  O       -1.4697740     2.5644010     0.0803940
  N        1.9191590    -0.5831280    -0.0556370
  N       -1.9102790     0.3061000     0.0485010
  N       -0.3427170    -1.4672350    -0.0387560
  N        1.5166440     1.6409000    -0.0105650
  N       -2.6294290    -1.9169300     0.1110730
  C        0.5576980    -0.4369160    -0.0295360
  C        0.3337570     0.9396730    -0.0094060
  C       -1.0221650     1.4237120     0.0351730
  C        2.4390620     0.6894910    -0.0699270
  C       -1.4205089    -0.8973935     0.0054727
  C        2.6353690    -1.8453210    -0.0655260
  H        3.5092610     0.8590810    -0.0866130
  H        2.3729340    -2.4304260     0.8177420
  H        2.3794720    -2.4140780    -0.9605130
  H        3.7041390    -1.6305860    -0.0592400
  H       -2.8879820     0.5691470     0.1693100
  H       -2.3258040    -2.8676930    -0.0642460
  H       -3.4596940    -1.6726380    -0.4173570
units angstrom
no_reorient  #important for SAPT in psi4, default
symmetry c1  #important for SAPT in psi4, default
}

set PROPERTIES_ORIGIN ["COM"]
properties('MP2/aug-cc-pvtz', properties = ['dipole'])
--------------------------------------------------------------------------

    Molecular point group: c1
  Charge       = 0
  Multiplicity = 1
  Basis Set: AUG-CC-PVTZ
    Blend: AUG-CC-PVTZ
  Basis Set: (AUG-CC-PVTZ AUX)
    Blend: AUG-CC-PVTZ-JKFIT

    Orbital Energies [Eh]
    ---------------------

    Doubly Occupied:

       1A    -20.529300     2A    -15.641368     3A    -15.640334
       4A    -15.582361     5A    -15.576309     6A    -15.568126
       7A    -11.389676     8A    -11.370239     9A    -11.329769
      10A    -11.315361    11A    -11.296147    12A    -11.258342
      13A     -1.412009    14A     -1.372673    15A     -1.347257
      16A     -1.258917    17A     -1.204222    18A     -1.158003
      19A     -1.038629    20A     -0.994461    21A     -0.912500
      22A     -0.890199    23A     -0.821513    24A     -0.782206
      25A     -0.753175    26A     -0.703083    27A     -0.687015
      28A     -0.668149    29A     -0.659088    30A     -0.643289
      31A     -0.620713    32A     -0.604701    33A     -0.599446
      34A     -0.579408    35A     -0.565303    36A     -0.546647
      37A     -0.511258    38A     -0.451762    39A     -0.447013
      40A     -0.437705    41A     -0.427207    42A     -0.402102
      43A     -0.313671

  @DF-RHF Final Energy:  -578.58305023725609

   => Energetics <=

    Nuclear Repulsion Energy =            696.3843305510553137
    One-Electron Energy =               -2169.3134437546423214
    Two-Electron Energy =                 894.3460629663308055
    Total Energy =                       -578.5830502372560886
  Basis Set: (AUG-CC-PVTZ AUX)
    Blend: AUG-CC-PVTZ-RI
    Molecular point group: c1

    Geometry (in Angstrom), charge = 0, multiplicity = 1:

       Center              X                  Y                   Z               Mass
    ------------   -----------------  -----------------  -----------------  -----------------
         O           -1.480863985949     2.555048351034     0.081362852762    15.994914619570
         N            1.908069014051    -0.592480648966    -0.054668147238    14.003074004430
         N           -1.921368985949     0.296747351034     0.049469852762    14.003074004430
         N           -0.353806985949    -1.476587648966    -0.037787147238    14.003074004430
         N            1.505554014051     1.631547351034    -0.009596147238    14.003074004430
         N           -2.640518985949    -1.926282648966     0.112041852762    14.003074004430
         C            0.546608014051    -0.446268648966    -0.028567147238    12.000000000000
         C            0.322667014051     0.930320351034    -0.008437147238    12.000000000000
         C           -1.033254985949     1.414359351034     0.036141852762    12.000000000000
         C            2.427972014051     0.680138351034    -0.068958147238    12.000000000000
         C           -1.431598885949    -0.906746148966     0.006441552762    12.000000000000
         C            2.624279014051    -1.854673648966    -0.064557147238    12.000000000000
         H            3.498171014051     0.849728351034    -0.085644147238     1.007825032230
         H            2.361844014051    -2.439778648966     0.818710852762     1.007825032230
         H            2.368382014051    -2.423430648966    -0.959544147238     1.007825032230
         H            3.693049014051    -1.639938648966    -0.058271147238     1.007825032230
         H           -2.899071985949     0.559794351034     0.170278852762     1.007825032230
         H           -2.336893985949    -2.877045648966    -0.063277147238     1.007825032230
         H           -3.470783985949    -1.681990648966    -0.416388147238     1.007825032230

  Basis Set: AUG-CC-PVTZ
    Blend: AUG-CC-PVTZ
  Basis Set: (AUG-CC-PVTZ AUX)
    Blend: AUG-CC-PVTZ-JKFIT
	 Reference Energy          =    -578.5830502372560886 [Eh]
	 Singles Energy            =      -0.0000000000000000 [Eh]
	 Same-Spin Energy          =      -0.6163067024419456 [Eh]
	 Opposite-Spin Energy      =      -1.8219927431621046 [Eh]
	 Correlation Energy        =      -2.4382994456040503 [Eh]
	 Total Energy              =    -581.0213496828600910 [Eh]

	 ================> DF-SCS-MP2 Energies <==================
	-----------------------------------------------------------
	 SCS Same-Spin Scale       =       0.3333333333333333 [-]
	 SCS Opposite-Spin Scale   =       1.2000000000000000 [-]
	 SCS Same-Spin Energy      =      -0.2054355674806485 [Eh]
	 SCS Opposite-Spin Energy  =      -2.1863912917945254 [Eh]
	 SCS Correlation Energy    =      -2.3918268592751741 [Eh]
	 SCS Total Energy          =    -580.9748770965312588 [Eh]
	-----------------------------------------------------------

  Dipole Moment: [D]
     X:     1.3190      Y:    -5.7402      Z:    -0.9954     Total:     5.9733

*** Psi4 exiting successfully. Buy a developer a beer!
