                               Psi4 1.3.2 release

  ==> Input File <==

--------------------------------------------------------------------------
#psi4
#
memory 32 gb

molecule  {
0 1
  O       -1.4697740     2.5644010     0.0803940
  N        1.9191590    -0.5831280    -0.0556370
  N       -1.9102790     0.3061000     0.0485010
  N       -0.3427170    -1.4672350    -0.0387560
  N        1.5166440     1.6409000    -0.0105650
  N       -2.6294290    -1.9169300     0.1110730
  C        0.5576980    -0.4369160    -0.0295360
  C        0.3337570     0.9396730    -0.0094060
  C       -1.0221650     1.4237120     0.0351730
  C        2.4390620     0.6894910    -0.0699270
  C       -1.5730580    -1.0260450     0.0187980
  C        2.6353690    -1.8453210    -0.0655260
  H        3.5092610     0.8590810    -0.0866130
  H        2.3729340    -2.4304260     0.8177420
  H        2.3794720    -2.4140780    -0.9605130
  H        3.7041390    -1.6305860    -0.0592400
  H       -2.8879820     0.5691470     0.1693100
  H       -2.3666380    -2.8730873    -0.0976837
  H       -3.4592733    -1.7215603    -0.4379679
units angstrom
no_reorient  #important for SAPT in psi4, default
symmetry c1  #important for SAPT in psi4, default
}

set PROPERTIES_ORIGIN ["COM"]
properties('MP2/aug-cc-pvtz', properties = ['dipole'])
--------------------------------------------------------------------------

    Molecular point group: c1
  Charge       = 0
  Multiplicity = 1
  Basis Set: AUG-CC-PVTZ
    Blend: AUG-CC-PVTZ
  Basis Set: (AUG-CC-PVTZ AUX)
    Blend: AUG-CC-PVTZ-JKFIT

    Orbital Energies [Eh]
    ---------------------

    Doubly Occupied:

       1A    -20.520873     2A    -15.633000     3A    -15.629455
       4A    -15.610274     5A    -15.571291     6A    -15.559702
       7A    -11.397058     8A    -11.364310     9A    -11.319134
      10A    -11.307468    11A    -11.289405    12A    -11.247219
      13A     -1.390642    14A     -1.360645    15A     -1.333729
      16A     -1.219268    17A     -1.216277    18A     -1.190725
      19A     -1.029998    20A     -0.986543    21A     -0.901514
      22A     -0.884413    23A     -0.807040    24A     -0.766043
      25A     -0.740579    26A     -0.733998    27A     -0.684710
      28A     -0.670782    29A     -0.649350    30A     -0.642926
      31A     -0.626213    32A     -0.610500    33A     -0.593798
      34A     -0.578589    35A     -0.561046    36A     -0.541624
      37A     -0.493819    38A     -0.460272    39A     -0.439983
      40A     -0.429286    41A     -0.428815    42A     -0.392784
      43A     -0.298693

  @DF-RHF Final Energy:  -578.62963300661795

   => Energetics <=

    Nuclear Repulsion Energy =            693.3062096456435484
    One-Electron Energy =               -2163.6441079512633223
    Two-Electron Energy =                 891.7082652990018232
    Total Energy =                       -578.6296330066179507
  Basis Set: (AUG-CC-PVTZ AUX)
    Blend: AUG-CC-PVTZ-RI
    Molecular point group: c1

    Geometry (in Angstrom), charge = 0, multiplicity = 1:

       Center              X                  Y                   Z               Mass
    ------------   -----------------  -----------------  -----------------  -----------------
         O           -1.469527130427     2.564732772622     0.080724122385    15.994914619570
         N            1.919405869573    -0.582796227378    -0.055306877615    14.003074004430
         N           -1.910032130427     0.306431772622     0.048831122385    14.003074004430
         N           -0.342470130427    -1.466903227378    -0.038425877615    14.003074004430
         N            1.516890869573     1.641231772622    -0.010234877615    14.003074004430
         N           -2.629182130427    -1.916598227378     0.111403122385    14.003074004430
         C            0.557944869573    -0.436584227378    -0.029205877615    12.000000000000
         C            0.334003869573     0.940004772622    -0.009075877615    12.000000000000
         C           -1.021918130427     1.424043772622     0.035503122385    12.000000000000
         C            2.439308869573     0.689822772622    -0.069596877615    12.000000000000
         C           -1.572811130427    -1.025713227378     0.019128122385    12.000000000000
         C            2.635615869573    -1.844989227378    -0.065195877615    12.000000000000
         H            3.509507869573     0.859412772622    -0.086282877615     1.007825032230
         H            2.373180869573    -2.430094227378     0.818072122385     1.007825032230
         H            2.379718869573    -2.413746227378    -0.960182877615     1.007825032230
         H            3.704385869573    -1.630254227378    -0.058909877615     1.007825032230
         H           -2.887735130427     0.569478772622     0.169640122385     1.007825032230
         H           -2.366391130427    -2.872755527378    -0.097353577615     1.007825032230
         H           -3.459026430427    -1.721228527378    -0.437637777615     1.007825032230

  Basis Set: AUG-CC-PVTZ
    Blend: AUG-CC-PVTZ
  Basis Set: (AUG-CC-PVTZ AUX)
    Blend: AUG-CC-PVTZ-JKFIT
	 Reference Energy          =    -578.6296330066179507 [Eh]
	 Singles Energy            =      -0.0000000000000000 [Eh]
	 Same-Spin Energy          =      -0.6160993897975349 [Eh]
	 Opposite-Spin Energy      =      -1.8199167307914927 [Eh]
	 Correlation Energy        =      -2.4360161205890276 [Eh]
	 Total Energy              =    -581.0656491272069388 [Eh]

	 ================> DF-SCS-MP2 Energies <==================
	-----------------------------------------------------------
	 SCS Same-Spin Scale       =       0.3333333333333333 [-]
	 SCS Opposite-Spin Scale   =       1.2000000000000000 [-]
	 SCS Same-Spin Energy      =      -0.2053664632658450 [Eh]
	 SCS Opposite-Spin Energy  =      -2.1839000769497914 [Eh]
	 SCS Correlation Energy    =      -2.3892665402156363 [Eh]
	 SCS Total Energy          =    -581.0188995468336088 [Eh]
	-----------------------------------------------------------

  Dipole Moment: [D]
     X:     0.0017      Y:    -6.8089      Z:    -1.0042     Total:     6.8826

*** Psi4 exiting successfully. Buy a developer a beer!
