                               Psi4 1.3.2 release

  ==> Input File <==

--------------------------------------------------------------------------
#psi4
#
memory 32 gb

molecule  {
0 1
  O       -1.4697740     2.5644010     0.0803940
  N        1.9191590    -0.5831280    -0.0556370
  N       -1.9102790     0.3061000     0.0485010
  N       -0.3427170    -1.4672350    -0.0387560
  N        1.5166440     1.6409000    -0.0105650
  N       -2.6294290    -1.9169300     0.1110730
  C        0.5576980    -0.4369160    -0.0295360
  C        0.3337570     0.9396730    -0.0094060
  C       -1.0221650     1.4237120     0.0351730
  C        2.4390620     0.6894910    -0.0699270
  C       -1.5730580    -1.0260450     0.0187980
  C        2.5366679    -1.6713778    -0.0641632
  H        3.5092610     0.8590810    -0.0866130
  H        2.3729340    -2.4304260     0.8177420
  H        2.3794720    -2.4140780    -0.9605130
  H        3.7041390    -1.6305860    -0.0592400
  H       -2.8879820     0.5691470     0.1693100
  H       -2.3258040    -2.8676930    -0.0642460
  H       -3.4596940    -1.6726380    -0.4173570
units angstrom
no_reorient  #important for SAPT in psi4, default
symmetry c1  #important for SAPT in psi4, default
}

set PROPERTIES_ORIGIN ["COM"]
properties('MP2/aug-cc-pvtz', properties = ['dipole'])
--------------------------------------------------------------------------

    Molecular point group: c1
  Charge       = 0
  Multiplicity = 1
  Basis Set: AUG-CC-PVTZ
    Blend: AUG-CC-PVTZ
  Basis Set: (AUG-CC-PVTZ AUX)
    Blend: AUG-CC-PVTZ-JKFIT

    Orbital Energies [Eh]
    ---------------------

    Doubly Occupied:

       1A    -20.525563     2A    -15.634908     3A    -15.633617
       4A    -15.613538     5A    -15.575268     6A    -15.567773
       7A    -11.400371     8A    -11.369193     9A    -11.326189
      10A    -11.314336    11A    -11.289951    12A    -11.254068
      13A     -1.404675    14A     -1.383098    15A     -1.341335
      16A     -1.235271    17A     -1.221989    18A     -1.214526
      19A     -1.038027    20A     -0.988663    21A     -0.911889
      22A     -0.886988    23A     -0.813566    24A     -0.777786
      25A     -0.752242    26A     -0.734744    27A     -0.701596
      28A     -0.686834    29A     -0.677861    30A     -0.648907
      31A     -0.629392    32A     -0.618828    33A     -0.601838
      34A     -0.553697    35A     -0.530816    36A     -0.524065
      37A     -0.496405    38A     -0.463053    39A     -0.445457
      40A     -0.433680    41A     -0.433376    42A     -0.383228
      43A     -0.304308

  @DF-RHF Final Energy:  -578.57995553077433

   => Energetics <=

    Nuclear Repulsion Energy =            698.1189692233944015
    One-Electron Energy =               -2172.7120243896815737
    Two-Electron Energy =                 896.0130996355129582
    Total Energy =                       -578.5799555307743276
  Basis Set: (AUG-CC-PVTZ AUX)
    Blend: AUG-CC-PVTZ-RI
    Molecular point group: c1

    Geometry (in Angstrom), charge = 0, multiplicity = 1:

       Center              X                  Y                   Z               Mass
    ------------   -----------------  -----------------  -----------------  -----------------
         O           -1.462598446274     2.551755707513     0.080295048345    15.994914619570
         N            1.926334553726    -0.595773292487    -0.055735951655    14.003074004430
         N           -1.903103446274     0.293454707513     0.048402048345    14.003074004430
         N           -0.335541446274    -1.479880292487    -0.038854951655    14.003074004430
         N            1.523819553726     1.628254707513    -0.010663951655    14.003074004430
         N           -2.622253446274    -1.929575292487     0.110974048345    14.003074004430
         C            0.564873553726    -0.449561292487    -0.029634951655    12.000000000000
         C            0.340932553726     0.927027707513    -0.009504951655    12.000000000000
         C           -1.014989446274     1.411066707513     0.035074048345    12.000000000000
         C            2.446237553726     0.676845707513    -0.070025951655    12.000000000000
         C           -1.565882446274    -1.038690292487     0.018699048345    12.000000000000
         C            2.543843453726    -1.684023092487    -0.064262151655    12.000000000000
         H            3.516436553726     0.846435707513    -0.086711951655     1.007825032230
         H            2.380109553726    -2.443071292487     0.817643048345     1.007825032230
         H            2.386647553726    -2.426723292487    -0.960611951655     1.007825032230
         H            3.711314553726    -1.643231292487    -0.059338951655     1.007825032230
         H           -2.880806446274     0.556501707513     0.169211048345     1.007825032230
         H           -2.318628446274    -2.880338292487    -0.064344951655     1.007825032230
         H           -3.452518446274    -1.685283292487    -0.417455951655     1.007825032230

  Basis Set: AUG-CC-PVTZ
    Blend: AUG-CC-PVTZ
  Basis Set: (AUG-CC-PVTZ AUX)
    Blend: AUG-CC-PVTZ-JKFIT
	 Reference Energy          =    -578.5799555307743276 [Eh]
	 Singles Energy            =      -0.0000000000000000 [Eh]
	 Same-Spin Energy          =      -0.6187404484517399 [Eh]
	 Opposite-Spin Energy      =      -1.8226590733253762 [Eh]
	 Correlation Energy        =      -2.4413995217771163 [Eh]
	 Total Energy              =    -581.0213550525514847 [Eh]

	 ================> DF-SCS-MP2 Energies <==================
	-----------------------------------------------------------
	 SCS Same-Spin Scale       =       0.3333333333333333 [-]
	 SCS Opposite-Spin Scale   =       1.2000000000000000 [-]
	 SCS Same-Spin Energy      =      -0.2062468161505800 [Eh]
	 SCS Opposite-Spin Energy  =      -2.1871908879904516 [Eh]
	 SCS Correlation Energy    =      -2.3934377041410317 [Eh]
	 SCS Total Energy          =    -580.9733932349153065 [Eh]
	-----------------------------------------------------------

  Dipole Moment: [D]
     X:    -0.4871      Y:    -6.2126      Z:    -0.9231     Total:     6.2997

*** Psi4 exiting successfully. Buy a developer a beer!
