                               Psi4 1.3.2 release

  ==> Input File <==

--------------------------------------------------------------------------
#psi4
#
memory 32 gb

molecule  {
0 1
  O       -1.4697740     2.5644010     0.0803940
  N        1.9191590    -0.5831280    -0.0556370
  N       -1.9102790     0.3061000     0.0485010
  N       -0.3427170    -1.4672350    -0.0387560
  N        1.5166440     1.6409000    -0.0105650
  N       -2.6294290    -1.9169300     0.1110730
  C        0.5576980    -0.4369160    -0.0295360
  C        0.3337570     0.9396730    -0.0094060
  C       -1.0221650     1.4237120     0.0351730
  C        2.4390620     0.6894910    -0.0699270
  C       -1.5615403    -1.0230423     0.0173160
  C        2.6353690    -1.8453210    -0.0655260
  H        3.5092610     0.8590810    -0.0866130
  H        2.3729340    -2.4304260     0.8177420
  H        2.3794720    -2.4140780    -0.9605130
  H        3.7041390    -1.6305860    -0.0592400
  H       -2.8856775     0.5777334     0.1689365
  H       -2.3258040    -2.8676930    -0.0642460
  H       -3.4596940    -1.6726380    -0.4173570
units angstrom
no_reorient  #important for SAPT in psi4, default
symmetry c1  #important for SAPT in psi4, default
}

set PROPERTIES_ORIGIN ["COM"]
properties('MP2/aug-cc-pvtz', properties = ['dipole'])
--------------------------------------------------------------------------

    Molecular point group: c1
  Charge       = 0
  Multiplicity = 1
  Basis Set: AUG-CC-PVTZ
    Blend: AUG-CC-PVTZ
  Basis Set: (AUG-CC-PVTZ AUX)
    Blend: AUG-CC-PVTZ-JKFIT

    Orbital Energies [Eh]
    ---------------------

    Doubly Occupied:

       1A    -20.521204     2A    -15.633656     3A    -15.629025
       4A    -15.608568     5A    -15.571804     6A    -15.560228
       7A    -11.395223     8A    -11.364234     9A    -11.319820
      10A    -11.307885    11A    -11.289956    12A    -11.247862
      13A     -1.391251    14A     -1.361332    15A     -1.333725
      16A     -1.218706    17A     -1.215313    18A     -1.191906
      19A     -1.030288    20A     -0.987016    21A     -0.901910
      22A     -0.881967    23A     -0.808709    24A     -0.767383
      25A     -0.741428    26A     -0.726687    27A     -0.690537
      28A     -0.671835    29A     -0.649920    30A     -0.641853
      31A     -0.626878    32A     -0.610935    33A     -0.594189
      34A     -0.579090    35A     -0.560957    36A     -0.541780
      37A     -0.495420    38A     -0.458766    39A     -0.440366
      40A     -0.429866    41A     -0.429280    42A     -0.393403
      43A     -0.299833

  @DF-RHF Final Energy:  -578.63072555166889

   => Energetics <=

    Nuclear Repulsion Energy =            693.5991373346746514
    One-Electron Energy =               -2164.2157362543734962
    Two-Electron Energy =                 891.9858733680299565
    Total Energy =                       -578.6307255516688883
  Basis Set: (AUG-CC-PVTZ AUX)
    Blend: AUG-CC-PVTZ-RI
    Molecular point group: c1

    Geometry (in Angstrom), charge = 0, multiplicity = 1:

       Center              X                  Y                   Z               Mass
    ------------   -----------------  -----------------  -----------------  -----------------
         O           -1.470625269963     2.564130418507     0.080504141794    15.994914619570
         N            1.918307730037    -0.583398581493    -0.055526858206    14.003074004430
         N           -1.911130269963     0.305829418507     0.048611141794    14.003074004430
         N           -0.343568269963    -1.467505581493    -0.038645858206    14.003074004430
         N            1.515792730037     1.640629418507    -0.010454858206    14.003074004430
         N           -2.630280269963    -1.917200581493     0.111183141794    14.003074004430
         C            0.556846730037    -0.437186581493    -0.029425858206    12.000000000000
         C            0.332905730037     0.939402418507    -0.009295858206    12.000000000000
         C           -1.023016269963     1.423441418507     0.035283141794    12.000000000000
         C            2.438210730037     0.689220418507    -0.069816858206    12.000000000000
         C           -1.562391569963    -1.023312881493     0.017426141794    12.000000000000
         C            2.634517730037    -1.845591581493    -0.065415858206    12.000000000000
         H            3.508409730037     0.858810418507    -0.086502858206     1.007825032230
         H            2.372082730037    -2.430696581493     0.817852141794     1.007825032230
         H            2.378620730037    -2.414348581493    -0.960402858206     1.007825032230
         H            3.703287730037    -1.630856581493    -0.059129858206     1.007825032230
         H           -2.886528769963     0.577462818507     0.169046641794     1.007825032230
         H           -2.326655269963    -2.867963581493    -0.064135858206     1.007825032230
         H           -3.460545269963    -1.672908581493    -0.417246858206     1.007825032230

  Basis Set: AUG-CC-PVTZ
    Blend: AUG-CC-PVTZ
  Basis Set: (AUG-CC-PVTZ AUX)
    Blend: AUG-CC-PVTZ-JKFIT
	 Reference Energy          =    -578.6307255516688883 [Eh]
	 Singles Energy            =      -0.0000000000000000 [Eh]
	 Same-Spin Energy          =      -0.6159670473030818 [Eh]
	 Opposite-Spin Energy      =      -1.8197446774287933 [Eh]
	 Correlation Energy        =      -2.4357117247318749 [Eh]
	 Total Energy              =    -581.0664372764007339 [Eh]

	 ================> DF-SCS-MP2 Energies <==================
	-----------------------------------------------------------
	 SCS Same-Spin Scale       =       0.3333333333333333 [-]
	 SCS Opposite-Spin Scale   =       1.2000000000000000 [-]
	 SCS Same-Spin Energy      =      -0.2053223491010273 [Eh]
	 SCS Opposite-Spin Energy  =      -2.1836936129145519 [Eh]
	 SCS Correlation Energy    =      -2.3890159620155793 [Eh]
	 SCS Total Energy          =    -581.0197415136844938 [Eh]
	-----------------------------------------------------------

  Dipole Moment: [D]
     X:     0.0896      Y:    -6.7410      Z:    -0.9437     Total:     6.8073

*** Psi4 exiting successfully. Buy a developer a beer!
