                               Psi4 1.3.2 release

  ==> Input File <==

--------------------------------------------------------------------------
#psi4
#
memory 32 gb

molecule  {
0 1
  O       -1.4697740     2.5644010     0.0803940
  N        1.9191590    -0.5831280    -0.0556370
  N       -1.9102790     0.3061000     0.0485010
  N       -0.3427170    -1.4672350    -0.0387560
  N        1.5166440     1.6409000    -0.0105650
  N       -2.6294290    -1.9169300     0.1110730
  C        0.5576980    -0.4369160    -0.0295360
  C        0.3337570     0.9396730    -0.0094060
  C       -1.0221650     1.4237120     0.0351730
  C        2.4390620     0.6894910    -0.0699270
  C       -1.5730580    -1.0260450     0.0187980
  C        2.6353690    -1.8453210    -0.0655260
  H        3.5092610     0.8590810    -0.0866130
  H        2.3729340    -2.4304260     0.8177420
  H        2.3794720    -2.4140780    -0.9605130
  H        3.7041390    -1.6305860    -0.0592400
  H       -2.6962102     0.5175516     0.1456139
  H       -2.3258040    -2.8676930    -0.0642460
  H       -3.4596940    -1.6726380    -0.4173570
units angstrom
no_reorient  #important for SAPT in psi4, default
symmetry c1  #important for SAPT in psi4, default
}

set PROPERTIES_ORIGIN ["COM"]
properties('MP2/aug-cc-pvtz', properties = ['dipole'])
--------------------------------------------------------------------------

    Molecular point group: c1
  Charge       = 0
  Multiplicity = 1
  Basis Set: AUG-CC-PVTZ
    Blend: AUG-CC-PVTZ
  Basis Set: (AUG-CC-PVTZ AUX)
    Blend: AUG-CC-PVTZ-JKFIT

    Orbital Energies [Eh]
    ---------------------

    Doubly Occupied:

       1A    -20.522477     2A    -15.633719     3A    -15.612216
       4A    -15.610010     5A    -15.572010     6A    -15.560236
       7A    -11.397629     8A    -11.365220     9A    -11.320067
      10A    -11.307947    11A    -11.289999    12A    -11.247396
      13A     -1.399124    14A     -1.361925    15A     -1.339898
      16A     -1.240310    17A     -1.218457    18A     -1.195005
      19A     -1.031412    20A     -0.988919    21A     -0.917412
      22A     -0.891520    23A     -0.814820    24A     -0.781451
      25A     -0.761320    26A     -0.731415    27A     -0.694552
      28A     -0.672413    29A     -0.650828    30A     -0.647753
      31A     -0.629280    32A     -0.611651    33A     -0.597090
      34A     -0.579274    35A     -0.562067    36A     -0.543177
      37A     -0.495600    38A     -0.460546    39A     -0.441251
      40A     -0.432846    41A     -0.429754    42A     -0.393662
      43A     -0.299217

  @DF-RHF Final Energy:  -578.58928442752540

   => Energetics <=

    Nuclear Repulsion Energy =            694.9668498063468860
    One-Electron Energy =               -2166.6065120075313644
    Two-Electron Energy =                 893.0503777736589655
    Total Energy =                       -578.5892844275253992
  Basis Set: (AUG-CC-PVTZ AUX)
    Blend: AUG-CC-PVTZ-RI
    Molecular point group: c1

    Geometry (in Angstrom), charge = 0, multiplicity = 1:

       Center              X                  Y                   Z               Mass
    ------------   -----------------  -----------------  -----------------  -----------------
         O           -1.470944765123     2.564716158000     0.080538801461    15.994914619570
         N            1.917988234877    -0.582812842000    -0.055492198539    14.003074004430
         N           -1.911449765123     0.306415158000     0.048645801461    14.003074004430
         N           -0.343887765123    -1.466919842000    -0.038611198539    14.003074004430
         N            1.515473234877     1.641215158000    -0.010420198539    14.003074004430
         N           -2.630599765123    -1.916614842000     0.111217801461    14.003074004430
         C            0.556527234877    -0.436600842000    -0.029391198539    12.000000000000
         C            0.332586234877     0.939988158000    -0.009261198539    12.000000000000
         C           -1.023335765123     1.424027158000     0.035317801461    12.000000000000
         C            2.437891234877     0.689806158000    -0.069782198539    12.000000000000
         C           -1.574228765123    -1.025729842000     0.018942801461    12.000000000000
         C            2.634198234877    -1.845005842000    -0.065381198539    12.000000000000
         H            3.508090234877     0.859396158000    -0.086468198539     1.007825032230
         H            2.371763234877    -2.430110842000     0.817886801461     1.007825032230
         H            2.378301234877    -2.413762842000    -0.960368198539     1.007825032230
         H            3.702968234877    -1.630270842000    -0.059095198539     1.007825032230
         H           -2.697380965123     0.517866758000     0.145758701461     1.007825032230
         H           -2.326974765123    -2.867377842000    -0.064101198539     1.007825032230
         H           -3.460864765123    -1.672322842000    -0.417212198539     1.007825032230

  Basis Set: AUG-CC-PVTZ
    Blend: AUG-CC-PVTZ
  Basis Set: (AUG-CC-PVTZ AUX)
    Blend: AUG-CC-PVTZ-JKFIT
	 Reference Energy          =    -578.5892844275253992 [Eh]
	 Singles Energy            =      -0.0000000000000000 [Eh]
	 Same-Spin Energy          =      -0.6145510193621582 [Eh]
	 Opposite-Spin Energy      =      -1.8171250931527954 [Eh]
	 Correlation Energy        =      -2.4316761125149533 [Eh]
	 Total Energy              =    -581.0209605400403916 [Eh]

	 ================> DF-SCS-MP2 Energies <==================
	-----------------------------------------------------------
	 SCS Same-Spin Scale       =       0.3333333333333333 [-]
	 SCS Opposite-Spin Scale   =       1.2000000000000000 [-]
	 SCS Same-Spin Energy      =      -0.2048503397873860 [Eh]
	 SCS Opposite-Spin Energy  =      -2.1805501117833543 [Eh]
	 SCS Correlation Energy    =      -2.3854004515707405 [Eh]
	 SCS Total Energy          =    -580.9746848790961167 [Eh]
	-----------------------------------------------------------

  Dipole Moment: [D]
     X:     0.1900      Y:    -6.8631      Z:    -0.9666     Total:     6.9334

*** Psi4 exiting successfully. Buy a developer a beer!
