                               Psi4 1.3.2 release

  ==> Input File <==

--------------------------------------------------------------------------
#psi4
#
memory 32 gb

molecule  {
0 1
  O       -1.4697740     2.5644010     0.0803940
  N        1.9191590    -0.5831280    -0.0556370
  N       -1.9102790     0.3061000     0.0485010
  N       -0.3427170    -1.4672350    -0.0387560
  N        1.5166440     1.6409000    -0.0105650
  N       -2.6294290    -1.9169300     0.1110730
  C        0.5576980    -0.4369160    -0.0295360
  C        0.3337570     0.9396730    -0.0094060
  C       -1.0319439     1.4314185     0.0356005
  C        2.4390620     0.6894910    -0.0699270
  C       -1.5846921    -1.0289437     0.0191373
  C        2.6353690    -1.8453210    -0.0655260
  H        3.5092610     0.8590810    -0.0866130
  H        2.3729340    -2.4304260     0.8177420
  H        2.3794720    -2.4140780    -0.9605130
  H        3.7041390    -1.6305860    -0.0592400
  H       -2.8879820     0.5691470     0.1693100
  H       -2.3258040    -2.8676930    -0.0642460
  H       -3.4596940    -1.6726380    -0.4173570
units angstrom
no_reorient  #important for SAPT in psi4, default
symmetry c1  #important for SAPT in psi4, default
}

set PROPERTIES_ORIGIN ["COM"]
properties('MP2/aug-cc-pvtz', properties = ['dipole'])
--------------------------------------------------------------------------

    Molecular point group: c1
  Charge       = 0
  Multiplicity = 1
  Basis Set: AUG-CC-PVTZ
    Blend: AUG-CC-PVTZ
  Basis Set: (AUG-CC-PVTZ AUX)
    Blend: AUG-CC-PVTZ-JKFIT

    Orbital Energies [Eh]
    ---------------------

    Doubly Occupied:

       1A    -20.523353     2A    -15.631139     3A    -15.628955
       4A    -15.612359     5A    -15.569130     6A    -15.558097
       7A    -11.396565     8A    -11.364705     9A    -11.316779
      10A    -11.305515    11A    -11.288128    12A    -11.245841
      13A     -1.394129    14A     -1.361610    15A     -1.335325
      16A     -1.222293    17A     -1.213735    18A     -1.188407
      19A     -1.026353    20A     -0.984550    21A     -0.899555
      22A     -0.882439    23A     -0.806904    24A     -0.765454
      25A     -0.739502    26A     -0.731222    27A     -0.693542
      28A     -0.669621    29A     -0.650420    30A     -0.641129
      31A     -0.626048    32A     -0.613571    33A     -0.592177
      34A     -0.577465    35A     -0.560549    36A     -0.544012
      37A     -0.491324    38A     -0.459483    39A     -0.440808
      40A     -0.429908    41A     -0.427852    42A     -0.391222
      43A     -0.295833

  @DF-RHF Final Energy:  -578.63076577663423

   => Energetics <=

    Nuclear Repulsion Energy =            693.2170694506700102
    One-Electron Energy =               -2163.5016506011384081
    Two-Electron Energy =                 891.6538153738342771
    Total Energy =                       -578.6307657766342345
  Basis Set: (AUG-CC-PVTZ AUX)
    Blend: AUG-CC-PVTZ-RI
    Molecular point group: c1

    Geometry (in Angstrom), charge = 0, multiplicity = 1:

       Center              X                  Y                   Z               Mass
    ------------   -----------------  -----------------  -----------------  -----------------
         O           -1.468217183520     2.564051615572     0.080338376715    15.994914619570
         N            1.920715816480    -0.583477384428    -0.055692623285    14.003074004430
         N           -1.908722183520     0.305750615572     0.048445376715    14.003074004430
         N           -0.341160183520    -1.467584384428    -0.038811623285    14.003074004430
         N            1.518200816480     1.640550615572    -0.010620623285    14.003074004430
         N           -2.627872183520    -1.917279384428     0.111017376715    14.003074004430
         C            0.559254816480    -0.437265384428    -0.029591623285    12.000000000000
         C            0.335313816480     0.939323615572    -0.009461623285    12.000000000000
         C           -1.030387083520     1.431069115572     0.035544876715    12.000000000000
         C            2.440618816480     0.689141615572    -0.069982623285    12.000000000000
         C           -1.583135283520    -1.029293084428     0.019081676715    12.000000000000
         C            2.636925816480    -1.845670384428    -0.065581623285    12.000000000000
         H            3.510817816480     0.858731615572    -0.086668623285     1.007825032230
         H            2.374490816480    -2.430775384428     0.817686376715     1.007825032230
         H            2.381028816480    -2.414427384428    -0.960568623285     1.007825032230
         H            3.705695816480    -1.630935384428    -0.059295623285     1.007825032230
         H           -2.886425183520     0.568797615572     0.169254376715     1.007825032230
         H           -2.324247183520    -2.868042384428    -0.064301623285     1.007825032230
         H           -3.458137183520    -1.672987384428    -0.417412623285     1.007825032230

  Basis Set: AUG-CC-PVTZ
    Blend: AUG-CC-PVTZ
  Basis Set: (AUG-CC-PVTZ AUX)
    Blend: AUG-CC-PVTZ-JKFIT
	 Reference Energy          =    -578.6307657766342345 [Eh]
	 Singles Energy            =      -0.0000000000000000 [Eh]
	 Same-Spin Energy          =      -0.6159772315087111 [Eh]
	 Opposite-Spin Energy      =      -1.8195180233553374 [Eh]
	 Correlation Energy        =      -2.4354952548640485 [Eh]
	 Total Energy              =    -581.0662610314982430 [Eh]

	 ================> DF-SCS-MP2 Energies <==================
	-----------------------------------------------------------
	 SCS Same-Spin Scale       =       0.3333333333333333 [-]
	 SCS Opposite-Spin Scale   =       1.2000000000000000 [-]
	 SCS Same-Spin Energy      =      -0.2053257438362370 [Eh]
	 SCS Opposite-Spin Energy  =      -2.1834216280264047 [Eh]
	 SCS Correlation Energy    =      -2.3887473718626415 [Eh]
	 SCS Total Energy          =    -581.0195131484969124 [Eh]
	-----------------------------------------------------------

  Dipole Moment: [D]
     X:    -0.1830      Y:    -6.7420      Z:    -0.9296     Total:     6.8082

*** Psi4 exiting successfully. Buy a developer a beer!
