                               Psi4 1.3.2 release

  ==> Input File <==

--------------------------------------------------------------------------
#psi4
#
memory 32 gb

molecule  {
0 1
  O       -1.4697740     2.5644010     0.0803940
  N        1.9191590    -0.5831280    -0.0556370
  N       -1.9102790     0.3061000     0.0485010
  N       -0.3427170    -1.4672350    -0.0387560
  N        1.5166440     1.6409000    -0.0105650
  N       -2.6294290    -1.9169300     0.1110730
  C        0.4853702    -0.4467749    -0.0275094
  C        0.3337570     0.9396730    -0.0094060
  C       -1.0456502     1.3520507     0.0351570
  C        2.4390620     0.6894910    -0.0699270
  C       -1.5730580    -1.0260450     0.0187980
  C        2.6353690    -1.8453210    -0.0655260
  H        3.5092610     0.8590810    -0.0866130
  H        2.3729340    -2.4304260     0.8177420
  H        2.3794720    -2.4140780    -0.9605130
  H        3.7041390    -1.6305860    -0.0592400
  H       -2.8879820     0.5691470     0.1693100
  H       -2.3258040    -2.8676930    -0.0642460
  H       -3.4596940    -1.6726380    -0.4173570
units angstrom
no_reorient  #important for SAPT in psi4, default
symmetry c1  #important for SAPT in psi4, default
}

set PROPERTIES_ORIGIN ["COM"]
properties('MP2/aug-cc-pvtz', properties = ['dipole'])
--------------------------------------------------------------------------

    Molecular point group: c1
  Charge       = 0
  Multiplicity = 1
  Basis Set: AUG-CC-PVTZ
    Blend: AUG-CC-PVTZ
  Basis Set: (AUG-CC-PVTZ AUX)
    Blend: AUG-CC-PVTZ-JKFIT

    Orbital Energies [Eh]
    ---------------------

    Doubly Occupied:

       1A    -20.503825     2A    -15.645254     3A    -15.626562
       4A    -15.619214     5A    -15.581908     6A    -15.557584
       7A    -11.406809     8A    -11.359535     9A    -11.321879
      10A    -11.311344    11A    -11.285495    12A    -11.252112
      13A     -1.396434    14A     -1.340215    15A     -1.320751
      16A     -1.237063    17A     -1.230859    18A     -1.186842
      19A     -1.033140    20A     -0.977702    21A     -0.907351
      22A     -0.902614    23A     -0.818283    24A     -0.763823
      25A     -0.749545    26A     -0.734374    27A     -0.699704
      28A     -0.672178    29A     -0.653574    30A     -0.639964
      31A     -0.633678    32A     -0.599986    33A     -0.583516
      34A     -0.567272    35A     -0.557230    36A     -0.537959
      37A     -0.502810    38A     -0.470473    39A     -0.438484
      40A     -0.426194    41A     -0.416237    42A     -0.387686
      43A     -0.297068

  @DF-RHF Final Energy:  -578.61030733332223

   => Energetics <=

    Nuclear Repulsion Energy =            694.0707477024501486
    One-Electron Energy =               -2165.0530426227442149
    Two-Electron Energy =                 892.3719875869717271
    Total Energy =                       -578.6103073333222255
  Basis Set: (AUG-CC-PVTZ AUX)
    Blend: AUG-CC-PVTZ-RI
    Molecular point group: c1

    Geometry (in Angstrom), charge = 0, multiplicity = 1:

       Center              X                  Y                   Z               Mass
    ------------   -----------------  -----------------  -----------------  -----------------
         O           -1.462808407122     2.570327540961     0.080247954187    15.994914619570
         N            1.926124592878    -0.577201459039    -0.055783045813    14.003074004430
         N           -1.903313407122     0.312026540961     0.048354954187    14.003074004430
         N           -0.335751407122    -1.461308459039    -0.038902045813    14.003074004430
         N            1.523609592878     1.646826540961    -0.010711045813    14.003074004430
         N           -2.622463407122    -1.911003459039     0.110926954187    14.003074004430
         C            0.492335792878    -0.440848359039    -0.027655445813    12.000000000000
         C            0.340722592878     0.945599540961    -0.009552045813    12.000000000000
         C           -1.038684607122     1.357977240961     0.035010954187    12.000000000000
         C            2.446027592878     0.695417540961    -0.070073045813    12.000000000000
         C           -1.566092407122    -1.020118459039     0.018651954187    12.000000000000
         C            2.642334592878    -1.839394459039    -0.065672045813    12.000000000000
         H            3.516226592878     0.865007540961    -0.086759045813     1.007825032230
         H            2.379899592878    -2.424499459039     0.817595954187     1.007825032230
         H            2.386437592878    -2.408151459039    -0.960659045813     1.007825032230
         H            3.711104592878    -1.624659459039    -0.059386045813     1.007825032230
         H           -2.881016407122     0.575073540961     0.169163954187     1.007825032230
         H           -2.318838407122    -2.861766459039    -0.064392045813     1.007825032230
         H           -3.452728407122    -1.666711459039    -0.417503045813     1.007825032230

  Basis Set: AUG-CC-PVTZ
    Blend: AUG-CC-PVTZ
  Basis Set: (AUG-CC-PVTZ AUX)
    Blend: AUG-CC-PVTZ-JKFIT
	 Reference Energy          =    -578.6103073333222255 [Eh]
	 Singles Energy            =      -0.0000000000000000 [Eh]
	 Same-Spin Energy          =      -0.6181059790064645 [Eh]
	 Opposite-Spin Energy      =      -1.8228589424525399 [Eh]
	 Correlation Energy        =      -2.4409649214590043 [Eh]
	 Total Energy              =    -581.0512722547812245 [Eh]

	 ================> DF-SCS-MP2 Energies <==================
	-----------------------------------------------------------
	 SCS Same-Spin Scale       =       0.3333333333333333 [-]
	 SCS Opposite-Spin Scale   =       1.2000000000000000 [-]
	 SCS Same-Spin Energy      =      -0.2060353263354882 [Eh]
	 SCS Opposite-Spin Energy  =      -2.1874307309430479 [Eh]
	 SCS Correlation Energy    =      -2.3934660572785358 [Eh]
	 SCS Total Energy          =    -581.0037733906007134 [Eh]
	-----------------------------------------------------------

  Dipole Moment: [D]
     X:    -0.3136      Y:    -7.5063      Z:    -0.9482     Total:     7.5724

*** Psi4 exiting successfully. Buy a developer a beer!
