                               Psi4 1.3.2 release

  ==> Input File <==

--------------------------------------------------------------------------
#psi4
#
memory 32 gb

molecule  {
0 1
  O       -1.4697740     2.5644010     0.0803940
  N        1.8870625    -0.6041413     0.0099463
  N       -1.9102790     0.3061000     0.0485010
  N       -0.3427170    -1.4672350    -0.0387560
  N        1.5166440     1.6409000    -0.0105650
  N       -2.6294290    -1.9169300     0.1110730
  C        0.5576980    -0.4369160    -0.0295360
  C        0.3337570     0.9396730    -0.0094060
  C       -1.0221650     1.4237120     0.0351730
  C        2.4390620     0.6894910    -0.0699270
  C       -1.5730580    -1.0260450     0.0187980
  C        2.6353690    -1.8453210    -0.0655260
  H        3.5092610     0.8590810    -0.0866130
  H        2.3382932    -2.3878991     0.8337723
  H        2.3794720    -2.4140780    -0.9605130
  H        3.7041390    -1.6305860    -0.0592400
  H       -2.8879820     0.5691470     0.1693100
  H       -2.3258040    -2.8676930    -0.0642460
  H       -3.4596940    -1.6726380    -0.4173570
units angstrom
no_reorient  #important for SAPT in psi4, default
symmetry c1  #important for SAPT in psi4, default
}

set PROPERTIES_ORIGIN ["COM"]
properties('MP2/aug-cc-pvtz', properties = ['dipole'])
--------------------------------------------------------------------------

    Molecular point group: c1
  Charge       = 0
  Multiplicity = 1
  Basis Set: AUG-CC-PVTZ
    Blend: AUG-CC-PVTZ
  Basis Set: (AUG-CC-PVTZ AUX)
    Blend: AUG-CC-PVTZ-JKFIT

    Orbital Energies [Eh]
    ---------------------

    Doubly Occupied:

       1A    -20.519692     2A    -15.631442     3A    -15.628443
       4A    -15.610739     5A    -15.569545     6A    -15.564044
       7A    -11.396109     8A    -11.363341     9A    -11.318229
      10A    -11.308129    11A    -11.289028    12A    -11.245074
      13A     -1.390409    14A     -1.360592    15A     -1.332971
      16A     -1.218758    17A     -1.217461    18A     -1.190843
      19A     -1.030849    20A     -0.985533    21A     -0.897293
      22A     -0.882144    23A     -0.808296    24A     -0.767467
      25A     -0.740121    26A     -0.729577    27A     -0.691738
      28A     -0.672829    29A     -0.646055    30A     -0.641892
      31A     -0.625737    32A     -0.607411    33A     -0.596275
      34A     -0.582276    35A     -0.560126    36A     -0.541699
      37A     -0.492800    38A     -0.458604    39A     -0.440274
      40A     -0.430144    41A     -0.428010    42A     -0.391979
      43A     -0.298789

  @DF-RHF Final Energy:  -578.62691030291228

   => Energetics <=

    Nuclear Repulsion Energy =            693.8560961011123709
    One-Electron Energy =               -2164.7604881441125144
    Two-Electron Energy =                 892.2774817400878646
    Total Energy =                       -578.6269103029122789
  Basis Set: (AUG-CC-PVTZ AUX)
    Blend: AUG-CC-PVTZ-RI
    Molecular point group: c1

    Geometry (in Angstrom), charge = 0, multiplicity = 1:

       Center              X                  Y                   Z               Mass
    ------------   -----------------  -----------------  -----------------  -----------------
         O           -1.466839511405     2.565924117971     0.074732575332    15.994914619570
         N            1.889996988595    -0.602618182029     0.004284875332    14.003074004430
         N           -1.907344511405     0.307623117971     0.042839575332    14.003074004430
         N           -0.339782511405    -1.465711882029    -0.044417424668    14.003074004430
         N            1.519578488595     1.642423117971    -0.016226424668    14.003074004430
         N           -2.626494511405    -1.915406882029     0.105411575332    14.003074004430
         C            0.560632488595    -0.435392882029    -0.035197424668    12.000000000000
         C            0.336691488595     0.941196117971    -0.015067424668    12.000000000000
         C           -1.019230511405     1.425235117971     0.029511575332    12.000000000000
         C            2.441996488595     0.691014117971    -0.075588424668    12.000000000000
         C           -1.570123511405    -1.024521882029     0.013136575332    12.000000000000
         C            2.638303488595    -1.843797882029    -0.071187424668    12.000000000000
         H            3.512195488595     0.860604117971    -0.092274424668     1.007825032230
         H            2.341227688595    -2.386375982029     0.828110875332     1.007825032230
         H            2.382406488595    -2.412554882029    -0.966174424668     1.007825032230
         H            3.707073488595    -1.629062882029    -0.064901424668     1.007825032230
         H           -2.885047511405     0.570670117971     0.163648575332     1.007825032230
         H           -2.322869511405    -2.866169882029    -0.069907424668     1.007825032230
         H           -3.456759511405    -1.671114882029    -0.423018424668     1.007825032230

  Basis Set: AUG-CC-PVTZ
    Blend: AUG-CC-PVTZ
  Basis Set: (AUG-CC-PVTZ AUX)
    Blend: AUG-CC-PVTZ-JKFIT
	 Reference Energy          =    -578.6269103029122789 [Eh]
	 Singles Energy            =      -0.0000000000000000 [Eh]
	 Same-Spin Energy          =      -0.6160016419036591 [Eh]
	 Opposite-Spin Energy      =      -1.8199278177633276 [Eh]
	 Correlation Energy        =      -2.4359294596669869 [Eh]
	 Total Energy              =    -581.0628397625793014 [Eh]

	 ================> DF-SCS-MP2 Energies <==================
	-----------------------------------------------------------
	 SCS Same-Spin Scale       =       0.3333333333333333 [-]
	 SCS Opposite-Spin Scale   =       1.2000000000000000 [-]
	 SCS Same-Spin Energy      =      -0.2053338806345530 [Eh]
	 SCS Opposite-Spin Energy  =      -2.1839133813159930 [Eh]
	 SCS Correlation Energy    =      -2.3892472619505458 [Eh]
	 SCS Total Energy          =    -581.0161575648628514 [Eh]
	-----------------------------------------------------------

  Dipole Moment: [D]
     X:     0.0450      Y:    -6.7534      Z:    -0.9808     Total:     6.8244

*** Psi4 exiting successfully. Buy a developer a beer!
