                               Psi4 1.4a3.dev225

  ==> Input File <==

--------------------------------------------------------------------------
#psi4
#
memory 32 gb

molecule  {
0 1
  O        1.6617960     2.5152110     0.0229320
  N       -1.9329240    -0.4005880    -0.0147920
  N        1.9545050     0.2323110     0.0113410
  N        0.2669280    -1.4301930    -0.0208730
  N       -1.3834780     1.7915450    -0.0193170
  N        2.5221760    -2.0364130     0.0734370
  C       -0.5634760    -0.3442740    -0.0026930
  C       -0.2488450     1.0144850    -0.0147620
  C        1.1380320     1.4076430     0.0031510
  C       -2.3683130     0.9036150    -0.0164120
  C        1.5275980    -1.0721200    -0.0057920
  C       -2.7322540    -1.6127190     0.0339130
  H       -3.4247340     1.1445090    -0.0228960
  H       -2.2735910    -2.3629350    -0.6109560
  H       -2.7853950    -1.9995380     1.0543320
  H       -3.7366260    -1.3828770    -0.3245450
  H        2.9468270     0.4301980     0.1174830
  H        2.1448557    -2.9449351    -0.0770802
  H        3.3349710    -1.8642740    -0.5097710
units angstrom
no_reorient  #important for SAPT in psi4, default
symmetry c1  #important for SAPT in psi4, default
}

set PROPERTIES_ORIGIN ["COM"]
properties('MP2/aug-cc-pvtz', properties = ['dipole'])
--------------------------------------------------------------------------

    Molecular point group: c1
  Charge       = 0
  Multiplicity = 1
  Basis Set: AUG-CC-PVTZ
    Blend: AUG-CC-PVTZ
  Basis Set: (AUG-CC-PVTZ AUX)
    Blend: AUG-CC-PVTZ-JKFIT

    Orbital Energies [Eh]
    ---------------------

    Doubly Occupied:

       1A    -20.521505     2A    -15.632858     3A    -15.629491
       4A    -15.608991     5A    -15.571271     6A    -15.560058
       7A    -11.396189     8A    -11.365021     9A    -11.319743
      10A    -11.307161    11A    -11.289182    12A    -11.247379
      13A     -1.390984    14A     -1.360722    15A     -1.334410
      16A     -1.220933    17A     -1.216351    18A     -1.190472
      19A     -1.029537    20A     -0.986097    21A     -0.901627
      22A     -0.882933    23A     -0.807525    24A     -0.766810
      25A     -0.741641    26A     -0.729372    27A     -0.694997
      28A     -0.670882    29A     -0.649988    30A     -0.642375
      31A     -0.625533    32A     -0.610897    33A     -0.594446
      34A     -0.578365    35A     -0.561339    36A     -0.541726
      37A     -0.493240    38A     -0.460761    39A     -0.440236
      40A     -0.429815    41A     -0.429170    42A     -0.392892
      43A     -0.298688

  @DF-RHF Final Energy:  -578.63093393055090

   => Energetics <=

    Nuclear Repulsion Energy =            693.2777656380726512
    One-Electron Energy =               -2163.5701723674687855
    Two-Electron Energy =                 891.6614727988452387
    Total Energy =                       -578.6309339305508956
  Basis Set: (AUG-CC-PVTZ AUX)
    Blend: AUG-CC-PVTZ-RI
    Molecular point group: c1

    Geometry (in Angstrom), charge = 0, multiplicity = 1:

       Center              X                  Y                   Z               Mass
    ------------   -----------------  -----------------  -----------------  -----------------
         O            1.638925646248     2.461125495526     0.020650865225    15.994914619570
         N           -1.955794353752    -0.454673504474    -0.017073134775    14.003074004430
         N            1.931634646248     0.178225495526     0.009059865225    14.003074004430
         N            0.244057646248    -1.484278504474    -0.023154134775    14.003074004430
         N           -1.406348353752     1.737459495526    -0.021598134775    14.003074004430
         N            2.499305646248    -2.090498504474     0.071155865225    14.003074004430
         C           -0.586346353752    -0.398359504474    -0.004974134775    12.000000000000
         C           -0.271715353752     0.960399495526    -0.017043134775    12.000000000000
         C            1.115161646248     1.353557495526     0.000869865225    12.000000000000
         C           -2.391183353752     0.849529495526    -0.018693134775    12.000000000000
         C            1.504727646248    -1.126205504474    -0.008073134775    12.000000000000
         C           -2.755124353752    -1.666804504474     0.031631865225    12.000000000000
         H           -3.447604353752     1.090423495526    -0.025177134775     1.007825032230
         H           -2.296461353752    -2.417020504474    -0.613237134775     1.007825032230
         H           -2.808265353752    -2.053623504474     1.052050865225     1.007825032230
         H           -3.759496353752    -1.436962504474    -0.326826134775     1.007825032230
         H            2.923956646248     0.376112495526     0.115201865225     1.007825032230
         H            2.121985346248    -2.999020604474    -0.079361334775     1.007825032230
         H            3.312100646248    -1.918359504474    -0.512052134775     1.007825032230

  Basis Set: AUG-CC-PVTZ
    Blend: AUG-CC-PVTZ
  Basis Set: (AUG-CC-PVTZ AUX)
    Blend: AUG-CC-PVTZ-JKFIT
	 Reference Energy          =    -578.6309339305508956 [Eh]
	 Singles Energy            =      -0.0000000000000000 [Eh]
	 Same-Spin Energy          =      -0.6159557999254469 [Eh]
	 Opposite-Spin Energy      =      -1.8194941856108267 [Eh]
	 Correlation Energy        =      -2.4354499855362737 [Eh]
	 Total Energy              =    -581.0663839160871476 [Eh]

	 ================> DF-SCS-MP2 Energies <==================
	-----------------------------------------------------------
	 SCS Same-Spin Scale       =       0.3333333333333333 [-]
	 SCS Opposite-Spin Scale   =       1.2000000000000000 [-]
	 SCS Same-Spin Energy      =      -0.2053185999751490 [Eh]
	 SCS Opposite-Spin Energy  =      -2.1833930227329921 [Eh]
	 SCS Correlation Energy    =      -2.3887116227081409 [Eh]
	 SCS Total Energy          =    -581.0196455532590107 [Eh]
	-----------------------------------------------------------

  Dipole Moment: [D]
     X:    -0.5208      Y:    -6.7302      Z:    -0.8504     Total:     6.8037

*** Psi4 exiting successfully. Buy a developer a beer!
