                               Psi4 1.3.2 release

  ==> Input File <==

--------------------------------------------------------------------------
#psi4
#
memory 32 gb

molecule  {
0 1
  O       -1.4697740     2.5644010     0.0803940
  N        1.9191590    -0.5831280    -0.0556370
  N       -1.9102790     0.3061000     0.0485010
  N       -0.3427170    -1.4672350    -0.0387560
  N        1.5166440     1.6409000    -0.0105650
  N       -2.6294290    -1.9169300     0.1110730
  C        0.5576980    -0.4369160    -0.0295360
  C        0.3337570     0.9396730    -0.0094060
  C       -1.0221650     1.4237120     0.0351730
  C        2.4390620     0.6894910    -0.0699270
  C       -1.5730580    -1.0260450     0.0187980
  C        2.6353690    -1.8453210    -0.0655260
  H        3.5092610     0.8590810    -0.0866130
  H        2.3729340    -2.4304260     0.8177420
  H        2.3794720    -2.4140780    -0.9605130
  H        3.7041390    -1.6305860    -0.0592400
  H       -2.8879820     0.5691470     0.1693100
  H       -2.3557665    -2.7738691    -0.0469450
  H       -3.4596940    -1.6726380    -0.4173570
units angstrom
no_reorient  #important for SAPT in psi4, default
symmetry c1  #important for SAPT in psi4, default
}

set PROPERTIES_ORIGIN ["COM"]
properties('MP2/aug-cc-pvtz', properties = ['dipole'])
--------------------------------------------------------------------------

    Molecular point group: c1
  Charge       = 0
  Multiplicity = 1
  Basis Set: AUG-CC-PVTZ
    Blend: AUG-CC-PVTZ
  Basis Set: (AUG-CC-PVTZ AUX)
    Blend: AUG-CC-PVTZ-JKFIT

    Orbital Energies [Eh]
    ---------------------

    Doubly Occupied:

       1A    -20.521153     2A    -15.633182     3A    -15.629576
       4A    -15.601275     5A    -15.571613     6A    -15.559873
       7A    -11.396532     8A    -11.364537     9A    -11.319540
      10A    -11.307593    11A    -11.289499    12A    -11.247389
      13A     -1.391442    14A     -1.360950    15A     -1.337470
      16A     -1.232266    17A     -1.216943    18A     -1.190988
      19A     -1.031488    20A     -0.986798    21A     -0.903212
      22A     -0.887412    23A     -0.809220    24A     -0.768829
      25A     -0.743425    26A     -0.735185    27A     -0.708468
      28A     -0.671801    29A     -0.651312    30A     -0.642696
      31A     -0.627309    32A     -0.611030    33A     -0.594019
      34A     -0.578739    35A     -0.561726    36A     -0.542246
      37A     -0.494111    38A     -0.461217    39A     -0.440217
      40A     -0.429672    41A     -0.429262    42A     -0.392994
      43A     -0.298919

  @DF-RHF Final Energy:  -578.62365366208508

   => Energetics <=

    Nuclear Repulsion Energy =            694.0369449294558990
    One-Electron Energy =               -2164.9749448034790476
    Two-Electron Energy =                 892.3143462119381866
    Total Energy =                       -578.6236536620850757
  Basis Set: (AUG-CC-PVTZ AUX)
    Blend: AUG-CC-PVTZ-RI
    Molecular point group: c1

    Geometry (in Angstrom), charge = 0, multiplicity = 1:

       Center              X                  Y                   Z               Mass
    ------------   -----------------  -----------------  -----------------  -----------------
         O           -1.469590939072     2.563828282572     0.080288488623    15.994914619570
         N            1.919342060928    -0.583700717428    -0.055742511377    14.003074004430
         N           -1.910095939072     0.305527282572     0.048395488623    14.003074004430
         N           -0.342533939072    -1.467807717428    -0.038861511377    14.003074004430
         N            1.516827060928     1.640327282572    -0.010670511377    14.003074004430
         N           -2.629245939072    -1.917502717428     0.110967488623    14.003074004430
         C            0.557881060928    -0.437488717428    -0.029641511377    12.000000000000
         C            0.333940060928     0.939100282572    -0.009511511377    12.000000000000
         C           -1.021981939072     1.423139282572     0.035067488623    12.000000000000
         C            2.439245060928     0.688918282572    -0.070032511377    12.000000000000
         C           -1.572874939072    -1.026617717428     0.018692488623    12.000000000000
         C            2.635552060928    -1.845893717428    -0.065631511377    12.000000000000
         H            3.509444060928     0.858508282572    -0.086718511377     1.007825032230
         H            2.373117060928    -2.430998717428     0.817636488623     1.007825032230
         H            2.379655060928    -2.414650717428    -0.960618511377     1.007825032230
         H            3.704322060928    -1.631158717428    -0.059345511377     1.007825032230
         H           -2.887798939072     0.568574282572     0.169204488623     1.007825032230
         H           -2.355583439072    -2.774441817428    -0.047050511377     1.007825032230
         H           -3.459510939072    -1.673210717428    -0.417462511377     1.007825032230

  Basis Set: AUG-CC-PVTZ
    Blend: AUG-CC-PVTZ
  Basis Set: (AUG-CC-PVTZ AUX)
    Blend: AUG-CC-PVTZ-JKFIT
	 Reference Energy          =    -578.6236536620850757 [Eh]
	 Singles Energy            =      -0.0000000000000000 [Eh]
	 Same-Spin Energy          =      -0.6155058418710927 [Eh]
	 Opposite-Spin Energy      =      -1.8183402862480971 [Eh]
	 Correlation Energy        =      -2.4338461281191899 [Eh]
	 Total Energy              =    -581.0574997902042469 [Eh]

	 ================> DF-SCS-MP2 Energies <==================
	-----------------------------------------------------------
	 SCS Same-Spin Scale       =       0.3333333333333333 [-]
	 SCS Opposite-Spin Scale   =       1.2000000000000000 [-]
	 SCS Same-Spin Energy      =      -0.2051686139570309 [Eh]
	 SCS Opposite-Spin Energy  =      -2.1820083434977162 [Eh]
	 SCS Correlation Energy    =      -2.3871769574547472 [Eh]
	 SCS Total Energy          =    -581.0108306195397745 [Eh]
	-----------------------------------------------------------

  Dipole Moment: [D]
     X:    -0.0181      Y:    -6.6947      Z:    -0.9333     Total:     6.7594

*** Psi4 exiting successfully. Buy a developer a beer!
