                               Psi4 1.3.2 release

  ==> Input File <==

--------------------------------------------------------------------------
#psi4
#
memory 32 gb

molecule  {
0 1
  O       -1.4697740     2.5644010     0.0803940
  N        1.9191590    -0.5831280    -0.0556370
  N       -1.9102790     0.3061000     0.0485010
  N       -0.3427170    -1.4672350    -0.0387560
  N        1.5166440     1.6409000    -0.0105650
  N       -2.6294290    -1.9169300     0.1110730
  C        0.5576980    -0.4369160    -0.0295360
  C        0.3337570     0.9396730    -0.0094060
  C       -1.0221650     1.4237120     0.0351730
  C        2.4390620     0.6894910    -0.0699270
  C       -1.7256071    -1.1546965     0.0321233
  C        2.6353690    -1.8453210    -0.0655260
  H        3.5092610     0.8590810    -0.0866130
  H        2.3729340    -2.4304260     0.8177420
  H        2.3794720    -2.4140780    -0.9605130
  H        3.7041390    -1.6305860    -0.0592400
  H       -2.8879820     0.5691470     0.1693100
  H       -2.3258040    -2.8676930    -0.0642460
  H       -3.4596940    -1.6726380    -0.4173570
units angstrom
no_reorient  #important for SAPT in psi4, default
symmetry c1  #important for SAPT in psi4, default
}

set PROPERTIES_ORIGIN ["COM"]
properties('MP2/aug-cc-pvtz', properties = ['dipole'])
--------------------------------------------------------------------------

    Molecular point group: c1
  Charge       = 0
  Multiplicity = 1
  Basis Set: AUG-CC-PVTZ
    Blend: AUG-CC-PVTZ
  Basis Set: (AUG-CC-PVTZ AUX)
    Blend: AUG-CC-PVTZ-JKFIT

    Orbital Energies [Eh]
    ---------------------

    Doubly Occupied:

       1A    -20.511330     2A    -15.648856     3A    -15.621678
       4A    -15.617623     5A    -15.556832     6A    -15.548791
       7A    -11.409925     8A    -11.356375     9A    -11.309148
      10A    -11.295787    11A    -11.280874    12A    -11.231055
      13A     -1.407544    14A     -1.365962    15A     -1.347711
      16A     -1.236245    17A     -1.192020    18A     -1.160764
      19A     -1.014365    20A     -0.976390    21A     -0.898702
      22A     -0.889172    23A     -0.820769    24A     -0.778779
      25A     -0.765203    26A     -0.715403    27A     -0.700420
      28A     -0.664139    29A     -0.648235    30A     -0.644306
      31A     -0.616031    32A     -0.599827    33A     -0.580777
      34A     -0.574684    35A     -0.567607    36A     -0.537163
      37A     -0.466071    38A     -0.456159    39A     -0.426651
      40A     -0.415156    41A     -0.410297    42A     -0.381219
      43A     -0.278739

  @DF-RHF Final Energy:  -578.55685358003507

   => Energetics <=

    Nuclear Repulsion Energy =            691.2730828128220537
    One-Electron Energy =               -2159.8103043186606556
    Two-Electron Energy =                 889.9803679258036482
    Total Energy =                       -578.5568535800350674
  Basis Set: (AUG-CC-PVTZ AUX)
    Blend: AUG-CC-PVTZ-RI
    Molecular point group: c1

    Geometry (in Angstrom), charge = 0, multiplicity = 1:

       Center              X                  Y                   Z               Mass
    ------------   -----------------  -----------------  -----------------  -----------------
         O           -1.458683771657     2.573753920841     0.079425391253    15.994914619570
         N            1.930249228343    -0.573775079159    -0.056605608747    14.003074004430
         N           -1.899188771657     0.315452920841     0.047532391253    14.003074004430
         N           -0.331626771657    -1.457882079159    -0.039724608747    14.003074004430
         N            1.527734228343     1.650252920841    -0.011533608747    14.003074004430
         N           -2.618338771657    -1.907577079159     0.110104391253    14.003074004430
         C            0.568788228343    -0.427563079159    -0.030504608747    12.000000000000
         C            0.344847228343     0.949025920841    -0.010374608747    12.000000000000
         C           -1.011074771657     1.433064920841     0.034204391253    12.000000000000
         C            2.450152228343     0.698843920841    -0.070895608747    12.000000000000
         C           -1.714516871657    -1.145343579159     0.031154691253    12.000000000000
         C            2.646459228343    -1.835968079159    -0.066494608747    12.000000000000
         H            3.520351228343     0.868433920841    -0.087581608747     1.007825032230
         H            2.384024228343    -2.421073079159     0.816773391253     1.007825032230
         H            2.390562228343    -2.404725079159    -0.961481608747     1.007825032230
         H            3.715229228343    -1.621233079159    -0.060208608747     1.007825032230
         H           -2.876891771657     0.578499920841     0.168341391253     1.007825032230
         H           -2.314713771657    -2.858340079159    -0.065214608747     1.007825032230
         H           -3.448603771657    -1.663285079159    -0.418325608747     1.007825032230

  Basis Set: AUG-CC-PVTZ
    Blend: AUG-CC-PVTZ
  Basis Set: (AUG-CC-PVTZ AUX)
    Blend: AUG-CC-PVTZ-JKFIT
	 Reference Energy          =    -578.5568535800350674 [Eh]
	 Singles Energy            =      -0.0000000000000000 [Eh]
	 Same-Spin Energy          =      -0.6185551075704953 [Eh]
	 Opposite-Spin Energy      =      -1.8229997967534661 [Eh]
	 Correlation Energy        =      -2.4415549043239615 [Eh]
	 Total Energy              =    -580.9984084843590608 [Eh]

	 ================> DF-SCS-MP2 Energies <==================
	-----------------------------------------------------------
	 SCS Same-Spin Scale       =       0.3333333333333333 [-]
	 SCS Opposite-Spin Scale   =       1.2000000000000000 [-]
	 SCS Same-Spin Energy      =      -0.2061850358568317 [Eh]
	 SCS Opposite-Spin Energy  =      -2.1875997561041594 [Eh]
	 SCS Correlation Energy    =      -2.3937847919609911 [Eh]
	 SCS Total Energy          =    -580.9506383719960922 [Eh]
	-----------------------------------------------------------

  Dipole Moment: [D]
     X:    -1.6387      Y:    -7.9915      Z:    -0.8532     Total:     8.2023

*** Psi4 exiting successfully. Buy a developer a beer!
