                               Psi4 1.3.2 release

  ==> Input File <==

--------------------------------------------------------------------------
#psi4
#
memory 32 gb

molecule  {
0 1
  O       -1.4697740     2.5644010     0.0803940
  N        1.9191590    -0.5831280    -0.0556370
  N       -1.9102790     0.3061000     0.0485010
  N       -0.3427170    -1.4672350    -0.0387560
  N        1.5166440     1.6409000    -0.0105650
  N       -2.6294290    -1.9169300     0.1110730
  C        0.5576980    -0.4369160    -0.0295360
  C        0.3337570     0.9396730    -0.0094060
  C       -1.0221650     1.4237120     0.0351730
  C        2.4390620     0.6894910    -0.0699270
  C       -1.5730580    -1.0260450     0.0187980
  C        2.6353690    -1.8453210    -0.0655260
  H        3.5092610     0.8590810    -0.0866130
  H        2.3729340    -2.4304260     0.8177420
  H        2.3794720    -2.4140780    -0.9605130
  H        3.7041390    -1.6305860    -0.0592400
  H       -2.8879820     0.5691470     0.1693100
  H       -2.3258040    -2.8676930    -0.0642460
  H       -3.4596940    -1.6726380    -0.4173570
units angstrom
no_reorient  #important for SAPT in psi4, default
symmetry c1  #important for SAPT in psi4, default
}

set PROPERTIES_ORIGIN ["COM"]
properties('MP2/aug-cc-pvtz', properties = ['dipole'])
--------------------------------------------------------------------------

    Molecular point group: c1
  Charge       = 0
  Multiplicity = 1
  Basis Set: AUG-CC-PVTZ
    Blend: AUG-CC-PVTZ
  Basis Set: (AUG-CC-PVTZ AUX)
    Blend: AUG-CC-PVTZ-JKFIT

    Orbital Energies [Eh]
    ---------------------

    Doubly Occupied:

       1A    -20.520879     2A    -15.632869     3A    -15.629299
       4A    -15.610689     5A    -15.570866     6A    -15.559588
       7A    -11.396046     8A    -11.364264     9A    -11.319124
      10A    -11.307271    11A    -11.289380    12A    -11.246950
      13A     -1.390670    14A     -1.360565    15A     -1.334005
      16A     -1.219078    17A     -1.216199    18A     -1.190646
      19A     -1.029413    20A     -0.986467    21A     -0.901622
      22A     -0.882183    23A     -0.807901    24A     -0.766793
      25A     -0.741185    26A     -0.729340    27A     -0.692173
      28A     -0.671139    29A     -0.649638    30A     -0.642138
      31A     -0.626580    32A     -0.610462    33A     -0.593697
      34A     -0.578522    35A     -0.561036    36A     -0.541593
      37A     -0.493720    38A     -0.459259    39A     -0.439921
      40A     -0.429317    41A     -0.428812    42A     -0.392715
      43A     -0.298395

  @DF-RHF Final Energy:  -578.63074856204719

   => Energetics <=

    Nuclear Repulsion Energy =            693.4513888597678033
    One-Electron Energy =               -2163.9394565521761251
    Two-Electron Energy =                 891.8573191303611338
    Total Energy =                       -578.6307485620471880
  Basis Set: (AUG-CC-PVTZ AUX)
    Blend: AUG-CC-PVTZ-RI
    Molecular point group: c1

    Geometry (in Angstrom), charge = 0, multiplicity = 1:

       Center              X                  Y                   Z               Mass
    ------------   -----------------  -----------------  -----------------  -----------------
         O           -1.469773878803     2.564401135937     0.080394122007    15.994914619570
         N            1.919159121197    -0.583127864063    -0.055636877993    14.003074004430
         N           -1.910278878803     0.306100135937     0.048501122007    14.003074004430
         N           -0.342716878803    -1.467234864063    -0.038755877993    14.003074004430
         N            1.516644121197     1.640900135937    -0.010564877993    14.003074004430
         N           -2.629428878803    -1.916929864063     0.111073122007    14.003074004430
         C            0.557698121197    -0.436915864063    -0.029535877993    12.000000000000
         C            0.333757121197     0.939673135937    -0.009405877993    12.000000000000
         C           -1.022164878803     1.423712135937     0.035173122007    12.000000000000
         C            2.439062121197     0.689491135937    -0.069926877993    12.000000000000
         C           -1.573057878803    -1.026044864063     0.018798122007    12.000000000000
         C            2.635369121197    -1.845320864063    -0.065525877993    12.000000000000
         H            3.509261121197     0.859081135937    -0.086612877993     1.007825032230
         H            2.372934121197    -2.430425864063     0.817742122007     1.007825032230
         H            2.379472121197    -2.414077864063    -0.960512877993     1.007825032230
         H            3.704139121197    -1.630585864063    -0.059239877993     1.007825032230
         H           -2.887981878803     0.569147135937     0.169310122007     1.007825032230
         H           -2.325803878803    -2.867692864063    -0.064245877993     1.007825032230
         H           -3.459693878803    -1.672637864063    -0.417356877993     1.007825032230

  Basis Set: AUG-CC-PVTZ
    Blend: AUG-CC-PVTZ
  Basis Set: (AUG-CC-PVTZ AUX)
    Blend: AUG-CC-PVTZ-JKFIT
	 Reference Energy          =    -578.6307485620471880 [Eh]
	 Singles Energy            =      -0.0000000000000000 [Eh]
	 Same-Spin Energy          =      -0.6160737295472062 [Eh]
	 Opposite-Spin Energy      =      -1.8198156680797049 [Eh]
	 Correlation Energy        =      -2.4358893976269109 [Eh]
	 Total Energy              =    -581.0666379596741535 [Eh]

	 ================> DF-SCS-MP2 Energies <==================
	-----------------------------------------------------------
	 SCS Same-Spin Scale       =       0.3333333333333333 [-]
	 SCS Opposite-Spin Scale   =       1.2000000000000000 [-]
	 SCS Same-Spin Energy      =      -0.2053579098490687 [Eh]
	 SCS Opposite-Spin Energy  =      -2.1837788016956456 [Eh]
	 SCS Correlation Energy    =      -2.3891367115447144 [Eh]
	 SCS Total Energy          =    -581.0198852735918535 [Eh]
	-----------------------------------------------------------

  Dipole Moment: [D]
     X:    -0.0127      Y:    -6.7910      Z:    -0.9376     Total:     6.8555

*** Psi4 exiting successfully. Buy a developer a beer!
