                               Psi4 1.3.2 release

  ==> Input File <==

--------------------------------------------------------------------------
#psi4
#
memory 32 gb

molecule  {
0 1
  O       -1.4697740     2.5644010     0.0803940
  N        1.9191590    -0.5831280    -0.0556370
  N       -1.9102790     0.3061000     0.0485010
  N       -0.3427170    -1.4672350    -0.0387560
  N        1.5166440     1.6409000    -0.0105650
  N       -2.6294290    -1.9169300     0.1110730
  C        0.5576980    -0.4369160    -0.0295360
  C        0.3337570     0.9396730    -0.0094060
  C       -1.0221650     1.4237120     0.0351730
  C        2.4501460     0.6849040    -0.0701286
  C       -1.5730580    -1.0260450     0.0187980
  C        2.6463539    -1.8390224    -0.0657610
  H        3.5092610     0.8590810    -0.0866130
  H        2.3729340    -2.4304260     0.8177420
  H        2.3794720    -2.4140780    -0.9605130
  H        3.7041390    -1.6305860    -0.0592400
  H       -2.8879820     0.5691470     0.1693100
  H       -2.3258040    -2.8676930    -0.0642460
  H       -3.4596940    -1.6726380    -0.4173570
units angstrom
no_reorient  #important for SAPT in psi4, default
symmetry c1  #important for SAPT in psi4, default
}

set PROPERTIES_ORIGIN ["COM"]
properties('MP2/aug-cc-pvtz', properties = ['dipole'])
--------------------------------------------------------------------------

    Molecular point group: c1
  Charge       = 0
  Multiplicity = 1
  Basis Set: AUG-CC-PVTZ
    Blend: AUG-CC-PVTZ
  Basis Set: (AUG-CC-PVTZ AUX)
    Blend: AUG-CC-PVTZ-JKFIT

    Orbital Energies [Eh]
    ---------------------

    Doubly Occupied:

       1A    -20.521235     2A    -15.633725     3A    -15.629404
       4A    -15.610641     5A    -15.570900     6A    -15.560209
       7A    -11.395970     8A    -11.364588     9A    -11.319195
      10A    -11.307275    11A    -11.289251    12A    -11.247258
      13A     -1.390627    14A     -1.359883    15A     -1.333703
      16A     -1.219128    17A     -1.215108    18A     -1.189090
      19A     -1.029162    20A     -0.986352    21A     -0.902433
      22A     -0.881845    23A     -0.808958    24A     -0.766760
      25A     -0.740633    26A     -0.730103    27A     -0.692307
      28A     -0.670128    29A     -0.649518    30A     -0.643193
      31A     -0.626215    32A     -0.610300    33A     -0.594587
      34A     -0.582167    35A     -0.559085    36A     -0.541227
      37A     -0.493164    38A     -0.458866    39A     -0.439823
      40A     -0.429059    41A     -0.428509    42A     -0.391834
      43A     -0.297648

  @DF-RHF Final Energy:  -578.62949293093970

   => Energetics <=

    Nuclear Repulsion Energy =            693.1604483114076629
    One-Electron Energy =               -2163.3577479994191890
    Two-Electron Energy =                 891.5678067570718213
    Total Energy =                       -578.6294929309397048
  Basis Set: (AUG-CC-PVTZ AUX)
    Blend: AUG-CC-PVTZ-RI
    Molecular point group: c1

    Geometry (in Angstrom), charge = 0, multiplicity = 1:

       Center              X                  Y                   Z               Mass
    ------------   -----------------  -----------------  -----------------  -----------------
         O           -1.471378257102     2.564276705001     0.080425862219    15.994914619570
         N            1.917554742898    -0.583252294999    -0.055605137781    14.003074004430
         N           -1.911883257102     0.305975705001     0.048532862219    14.003074004430
         N           -0.344321257102    -1.467359294999    -0.038724137781    14.003074004430
         N            1.515039742898     1.640775705001    -0.010533137781    14.003074004430
         N           -2.631033257102    -1.917054294999     0.111104862219    14.003074004430
         C            0.556093742898    -0.437040294999    -0.029504137781    12.000000000000
         C            0.332152742898     0.939548705001    -0.009374137781    12.000000000000
         C           -1.023769257102     1.423587705001     0.035204862219    12.000000000000
         C            2.448541742898     0.684779705001    -0.070096737781    12.000000000000
         C           -1.574662257102    -1.026169294999     0.018829862219    12.000000000000
         C            2.644749642898    -1.839146694999    -0.065729137781    12.000000000000
         H            3.507656742898     0.858956705001    -0.086581137781     1.007825032230
         H            2.371329742898    -2.430550294999     0.817773862219     1.007825032230
         H            2.377867742898    -2.414202294999    -0.960481137781     1.007825032230
         H            3.702534742898    -1.630710294999    -0.059208137781     1.007825032230
         H           -2.889586257102     0.569022705001     0.169341862219     1.007825032230
         H           -2.327408257102    -2.867817294999    -0.064214137781     1.007825032230
         H           -3.461298257102    -1.672762294999    -0.417325137781     1.007825032230

  Basis Set: AUG-CC-PVTZ
    Blend: AUG-CC-PVTZ
  Basis Set: (AUG-CC-PVTZ AUX)
    Blend: AUG-CC-PVTZ-JKFIT
	 Reference Energy          =    -578.6294929309397048 [Eh]
	 Singles Energy            =      -0.0000000000000000 [Eh]
	 Same-Spin Energy          =      -0.6163398437777612 [Eh]
	 Opposite-Spin Energy      =      -1.8203511716080079 [Eh]
	 Correlation Energy        =      -2.4366910153857688 [Eh]
	 Total Energy              =    -581.0661839463255092 [Eh]

	 ================> DF-SCS-MP2 Energies <==================
	-----------------------------------------------------------
	 SCS Same-Spin Scale       =       0.3333333333333333 [-]
	 SCS Opposite-Spin Scale   =       1.2000000000000000 [-]
	 SCS Same-Spin Energy      =      -0.2054466145925871 [Eh]
	 SCS Opposite-Spin Energy  =      -2.1844214059296094 [Eh]
	 SCS Correlation Energy    =      -2.3898680205221963 [Eh]
	 SCS Total Energy          =    -581.0193609514618629 [Eh]
	-----------------------------------------------------------

  Dipole Moment: [D]
     X:    -0.0065      Y:    -6.7968      Z:    -0.9377     Total:     6.8612

*** Psi4 exiting successfully. Buy a developer a beer!
