                               Psi4 1.3.2 release

  ==> Input File <==

--------------------------------------------------------------------------
#psi4
#
memory 32 gb

molecule  {
0 1
  O       -1.4697740     2.5644010     0.0803940
  N        1.9191590    -0.5831280    -0.0556370
  N       -1.9102790     0.3061000     0.0485010
  N       -0.3427170    -1.4672350    -0.0387560
  N        1.5166440     1.6409000    -0.0105650
  N       -2.6294290    -1.9169300     0.1110730
  C        0.5576980    -0.4369160    -0.0295360
  C        0.3177019     1.0383652    -0.0079628
  C       -1.0221650     1.4237120     0.0351730
  C        2.4390620     0.6894910    -0.0699270
  C       -1.5730580    -1.0260450     0.0187980
  C        2.6353690    -1.8453210    -0.0655260
  H        3.5092610     0.8590810    -0.0866130
  H        2.3729340    -2.4304260     0.8177420
  H        2.3794720    -2.4140780    -0.9605130
  H        3.7041390    -1.6305860    -0.0592400
  H       -2.8879820     0.5691470     0.1693100
  H       -2.3258040    -2.8676930    -0.0642460
  H       -3.4596940    -1.6726380    -0.4173570
units angstrom
no_reorient  #important for SAPT in psi4, default
symmetry c1  #important for SAPT in psi4, default
}

set PROPERTIES_ORIGIN ["COM"]
properties('MP2/aug-cc-pvtz', properties = ['dipole'])
--------------------------------------------------------------------------

    Molecular point group: c1
  Charge       = 0
  Multiplicity = 1
  Basis Set: AUG-CC-PVTZ
    Blend: AUG-CC-PVTZ
  Basis Set: (AUG-CC-PVTZ AUX)
    Blend: AUG-CC-PVTZ-JKFIT

    Orbital Energies [Eh]
    ---------------------

    Doubly Occupied:

       1A    -20.510022     2A    -15.639351     3A    -15.630512
       4A    -15.612118     5A    -15.573854     6A    -15.560976
       7A    -11.397843     8A    -11.356165     9A    -11.330353
      10A    -11.306812    11A    -11.292311    12A    -11.251740
      13A     -1.388037    14A     -1.357549    15A     -1.333883
      16A     -1.219698    17A     -1.218792    18A     -1.196042
      19A     -1.022979    20A     -0.992235    21A     -0.908015
      22A     -0.883027    23A     -0.806565    24A     -0.758022
      25A     -0.745746    26A     -0.733958    27A     -0.692772
      28A     -0.671101    29A     -0.651152    30A     -0.641502
      31A     -0.628215    32A     -0.606637    33A     -0.601294
      34A     -0.580738    35A     -0.562096    36A     -0.540933
      37A     -0.495669    38A     -0.461082    39A     -0.436889
      40A     -0.428325    41A     -0.415971    42A     -0.397854
      43A     -0.287112

  @DF-RHF Final Energy:  -578.61663120089202

   => Energetics <=

    Nuclear Repulsion Energy =            692.4459641143947692
    One-Electron Energy =               -2161.8733021283833295
    Two-Electron Energy =                 890.8107068130964308
    Total Energy =                       -578.6166312008920158
  Basis Set: (AUG-CC-PVTZ AUX)
    Blend: AUG-CC-PVTZ-RI
    Molecular point group: c1

    Geometry (in Angstrom), charge = 0, multiplicity = 1:

       Center              X                  Y                   Z               Mass
    ------------   -----------------  -----------------  -----------------  -----------------
         O           -1.468606695389     2.557226350426     0.080289203377    15.994914619570
         N            1.920326304611    -0.590302649574    -0.055741796623    14.003074004430
         N           -1.909111695389     0.298925350426     0.048396203377    14.003074004430
         N           -0.341549695389    -1.474409649574    -0.038860796623    14.003074004430
         N            1.517811304611     1.633725350426    -0.010669796623    14.003074004430
         N           -2.628261695389    -1.924104649574     0.110968203377    14.003074004430
         C            0.558865304611    -0.444090649574    -0.029640796623    12.000000000000
         C            0.318869204611     1.031190550426    -0.008067596623    12.000000000000
         C           -1.020997695389     1.416537350426     0.035068203377    12.000000000000
         C            2.440229304611     0.682316350426    -0.070031796623    12.000000000000
         C           -1.571890695389    -1.033219649574     0.018693203377    12.000000000000
         C            2.636536304611    -1.852495649574    -0.065630796623    12.000000000000
         H            3.510428304611     0.851906350426    -0.086717796623     1.007825032230
         H            2.374101304611    -2.437600649574     0.817637203377     1.007825032230
         H            2.380639304611    -2.421252649574    -0.960617796623     1.007825032230
         H            3.705306304611    -1.637760649574    -0.059344796623     1.007825032230
         H           -2.886814695389     0.561972350426     0.169205203377     1.007825032230
         H           -2.324636695389    -2.874867649574    -0.064350796623     1.007825032230
         H           -3.458526695389    -1.679812649574    -0.417461796623     1.007825032230

  Basis Set: AUG-CC-PVTZ
    Blend: AUG-CC-PVTZ
  Basis Set: (AUG-CC-PVTZ AUX)
    Blend: AUG-CC-PVTZ-JKFIT
	 Reference Energy          =    -578.6166312008920158 [Eh]
	 Singles Energy            =      -0.0000000000000000 [Eh]
	 Same-Spin Energy          =      -0.6179479156555276 [Eh]
	 Opposite-Spin Energy      =      -1.8216196565946112 [Eh]
	 Correlation Energy        =      -2.4395675722501391 [Eh]
	 Total Energy              =    -581.0561987731421141 [Eh]

	 ================> DF-SCS-MP2 Energies <==================
	-----------------------------------------------------------
	 SCS Same-Spin Scale       =       0.3333333333333333 [-]
	 SCS Opposite-Spin Scale   =       1.2000000000000000 [-]
	 SCS Same-Spin Energy      =      -0.2059826385518425 [Eh]
	 SCS Opposite-Spin Energy  =      -2.1859435879135334 [Eh]
	 SCS Correlation Energy    =      -2.3919262264653760 [Eh]
	 SCS Total Energy          =    -581.0085574273573457 [Eh]
	-----------------------------------------------------------

  Dipole Moment: [D]
     X:     0.1798      Y:    -6.9526      Z:    -0.9454     Total:     7.0189

*** Psi4 exiting successfully. Buy a developer a beer!
