                               Psi4 1.3.2 release

  ==> Input File <==

--------------------------------------------------------------------------
#psi4
#
memory 32 gb

molecule  {
0 1
  O       -1.4697740     2.5644010     0.0803940
  N        1.9191590    -0.5831280    -0.0556370
  N       -1.9102790     0.3061000     0.0485010
  N       -0.3427170    -1.4672350    -0.0387560
  N        1.5166440     1.6409000    -0.0105650
  N       -2.6294290    -1.9169300     0.1110730
  C        0.5212253    -0.4061701    -0.0271596
  C        0.3337570     0.9396730    -0.0094060
  C       -1.0221650     1.4237120     0.0351730
  C        2.4390620     0.6894910    -0.0699270
  C       -1.5568546    -0.9833634     0.0198798
  C        2.6353690    -1.8453210    -0.0655260
  H        3.5092610     0.8590810    -0.0866130
  H        2.3729340    -2.4304260     0.8177420
  H        2.3794720    -2.4140780    -0.9605130
  H        3.7041390    -1.6305860    -0.0592400
  H       -2.8879820     0.5691470     0.1693100
  H       -2.3258040    -2.8676930    -0.0642460
  H       -3.4596940    -1.6726380    -0.4173570
units angstrom
no_reorient  #important for SAPT in psi4, default
symmetry c1  #important for SAPT in psi4, default
}

set PROPERTIES_ORIGIN ["COM"]
properties('MP2/aug-cc-pvtz', properties = ['dipole'])
--------------------------------------------------------------------------

    Molecular point group: c1
  Charge       = 0
  Multiplicity = 1
  Basis Set: AUG-CC-PVTZ
    Blend: AUG-CC-PVTZ
  Basis Set: (AUG-CC-PVTZ AUX)
    Blend: AUG-CC-PVTZ-JKFIT

    Orbital Energies [Eh]
    ---------------------

    Doubly Occupied:

       1A    -20.526069     2A    -15.636031     3A    -15.628574
       4A    -15.604949     5A    -15.573458     6A    -15.557351
       7A    -11.395001     8A    -11.368421     9A    -11.318115
      10A    -11.309974    11A    -11.287513    12A    -11.247907
      13A     -1.397487    14A     -1.357795    15A     -1.334714
      16A     -1.225034    17A     -1.207960    18A     -1.189441
      19A     -1.035648    20A     -0.983026    21A     -0.902497
      22A     -0.886188    23A     -0.808726    24A     -0.770817
      25A     -0.744027    26A     -0.719023    27A     -0.688956
      28A     -0.669807    29A     -0.654457    30A     -0.636755
      31A     -0.624259    32A     -0.614120    33A     -0.595759
      34A     -0.571527    35A     -0.559088    36A     -0.540595
      37A     -0.501422    38A     -0.456741    39A     -0.444461
      40A     -0.434509    41A     -0.432921    42A     -0.391661
      43A     -0.304242

  @DF-RHF Final Energy:  -578.62559301496754

   => Energetics <=

    Nuclear Repulsion Energy =            694.2365452393188434
    One-Electron Energy =               -2165.4502220379113169
    Two-Electron Energy =                 892.5880837836250521
    Total Energy =                       -578.6255930149675351
  Basis Set: (AUG-CC-PVTZ AUX)
    Blend: AUG-CC-PVTZ-RI
    Molecular point group: c1

    Geometry (in Angstrom), charge = 0, multiplicity = 1:

       Center              X                  Y                   Z               Mass
    ------------   -----------------  -----------------  -----------------  -----------------
         O           -1.468300328918     2.559063058935     0.080142715683    15.994914619570
         N            1.920632671082    -0.588465941065    -0.055888284317    14.003074004430
         N           -1.908805328918     0.300762058935     0.048249715683    14.003074004430
         N           -0.341243328918    -1.472572941065    -0.039007284317    14.003074004430
         N            1.518117671082     1.635562058935    -0.010816284317    14.003074004430
         N           -2.627955328918    -1.922267941065     0.110821715683    14.003074004430
         C            0.522698971082    -0.411508041065    -0.027410884317    12.000000000000
         C            0.335230671082     0.934335058935    -0.009657284317    12.000000000000
         C           -1.020691328918     1.418374058935     0.034921715683    12.000000000000
         C            2.440535671082     0.684153058935    -0.070178284317    12.000000000000
         C           -1.555380928918    -0.988701341065     0.019628515683    12.000000000000
         C            2.636842671082    -1.850658941065    -0.065777284317    12.000000000000
         H            3.510734671082     0.853743058935    -0.086864284317     1.007825032230
         H            2.374407671082    -2.435763941065     0.817490715683     1.007825032230
         H            2.380945671082    -2.419415941065    -0.960764284317     1.007825032230
         H            3.705612671082    -1.635923941065    -0.059491284317     1.007825032230
         H           -2.886508328918     0.563809058935     0.169058715683     1.007825032230
         H           -2.324330328918    -2.873030941065    -0.064497284317     1.007825032230
         H           -3.458220328918    -1.677975941065    -0.417608284317     1.007825032230

  Basis Set: AUG-CC-PVTZ
    Blend: AUG-CC-PVTZ
  Basis Set: (AUG-CC-PVTZ AUX)
    Blend: AUG-CC-PVTZ-JKFIT
	 Reference Energy          =    -578.6255930149675351 [Eh]
	 Singles Energy            =      -0.0000000000000000 [Eh]
	 Same-Spin Energy          =      -0.6156404498563158 [Eh]
	 Opposite-Spin Energy      =      -1.8200021521335918 [Eh]
	 Correlation Energy        =      -2.4356426019899078 [Eh]
	 Total Energy              =    -581.0612356169574468 [Eh]

	 ================> DF-SCS-MP2 Energies <==================
	-----------------------------------------------------------
	 SCS Same-Spin Scale       =       0.3333333333333333 [-]
	 SCS Opposite-Spin Scale   =       1.2000000000000000 [-]
	 SCS Same-Spin Energy      =      -0.2052134832854386 [Eh]
	 SCS Opposite-Spin Energy  =      -2.1840025825603102 [Eh]
	 SCS Correlation Energy    =      -2.3892160658457486 [Eh]
	 SCS Total Energy          =    -581.0148090808132793 [Eh]
	-----------------------------------------------------------

  Dipole Moment: [D]
     X:    -0.0186      Y:    -6.4519      Z:    -0.9382     Total:     6.5198

*** Psi4 exiting successfully. Buy a developer a beer!
