                               Psi4 1.3.2 release

  ==> Input File <==

--------------------------------------------------------------------------
#psi4
#
memory 32 gb

molecule  {
0 1
  O       -1.4697740     2.5644010     0.0803940
  N        1.9191590    -0.5831280    -0.0556370
  N       -1.9102790     0.3061000     0.0485010
  N       -0.3245981    -1.4827899    -0.0390688
  N        1.5166440     1.6409000    -0.0105650
  N       -2.6294290    -1.9169300     0.1110730
  C        0.5576980    -0.4369160    -0.0295360
  C        0.3578181     0.9433731    -0.0094869
  C       -1.0221650     1.4237120     0.0351730
  C        2.4390620     0.6894910    -0.0699270
  C       -1.5730580    -1.0260450     0.0187980
  C        2.6353690    -1.8453210    -0.0655260
  H        3.5092610     0.8590810    -0.0866130
  H        2.3729340    -2.4304260     0.8177420
  H        2.3794720    -2.4140780    -0.9605130
  H        3.7041390    -1.6305860    -0.0592400
  H       -2.8879820     0.5691470     0.1693100
  H       -2.3258040    -2.8676930    -0.0642460
  H       -3.4596940    -1.6726380    -0.4173570
units angstrom
no_reorient  #important for SAPT in psi4, default
symmetry c1  #important for SAPT in psi4, default
}

set PROPERTIES_ORIGIN ["COM"]
properties('MP2/aug-cc-pvtz', properties = ['dipole'])
--------------------------------------------------------------------------

    Molecular point group: c1
  Charge       = 0
  Multiplicity = 1
  Basis Set: AUG-CC-PVTZ
    Blend: AUG-CC-PVTZ
  Basis Set: (AUG-CC-PVTZ AUX)
    Blend: AUG-CC-PVTZ-JKFIT

    Orbital Energies [Eh]
    ---------------------

    Doubly Occupied:

       1A    -20.522835     2A    -15.632336     3A    -15.631111
       4A    -15.612669     5A    -15.573067     6A    -15.557996
       7A    -11.400077     8A    -11.366388     9A    -11.315487
      10A    -11.305452    11A    -11.287925    12A    -11.247273
      13A     -1.390597    14A     -1.361399    15A     -1.332946
      16A     -1.220131    17A     -1.216672    18A     -1.191382
      19A     -1.025295    20A     -0.985137    21A     -0.898896
      22A     -0.883103    23A     -0.806048    24A     -0.766304
      25A     -0.742559    26A     -0.728774    27A     -0.692761
      28A     -0.670001    29A     -0.648277    30A     -0.639819
      31A     -0.624836    32A     -0.610454    33A     -0.593791
      34A     -0.576504    35A     -0.561444    36A     -0.541026
      37A     -0.495898    38A     -0.459517    39A     -0.443135
      40A     -0.430260    41A     -0.427907    42A     -0.393848
      43A     -0.294120

  @DF-RHF Final Energy:  -578.62766043502859

   => Energetics <=

    Nuclear Repulsion Energy =            692.9631290496544125
    One-Electron Energy =               -2162.9706668904600519
    Two-Electron Energy =                 891.3798774057769378
    Total Energy =                       -578.6276604350285879
  Basis Set: (AUG-CC-PVTZ AUX)
    Blend: AUG-CC-PVTZ-RI
    Molecular point group: c1

    Geometry (in Angstrom), charge = 0, multiplicity = 1:

       Center              X                  Y                   Z               Mass
    ------------   -----------------  -----------------  -----------------  -----------------
         O           -1.473060179962     2.565451722997     0.080426539295    15.994914619570
         N            1.915872820038    -0.582077277003    -0.055604460705    14.003074004430
         N           -1.913565179962     0.307150722997     0.048533539295    14.003074004430
         N           -0.327884279962    -1.481739177003    -0.039036260705    14.003074004430
         N            1.513357820038     1.641950722997    -0.010532460705    14.003074004430
         N           -2.632715179962    -1.915879277003     0.111105539295    14.003074004430
         C            0.554411820038    -0.435865277003    -0.029503460705    12.000000000000
         C            0.354531920038     0.944423822997    -0.009454360705    12.000000000000
         C           -1.025451179962     1.424762722997     0.035205539295    12.000000000000
         C            2.435775820038     0.690541722997    -0.069894460705    12.000000000000
         C           -1.576344179962    -1.024994277003     0.018830539295    12.000000000000
         C            2.632082820038    -1.844270277003    -0.065493460705    12.000000000000
         H            3.505974820038     0.860131722997    -0.086580460705     1.007825032230
         H            2.369647820038    -2.429375277003     0.817774539295     1.007825032230
         H            2.376185820038    -2.413027277003    -0.960480460705     1.007825032230
         H            3.700852820038    -1.629535277003    -0.059207460705     1.007825032230
         H           -2.891268179962     0.570197722997     0.169342539295     1.007825032230
         H           -2.329090179962    -2.866642277003    -0.064213460705     1.007825032230
         H           -3.462980179962    -1.671587277003    -0.417324460705     1.007825032230

  Basis Set: AUG-CC-PVTZ
    Blend: AUG-CC-PVTZ
  Basis Set: (AUG-CC-PVTZ AUX)
    Blend: AUG-CC-PVTZ-JKFIT
	 Reference Energy          =    -578.6276604350285879 [Eh]
	 Singles Energy            =      -0.0000000000000000 [Eh]
	 Same-Spin Energy          =      -0.6165819889777955 [Eh]
	 Opposite-Spin Energy      =      -1.8206286923040245 [Eh]
	 Correlation Energy        =      -2.4372106812818197 [Eh]
	 Total Energy              =    -581.0648711163104281 [Eh]

	 ================> DF-SCS-MP2 Energies <==================
	-----------------------------------------------------------
	 SCS Same-Spin Scale       =       0.3333333333333333 [-]
	 SCS Opposite-Spin Scale   =       1.2000000000000000 [-]
	 SCS Same-Spin Energy      =      -0.2055273296592652 [Eh]
	 SCS Opposite-Spin Energy  =      -2.1847544307648294 [Eh]
	 SCS Correlation Energy    =      -2.3902817604240947 [Eh]
	 SCS Total Energy          =    -581.0179421954526333 [Eh]
	-----------------------------------------------------------

  Dipole Moment: [D]
     X:    -0.1482      Y:    -6.7240      Z:    -0.9312     Total:     6.7898

*** Psi4 exiting successfully. Buy a developer a beer!
