                               Psi4 1.3.2 release

  ==> Input File <==

--------------------------------------------------------------------------
#psi4
#
memory 32 gb

molecule  {
0 1
  O       -1.4598057     2.5682761     0.0800485
  N        1.9191590    -0.5831280    -0.0556370
  N       -1.9005066     0.2983966     0.0479024
  N       -0.3427170    -1.4672350    -0.0387560
  N        1.5166440     1.6409000    -0.0105650
  N       -2.6294290    -1.9169300     0.1110730
  C        0.5576980    -0.4369160    -0.0295360
  C        0.3337570     0.9396730    -0.0094060
  C       -1.0221650     1.4237120     0.0351730
  C        2.4390620     0.6894910    -0.0699270
  C       -1.5730580    -1.0260450     0.0187980
  C        2.6353690    -1.8453210    -0.0655260
  H        3.5092610     0.8590810    -0.0866130
  H        2.3729340    -2.4304260     0.8177420
  H        2.3794720    -2.4140780    -0.9605130
  H        3.7041390    -1.6305860    -0.0592400
  H       -2.8879820     0.5691470     0.1693100
  H       -2.3258040    -2.8676930    -0.0642460
  H       -3.4596940    -1.6726380    -0.4173570
units angstrom
no_reorient  #important for SAPT in psi4, default
symmetry c1  #important for SAPT in psi4, default
}

set PROPERTIES_ORIGIN ["COM"]
properties('MP2/aug-cc-pvtz', properties = ['dipole'])
--------------------------------------------------------------------------

    Molecular point group: c1
  Charge       = 0
  Multiplicity = 1
  Basis Set: AUG-CC-PVTZ
    Blend: AUG-CC-PVTZ
  Basis Set: (AUG-CC-PVTZ AUX)
    Blend: AUG-CC-PVTZ-JKFIT

    Orbital Energies [Eh]
    ---------------------

    Doubly Occupied:

       1A    -20.521828     2A    -15.632412     3A    -15.630873
       4A    -15.610593     5A    -15.569951     6A    -15.559110
       7A    -11.395133     8A    -11.364781     9A    -11.318573
      10A    -11.307020    11A    -11.289068    12A    -11.246305
      13A     -1.391326    14A     -1.360337    15A     -1.335316
      16A     -1.219930    17A     -1.215808    18A     -1.190169
      19A     -1.029521    20A     -0.986160    21A     -0.901914
      22A     -0.882818    23A     -0.808254    24A     -0.766427
      25A     -0.739062    26A     -0.729958    27A     -0.692246
      28A     -0.671095    29A     -0.649994    30A     -0.641304
      31A     -0.627107    32A     -0.610989    33A     -0.592828
      34A     -0.578232    35A     -0.561005    36A     -0.541495
      37A     -0.493115    38A     -0.459419    39A     -0.440363
      40A     -0.429760    41A     -0.428598    42A     -0.392250
      43A     -0.298043

  @DF-RHF Final Energy:  -578.63008171365436

   => Energetics <=

    Nuclear Repulsion Energy =            693.7160327739859440
    One-Electron Energy =               -2164.4712507631879816
    Two-Electron Energy =                 892.1251362755476748
    Total Energy =                       -578.6300817136543628
  Basis Set: (AUG-CC-PVTZ AUX)
    Blend: AUG-CC-PVTZ-RI
    Molecular point group: c1

    Geometry (in Angstrom), charge = 0, multiplicity = 1:

       Center              X                  Y                   Z               Mass
    ------------   -----------------  -----------------  -----------------  -----------------
         O           -1.461600542243     2.568554243813     0.080132882620    15.994914619570
         N            1.917364157757    -0.582849856187    -0.055552617380    14.003074004430
         N           -1.902301442243     0.298674743813     0.047986782620    14.003074004430
         N           -0.344511842243    -1.466956856187    -0.038671617380    14.003074004430
         N            1.514849157757     1.641178143813    -0.010480617380    14.003074004430
         N           -2.631223842243    -1.916651856187     0.111157382620    14.003074004430
         C            0.555903157757    -0.436637856187    -0.029451617380    12.000000000000
         C            0.331962157757     0.939951143813    -0.009321617380    12.000000000000
         C           -1.023959842243     1.423990143813     0.035257382620    12.000000000000
         C            2.437267157757     0.689769143813    -0.069842617380    12.000000000000
         C           -1.574852842243    -1.025766856187     0.018882382620    12.000000000000
         C            2.633574157757    -1.845042856187    -0.065441617380    12.000000000000
         H            3.507466157757     0.859359143813    -0.086528617380     1.007825032230
         H            2.371139157757    -2.430147856187     0.817826382620     1.007825032230
         H            2.377677157757    -2.413799856187    -0.960428617380     1.007825032230
         H            3.702344157757    -1.630307856187    -0.059155617380     1.007825032230
         H           -2.889776842243     0.569425143813     0.169394382620     1.007825032230
         H           -2.327598842243    -2.867414856187    -0.064161617380     1.007825032230
         H           -3.461488842243    -1.672359856187    -0.417272617380     1.007825032230

  Basis Set: AUG-CC-PVTZ
    Blend: AUG-CC-PVTZ
  Basis Set: (AUG-CC-PVTZ AUX)
    Blend: AUG-CC-PVTZ-JKFIT
	 Reference Energy          =    -578.6300817136543628 [Eh]
	 Singles Energy            =      -0.0000000000000000 [Eh]
	 Same-Spin Energy          =      -0.6162733479183685 [Eh]
	 Opposite-Spin Energy      =      -1.8200304507627452 [Eh]
	 Correlation Energy        =      -2.4363037986811138 [Eh]
	 Total Energy              =    -581.0663855123355006 [Eh]

	 ================> DF-SCS-MP2 Energies <==================
	-----------------------------------------------------------
	 SCS Same-Spin Scale       =       0.3333333333333333 [-]
	 SCS Opposite-Spin Scale   =       1.2000000000000000 [-]
	 SCS Same-Spin Energy      =      -0.2054244493061228 [Eh]
	 SCS Opposite-Spin Energy  =      -2.1840365409152942 [Eh]
	 SCS Correlation Energy    =      -2.3894609902214170 [Eh]
	 SCS Total Energy          =    -581.0195427038757998 [Eh]
	-----------------------------------------------------------

  Dipole Moment: [D]
     X:    -0.0595      Y:    -6.7637      Z:    -0.9372     Total:     6.8286

*** Psi4 exiting successfully. Buy a developer a beer!
