                               Psi4 1.3.2 release

  ==> Input File <==

--------------------------------------------------------------------------
#psi4
#
memory 32 gb

molecule  {
0 1
  O       -1.4697740     2.5644010     0.0803940
  N        1.9191590    -0.5831280    -0.0556370
  N       -1.9102790     0.3061000     0.0485010
  N       -0.3427170    -1.4672350    -0.0387560
  N        1.5166440     1.6409000    -0.0105650
  N       -2.6294290    -1.9169300     0.1110730
  C        0.5576980    -0.4369160    -0.0295360
  C        0.3337570     0.9396730    -0.0094060
  C       -0.9649375     1.3757066     0.0326304
  C        2.4390620     0.6894910    -0.0699270
  C       -1.5038233    -1.0065310     0.0168105
  C        2.6353690    -1.8453210    -0.0655260
  H        3.5092610     0.8590810    -0.0866130
  H        2.3729340    -2.4304260     0.8177420
  H        2.3794720    -2.4140780    -0.9605130
  H        3.7041390    -1.6305860    -0.0592400
  H       -2.8879820     0.5691470     0.1693100
  H       -2.3258040    -2.8676930    -0.0642460
  H       -3.4596940    -1.6726380    -0.4173570
units angstrom
no_reorient  #important for SAPT in psi4, default
symmetry c1  #important for SAPT in psi4, default
}

set PROPERTIES_ORIGIN ["COM"]
properties('MP2/aug-cc-pvtz', properties = ['dipole'])
--------------------------------------------------------------------------

    Molecular point group: c1
  Charge       = 0
  Multiplicity = 1
  Basis Set: AUG-CC-PVTZ
    Blend: AUG-CC-PVTZ
  Basis Set: (AUG-CC-PVTZ AUX)
    Blend: AUG-CC-PVTZ-JKFIT

    Orbital Energies [Eh]
    ---------------------

    Doubly Occupied:

       1A    -20.505583     2A    -15.643400     3A    -15.631906
       4A    -15.600547     5A    -15.581047     6A    -15.568536
       7A    -11.393527     8A    -11.360532     9A    -11.333834
      10A    -11.317828    11A    -11.296967    12A    -11.252450
      13A     -1.393242    14A     -1.353089    15A     -1.316800
      16A     -1.226828    17A     -1.203734    18A     -1.197953
      19A     -1.048643    20A     -0.998097    21A     -0.917191
      22A     -0.877971    23A     -0.815694    24A     -0.776362
      25A     -0.751493    26A     -0.722004    27A     -0.685734
      28A     -0.678928    29A     -0.656525    30A     -0.639993
      31A     -0.629983    32A     -0.604506    33A     -0.590866
      34A     -0.579454    35A     -0.566111    36A     -0.530000
      37A     -0.506554    38A     -0.458917    39A     -0.443850
      40A     -0.421751    41A     -0.420690    42A     -0.400519
      43A     -0.312861

  @DF-RHF Final Energy:  -578.60930822751686

   => Energetics <=

    Nuclear Repulsion Energy =            695.0317432861404541
    One-Electron Energy =               -2166.8571044741524929
    Two-Electron Energy =                 893.2160529604951762
    Total Energy =                       -578.6093082275168626
  Basis Set: (AUG-CC-PVTZ AUX)
    Blend: AUG-CC-PVTZ-RI
    Molecular point group: c1

    Geometry (in Angstrom), charge = 0, multiplicity = 1:

       Center              X                  Y                   Z               Mass
    ------------   -----------------  -----------------  -----------------  -----------------
         O           -1.478967504645     2.566472421043     0.080723453969    15.994914619570
         N            1.909965495355    -0.581056578957    -0.055307546031    14.003074004430
         N           -1.919472504645     0.308171421043     0.048830453969    14.003074004430
         N           -0.351910504645    -1.465163578957    -0.038426546031    14.003074004430
         N            1.507450495355     1.642971421043    -0.010235546031    14.003074004430
         N           -2.638622504645    -1.914858578957     0.111402453969    14.003074004430
         C            0.548504495355    -0.434844578957    -0.029206546031    12.000000000000
         C            0.324563495355     0.941744421043    -0.009076546031    12.000000000000
         C           -0.974131004645     1.377778021043     0.032959853969    12.000000000000
         C            2.429868495355     0.691562421043    -0.069597546031    12.000000000000
         C           -1.513016804645    -1.004459578957     0.017139953969    12.000000000000
         C            2.626175495355    -1.843249578957    -0.065196546031    12.000000000000
         H            3.500067495355     0.861152421043    -0.086283546031     1.007825032230
         H            2.363740495355    -2.428354578957     0.818071453969     1.007825032230
         H            2.370278495355    -2.412006578957    -0.960183546031     1.007825032230
         H            3.694945495355    -1.628514578957    -0.058910546031     1.007825032230
         H           -2.897175504645     0.571218421043     0.169639453969     1.007825032230
         H           -2.334997504645    -2.865621578957    -0.063916546031     1.007825032230
         H           -3.468887504645    -1.670566578957    -0.417027546031     1.007825032230

  Basis Set: AUG-CC-PVTZ
    Blend: AUG-CC-PVTZ
  Basis Set: (AUG-CC-PVTZ AUX)
    Blend: AUG-CC-PVTZ-JKFIT
	 Reference Energy          =    -578.6093082275168626 [Eh]
	 Singles Energy            =      -0.0000000000000000 [Eh]
	 Same-Spin Energy          =      -0.6170315966682312 [Eh]
	 Opposite-Spin Energy      =      -1.8223985841909927 [Eh]
	 Correlation Energy        =      -2.4394301808592238 [Eh]
	 Total Energy              =    -581.0487384083760389 [Eh]

	 ================> DF-SCS-MP2 Energies <==================
	-----------------------------------------------------------
	 SCS Same-Spin Scale       =       0.3333333333333333 [-]
	 SCS Opposite-Spin Scale   =       1.2000000000000000 [-]
	 SCS Same-Spin Energy      =      -0.2056771988894104 [Eh]
	 SCS Opposite-Spin Energy  =      -2.1868783010291910 [Eh]
	 SCS Correlation Energy    =      -2.3925554999186014 [Eh]
	 SCS Total Energy          =    -581.0018637274354205 [Eh]
	-----------------------------------------------------------

  Dipole Moment: [D]
     X:     0.9984      Y:    -7.0625      Z:    -0.9827     Total:     7.2001

*** Psi4 exiting successfully. Buy a developer a beer!
