                               Psi4 1.3.2 release

  ==> Input File <==

--------------------------------------------------------------------------
#psi4
#
memory 32 gb

molecule  {
0 1
  O       -1.4697740     2.5644010     0.0803940
  N        1.9191590    -0.5831280    -0.0556370
  N       -1.9102790     0.3061000     0.0485010
  N       -0.3427170    -1.4672350    -0.0387560
  N        1.5166440     1.6409000    -0.0105650
  N       -2.6294290    -1.9169300     0.1110730
  C        0.5576980    -0.4369160    -0.0295360
  C        0.3337570     0.9396730    -0.0094060
  C       -1.0221650     1.4237120     0.0351730
  C        2.4390620     0.6894910    -0.0699270
  C       -1.5730580    -1.0260450     0.0187980
  C        2.6353690    -1.8453210    -0.0655260
  H        3.4105051     0.8434316    -0.0850732
  H        2.3729340    -2.4304260     0.8177420
  H        2.3794720    -2.4140780    -0.9605130
  H        3.7041390    -1.6305860    -0.0592400
  H       -2.8879820     0.5691470     0.1693100
  H       -2.3258040    -2.8676930    -0.0642460
  H       -3.4596940    -1.6726380    -0.4173570
units angstrom
no_reorient  #important for SAPT in psi4, default
symmetry c1  #important for SAPT in psi4, default
}

set PROPERTIES_ORIGIN ["COM"]
properties('MP2/aug-cc-pvtz', properties = ['dipole'])
--------------------------------------------------------------------------

    Molecular point group: c1
  Charge       = 0
  Multiplicity = 1
  Basis Set: AUG-CC-PVTZ
    Blend: AUG-CC-PVTZ
  Basis Set: (AUG-CC-PVTZ AUX)
    Blend: AUG-CC-PVTZ-JKFIT

    Orbital Energies [Eh]
    ---------------------

    Doubly Occupied:

       1A    -20.520822     2A    -15.632165     3A    -15.629186
       4A    -15.610636     5A    -15.570711     6A    -15.559254
       7A    -11.395963     8A    -11.364116     9A    -11.318791
      10A    -11.296049    11A    -11.289543    12A    -11.246517
      13A     -1.390544    14A     -1.360405    15A     -1.333934
      16A     -1.219011    17A     -1.216131    18A     -1.190293
      19A     -1.032024    20A     -0.986722    21A     -0.907461
      22A     -0.882823    23A     -0.815466    24A     -0.766635
      25A     -0.741077    26A     -0.735329    27A     -0.693690
      28A     -0.671339    29A     -0.650843    30A     -0.645702
      31A     -0.626719    32A     -0.610340    33A     -0.602640
      34A     -0.578650    35A     -0.560897    36A     -0.541506
      37A     -0.493660    38A     -0.459153    39A     -0.440093
      40A     -0.429198    41A     -0.428730    42A     -0.392298
      43A     -0.298357

  @DF-RHF Final Energy:  -578.62475735467478

   => Energetics <=

    Nuclear Repulsion Energy =            694.0551981450452104
    One-Electron Energy =               -2165.0890671654969992
    Two-Electron Energy =                 892.4091116657768907
    Total Energy =                       -578.6247573546747844
  Basis Set: (AUG-CC-PVTZ AUX)
    Blend: AUG-CC-PVTZ-RI
    Molecular point group: c1

    Geometry (in Angstrom), charge = 0, multiplicity = 1:

       Center              X                  Y                   Z               Mass
    ------------   -----------------  -----------------  -----------------  -----------------
         O           -1.469170912505     2.564496685275     0.080384720569    15.994914619570
         N            1.919762087495    -0.583032314725    -0.055646279431    14.003074004430
         N           -1.909675912505     0.306195685275     0.048491720569    14.003074004430
         N           -0.342113912505    -1.467139314725    -0.038765279431    14.003074004430
         N            1.517247087495     1.640995685275    -0.010574279431    14.003074004430
         N           -2.628825912505    -1.916834314725     0.111063720569    14.003074004430
         C            0.558301087495    -0.436820314725    -0.029545279431    12.000000000000
         C            0.334360087495     0.939768685275    -0.009415279431    12.000000000000
         C           -1.021561912505     1.423807685275     0.035163720569    12.000000000000
         C            2.439665087495     0.689586685275    -0.069936279431    12.000000000000
         C           -1.572454912505    -1.025949314725     0.018788720569    12.000000000000
         C            2.635972087495    -1.845225314725    -0.065535279431    12.000000000000
         H            3.411108187495     0.843527285275    -0.085082479431     1.007825032230
         H            2.373537087495    -2.430330314725     0.817732720569     1.007825032230
         H            2.380075087495    -2.413982314725    -0.960522279431     1.007825032230
         H            3.704742087495    -1.630490314725    -0.059249279431     1.007825032230
         H           -2.887378912505     0.569242685275     0.169300720569     1.007825032230
         H           -2.325200912505    -2.867597314725    -0.064255279431     1.007825032230
         H           -3.459090912505    -1.672542314725    -0.417366279431     1.007825032230

  Basis Set: AUG-CC-PVTZ
    Blend: AUG-CC-PVTZ
  Basis Set: (AUG-CC-PVTZ AUX)
    Blend: AUG-CC-PVTZ-JKFIT
	 Reference Energy          =    -578.6247573546747844 [Eh]
	 Singles Energy            =      -0.0000000000000000 [Eh]
	 Same-Spin Energy          =      -0.6158564778058204 [Eh]
	 Opposite-Spin Energy      =      -1.8193067837662282 [Eh]
	 Correlation Energy        =      -2.4351632615720487 [Eh]
	 Total Energy              =    -581.0599206162468136 [Eh]

	 ================> DF-SCS-MP2 Energies <==================
	-----------------------------------------------------------
	 SCS Same-Spin Scale       =       0.3333333333333333 [-]
	 SCS Opposite-Spin Scale   =       1.2000000000000000 [-]
	 SCS Same-Spin Energy      =      -0.2052854926019401 [Eh]
	 SCS Opposite-Spin Energy  =      -2.1831681405194736 [Eh]
	 SCS Correlation Energy    =      -2.3884536331214137 [Eh]
	 SCS Total Energy          =    -581.0132109877962421 [Eh]
	-----------------------------------------------------------

  Dipole Moment: [D]
     X:    -0.0176      Y:    -6.8046      Z:    -0.9380     Total:     6.8689

*** Psi4 exiting successfully. Buy a developer a beer!
