                               Psi4 1.3.2 release

  ==> Input File <==

--------------------------------------------------------------------------
#psi4
#
memory 32 gb

molecule  {
0 1
  O       -1.4697740     2.5644010     0.0803940
  N        1.9191590    -0.5831280    -0.0556370
  N       -1.9102790     0.3061000     0.0485010
  N       -0.3427170    -1.4672350    -0.0387560
  N        1.5104848     1.6511880    -0.0100908
  N       -2.6294290    -1.9169300     0.1110730
  C        0.5576980    -0.4369160    -0.0295360
  C        0.3337570     0.9396730    -0.0094060
  C       -1.0178796     1.4355249     0.0354802
  C        2.4390620     0.6894910    -0.0699270
  C       -1.5730580    -1.0260450     0.0187980
  C        2.6353690    -1.8453210    -0.0655260
  H        3.5092610     0.8590810    -0.0866130
  H        2.3729340    -2.4304260     0.8177420
  H        2.3794720    -2.4140780    -0.9605130
  H        3.7041390    -1.6305860    -0.0592400
  H       -2.8879820     0.5691470     0.1693100
  H       -2.3258040    -2.8676930    -0.0642460
  H       -3.4596940    -1.6726380    -0.4173570
units angstrom
no_reorient  #important for SAPT in psi4, default
symmetry c1  #important for SAPT in psi4, default
}

set PROPERTIES_ORIGIN ["COM"]
properties('MP2/aug-cc-pvtz', properties = ['dipole'])
--------------------------------------------------------------------------

    Molecular point group: c1
  Charge       = 0
  Multiplicity = 1
  Basis Set: AUG-CC-PVTZ
    Blend: AUG-CC-PVTZ
  Basis Set: (AUG-CC-PVTZ AUX)
    Blend: AUG-CC-PVTZ-JKFIT

    Orbital Energies [Eh]
    ---------------------

    Doubly Occupied:

       1A    -20.523557     2A    -15.633992     3A    -15.626986
       4A    -15.609645     5A    -15.569690     6A    -15.561054
       7A    -11.394778     8A    -11.364524     9A    -11.318939
      10A    -11.308548    11A    -11.289709    12A    -11.246826
      13A     -1.393074    14A     -1.362076    15A     -1.333760
      16A     -1.217184    17A     -1.214370    18A     -1.189380
      19A     -1.027812    20A     -0.987130    21A     -0.900772
      22A     -0.879522    23A     -0.806920    24A     -0.767244
      25A     -0.738532    26A     -0.728232    27A     -0.691314
      28A     -0.670711    29A     -0.650697    30A     -0.641263
      31A     -0.625593    32A     -0.613941    33A     -0.591146
      34A     -0.578856    35A     -0.560434    36A     -0.543211
      37A     -0.493556    38A     -0.458471    39A     -0.441024
      40A     -0.430768    41A     -0.429026    42A     -0.392824
      43A     -0.297091

  @DF-RHF Final Energy:  -578.62964965672018

   => Energetics <=

    Nuclear Repulsion Energy =            693.1453343678464307
    One-Electron Energy =               -2163.3416026941672499
    Two-Electron Energy =                 891.5666186696007571
    Total Energy =                       -578.6296496567201757
  Basis Set: (AUG-CC-PVTZ AUX)
    Blend: AUG-CC-PVTZ-RI
    Molecular point group: c1

    Geometry (in Angstrom), charge = 0, multiplicity = 1:

       Center              X                  Y                   Z               Mass
    ------------   -----------------  -----------------  -----------------  -----------------
         O           -1.469562913905     2.562669585810     0.080331560871    15.994914619570
         N            1.919370086095    -0.584859414190    -0.055699439129    14.003074004430
         N           -1.910067913905     0.304368585810     0.048438560871    14.003074004430
         N           -0.342505913905    -1.468966414190    -0.038818439129    14.003074004430
         N            1.510695886095     1.649456585810    -0.010153239129    14.003074004430
         N           -2.629217913905    -1.918661414190     0.111010560871    14.003074004430
         C            0.557909086095    -0.438647414190    -0.029598439129    12.000000000000
         C            0.333968086095     0.937941585810    -0.009468439129    12.000000000000
         C           -1.017668513905     1.433793485810     0.035417760871    12.000000000000
         C            2.439273086095     0.687759585810    -0.069989439129    12.000000000000
         C           -1.572846913905    -1.027776414190     0.018735560871    12.000000000000
         C            2.635580086095    -1.847052414190    -0.065588439129    12.000000000000
         H            3.509472086095     0.857349585810    -0.086675439129     1.007825032230
         H            2.373145086095    -2.432157414190     0.817679560871     1.007825032230
         H            2.379683086095    -2.415809414190    -0.960575439129     1.007825032230
         H            3.704350086095    -1.632317414190    -0.059302439129     1.007825032230
         H           -2.887770913905     0.567415585810     0.169247560871     1.007825032230
         H           -2.325592913905    -2.869424414190    -0.064308439129     1.007825032230
         H           -3.459482913905    -1.674369414190    -0.417419439129     1.007825032230

  Basis Set: AUG-CC-PVTZ
    Blend: AUG-CC-PVTZ
  Basis Set: (AUG-CC-PVTZ AUX)
    Blend: AUG-CC-PVTZ-JKFIT
	 Reference Energy          =    -578.6296496567201757 [Eh]
	 Singles Energy            =      -0.0000000000000000 [Eh]
	 Same-Spin Energy          =      -0.6162599164908613 [Eh]
	 Opposite-Spin Energy      =      -1.8202732493401401 [Eh]
	 Correlation Energy        =      -2.4365331658310012 [Eh]
	 Total Energy              =    -581.0661828225511272 [Eh]

	 ================> DF-SCS-MP2 Energies <==================
	-----------------------------------------------------------
	 SCS Same-Spin Scale       =       0.3333333333333333 [-]
	 SCS Opposite-Spin Scale   =       1.2000000000000000 [-]
	 SCS Same-Spin Energy      =      -0.2054199721636204 [Eh]
	 SCS Opposite-Spin Energy  =      -2.1843278992081681 [Eh]
	 SCS Correlation Energy    =      -2.3897478713717883 [Eh]
	 SCS Total Energy          =    -581.0193975280919858 [Eh]
	-----------------------------------------------------------

  Dipole Moment: [D]
     X:    -0.0014      Y:    -6.7042      Z:    -0.9354     Total:     6.7692

*** Psi4 exiting successfully. Buy a developer a beer!
