                               Psi4 1.3.2 release

  ==> Input File <==

--------------------------------------------------------------------------
#psi4
#
memory 32 gb

molecule  {
0 1
  O       -1.4697740     2.5644010     0.0803940
  N        1.9191590    -0.5831280    -0.0556370
  N       -1.9102790     0.3061000     0.0485010
  N       -0.3427170    -1.4672350    -0.0387560
  N        1.5166440     1.6409000    -0.0105650
  N       -2.6294290    -1.9169300     0.1110730
  C        0.5576980    -0.4369160    -0.0295360
  C        0.3337570     0.9396730    -0.0094060
  C       -1.0221650     1.4237120     0.0351730
  C        2.4390620     0.6894910    -0.0699270
  C       -1.3849784    -1.0934888     0.0099998
  C        2.6353690    -1.8453210    -0.0655260
  H        3.5092610     0.8590810    -0.0866130
  H        2.3729340    -2.4304260     0.8177420
  H        2.3794720    -2.4140780    -0.9605130
  H        3.7041390    -1.6305860    -0.0592400
  H       -2.8879820     0.5691470     0.1693100
  H       -2.3258040    -2.8676930    -0.0642460
  H       -3.4596940    -1.6726380    -0.4173570
units angstrom
no_reorient  #important for SAPT in psi4, default
symmetry c1  #important for SAPT in psi4, default
}

set PROPERTIES_ORIGIN ["COM"]
properties('MP2/aug-cc-pvtz', properties = ['dipole'])
--------------------------------------------------------------------------

    Molecular point group: c1
  Charge       = 0
  Multiplicity = 1
  Basis Set: AUG-CC-PVTZ
    Blend: AUG-CC-PVTZ
  Basis Set: (AUG-CC-PVTZ AUX)
    Blend: AUG-CC-PVTZ-JKFIT

    Orbital Energies [Eh]
    ---------------------

    Doubly Occupied:

       1A    -20.517972     2A    -15.647030     3A    -15.606775
       4A    -15.585744     5A    -15.580744     6A    -15.569973
       7A    -11.377126     8A    -11.357443     9A    -11.331746
      10A    -11.316877    11A    -11.299425    12A    -11.262623
      13A     -1.413725    14A     -1.366981    15A     -1.356467
      16A     -1.221644    17A     -1.203317    18A     -1.176375
      19A     -1.046146    20A     -0.994688    21A     -0.910964
      22A     -0.861478    23A     -0.816822    24A     -0.772314
      25A     -0.738677    26A     -0.709998    27A     -0.688013
      28A     -0.674179    29A     -0.664335    30A     -0.637340
      31A     -0.623402    32A     -0.612604    33A     -0.598841
      34A     -0.588466    35A     -0.568948    36A     -0.548871
      37A     -0.504235    38A     -0.456293    39A     -0.444665
      40A     -0.425222    41A     -0.414720    42A     -0.403247
      43A     -0.323420

  @DF-RHF Final Energy:  -578.55667271924267

   => Energetics <=

    Nuclear Repulsion Energy =            695.3629906248626185
    One-Electron Energy =               -2167.3995740505479262
    Two-Electron Energy =                 893.4799107064427517
    Total Energy =                       -578.5566727192426697
  Basis Set: (AUG-CC-PVTZ AUX)
    Blend: AUG-CC-PVTZ-RI
    Molecular point group: c1

    Geometry (in Angstrom), charge = 0, multiplicity = 1:

       Center              X                  Y                   Z               Mass
    ------------   -----------------  -----------------  -----------------  -----------------
         O           -1.483447003823     2.569304206282     0.081033738896    15.994914619570
         N            1.905485996177    -0.578224793718    -0.054997261104    14.003074004430
         N           -1.923952003823     0.311003206282     0.049140738896    14.003074004430
         N           -0.356390003823    -1.462331793718    -0.038116261104    14.003074004430
         N            1.502970996177     1.645803206282    -0.009925261104    14.003074004430
         N           -2.643102003823    -1.912026793718     0.111712738896    14.003074004430
         C            0.544024996177    -0.432012793718    -0.028896261104    12.000000000000
         C            0.320083996177     0.944576206282    -0.008766261104    12.000000000000
         C           -1.035838003823     1.428615206282     0.035812738896    12.000000000000
         C            2.425388996177     0.694394206282    -0.069287261104    12.000000000000
         C           -1.398651403823    -1.088585593718     0.010639538896    12.000000000000
         C            2.621695996177    -1.840417793718    -0.064886261104    12.000000000000
         H            3.495587996177     0.863984206282    -0.085973261104     1.007825032230
         H            2.359260996177    -2.425522793718     0.818381738896     1.007825032230
         H            2.365798996177    -2.409174793718    -0.959873261104     1.007825032230
         H            3.690465996177    -1.625682793718    -0.058600261104     1.007825032230
         H           -2.901655003823     0.574050206282     0.169949738896     1.007825032230
         H           -2.339477003823    -2.862789793718    -0.063606261104     1.007825032230
         H           -3.473367003823    -1.667734793718    -0.416717261104     1.007825032230

  Basis Set: AUG-CC-PVTZ
    Blend: AUG-CC-PVTZ
  Basis Set: (AUG-CC-PVTZ AUX)
    Blend: AUG-CC-PVTZ-JKFIT
	 Reference Energy          =    -578.5566727192426697 [Eh]
	 Singles Energy            =      -0.0000000000000000 [Eh]
	 Same-Spin Energy          =      -0.6145002718596517 [Eh]
	 Opposite-Spin Energy      =      -1.8196490868334103 [Eh]
	 Correlation Energy        =      -2.4341493586930620 [Eh]
	 Total Energy              =    -580.9908220779357180 [Eh]

	 ================> DF-SCS-MP2 Energies <==================
	-----------------------------------------------------------
	 SCS Same-Spin Scale       =       0.3333333333333333 [-]
	 SCS Opposite-Spin Scale   =       1.2000000000000000 [-]
	 SCS Same-Spin Energy      =      -0.2048334239532172 [Eh]
	 SCS Opposite-Spin Energy  =      -2.1835789042000924 [Eh]
	 SCS Correlation Energy    =      -2.3884123281533096 [Eh]
	 SCS Total Energy          =    -580.9450850473959918 [Eh]
	-----------------------------------------------------------

  Dipole Moment: [D]
     X:     1.5992      Y:    -6.8212      Z:    -1.0136     Total:     7.0791

*** Psi4 exiting successfully. Buy a developer a beer!
