                               Psi4 1.4a3.dev225

  ==> Input File <==

--------------------------------------------------------------------------
#psi4
#
memory 32 gb

molecule  {
0 1
  O        1.6617960     2.5152110     0.0229320
  N       -1.9329240    -0.4005880    -0.0147920
  N        1.9545050     0.2323110     0.0113410
  N        0.2669280    -1.4301930    -0.0208730
  N       -1.3834780     1.7915450    -0.0193170
  N        2.5221760    -2.0364130     0.0734370
  C       -0.5634760    -0.3442740    -0.0026930
  C       -0.2488450     1.0144850    -0.0147620
  C        1.1380320     1.4076430     0.0031510
  C       -2.3683130     0.9036150    -0.0164120
  C        1.5213777    -1.0911265    -0.0060416
  C       -2.7322540    -1.6127190     0.0339130
  H       -3.4247340     1.1445090    -0.0228960
  H       -2.2735910    -2.3629350    -0.6109560
  H       -2.7853950    -1.9995380     1.0543320
  H       -3.7366260    -1.3828770    -0.3245450
  H        2.9468270     0.4301980     0.1174830
  H        2.1372730    -2.9631930    -0.0801050
  H        3.3349710    -1.8642740    -0.5097710
units angstrom
no_reorient  #important for SAPT in psi4, default
symmetry c1  #important for SAPT in psi4, default
}

set PROPERTIES_ORIGIN ["COM"]
properties('MP2/aug-cc-pvtz', properties = ['dipole'])
--------------------------------------------------------------------------

    Molecular point group: c1
  Charge       = 0
  Multiplicity = 1
  Basis Set: AUG-CC-PVTZ
    Blend: AUG-CC-PVTZ
  Basis Set: (AUG-CC-PVTZ AUX)
    Blend: AUG-CC-PVTZ-JKFIT

    Orbital Energies [Eh]
    ---------------------

    Doubly Occupied:

       1A    -20.520377     2A    -15.633387     3A    -15.626170
       4A    -15.611563     5A    -15.571518     6A    -15.560184
       7A    -11.395700     8A    -11.363748     9A    -11.319873
      10A    -11.307159    11A    -11.289462    12A    -11.247635
      13A     -1.389095    14A     -1.360623    15A     -1.333600
      16A     -1.220278    17A     -1.215069    18A     -1.190283
      19A     -1.029697    20A     -0.986040    21A     -0.900479
      22A     -0.879760    23A     -0.807654    24A     -0.766329
      25A     -0.739778    26A     -0.729365    27A     -0.691007
      28A     -0.670771    29A     -0.648422    30A     -0.644382
      31A     -0.625045    32A     -0.610274    33A     -0.593960
      34A     -0.578775    35A     -0.561656    36A     -0.542144
      37A     -0.492682    38A     -0.461329    39A     -0.439004
      40A     -0.428961    41A     -0.427591    42A     -0.392928
      43A     -0.299589

  @DF-RHF Final Energy:  -578.63016529831964

   => Energetics <=

    Nuclear Repulsion Energy =            693.0643714613810289
    One-Electron Energy =               -2163.1823812617240037
    Two-Electron Energy =                 891.4878445020232220
    Total Energy =                       -578.6301652983196391
  Basis Set: (AUG-CC-PVTZ AUX)
    Blend: AUG-CC-PVTZ-RI
    Molecular point group: c1

    Geometry (in Angstrom), charge = 0, multiplicity = 1:

       Center              X                  Y                   Z               Mass
    ------------   -----------------  -----------------  -----------------  -----------------
         O            1.639424150504     2.462618717465     0.020687479086    15.994914619570
         N           -1.955295849496    -0.453180282535    -0.017036520914    14.003074004430
         N            1.932133150504     0.179718717465     0.009096479086    14.003074004430
         N            0.244556150504    -1.482785282535    -0.023117520914    14.003074004430
         N           -1.405849849496     1.738952717465    -0.021561520914    14.003074004430
         N            2.499804150504    -2.089005282535     0.071192479086    14.003074004430
         C           -0.585847849496    -0.396866282535    -0.004937520914    12.000000000000
         C           -0.271216849496     0.961892717465    -0.017006520914    12.000000000000
         C            1.115660150504     1.355050717465     0.000906479086    12.000000000000
         C           -2.390684849496     0.851022717465    -0.018656520914    12.000000000000
         C            1.499005850504    -1.143718782535    -0.008286120914    12.000000000000
         C           -2.754625849496    -1.665311282535     0.031668479086    12.000000000000
         H           -3.447105849496     1.091916717465    -0.025140520914     1.007825032230
         H           -2.295962849496    -2.415527282535    -0.613200520914     1.007825032230
         H           -2.807766849496    -2.052130282535     1.052087479086     1.007825032230
         H           -3.758997849496    -1.435469282535    -0.326789520914     1.007825032230
         H            2.924455150504     0.377605717465     0.115238479086     1.007825032230
         H            2.114901150504    -3.015785282535    -0.082349520914     1.007825032230
         H            3.312599150504    -1.916866282535    -0.512015520914     1.007825032230

  Basis Set: AUG-CC-PVTZ
    Blend: AUG-CC-PVTZ
  Basis Set: (AUG-CC-PVTZ AUX)
    Blend: AUG-CC-PVTZ-JKFIT
	 Reference Energy          =    -578.6301652983196391 [Eh]
	 Singles Energy            =      -0.0000000000000000 [Eh]
	 Same-Spin Energy          =      -0.6160166718241871 [Eh]
	 Opposite-Spin Energy      =      -1.8197740115014711 [Eh]
	 Correlation Energy        =      -2.4357906833256582 [Eh]
	 Total Energy              =    -581.0659559816452884 [Eh]

	 ================> DF-SCS-MP2 Energies <==================
	-----------------------------------------------------------
	 SCS Same-Spin Scale       =       0.3333333333333333 [-]
	 SCS Opposite-Spin Scale   =       1.2000000000000000 [-]
	 SCS Same-Spin Energy      =      -0.2053388906080623 [Eh]
	 SCS Opposite-Spin Energy  =      -2.1837288138017654 [Eh]
	 SCS Correlation Energy    =      -2.3890677044098276 [Eh]
	 SCS Total Energy          =    -581.0192330027294929 [Eh]
	-----------------------------------------------------------

  Dipole Moment: [D]
     X:    -0.5516      Y:    -6.8469      Z:    -0.8523     Total:     6.9217

*** Psi4 exiting successfully. Buy a developer a beer!
