                               Psi4 1.3.2 release

  ==> Input File <==

--------------------------------------------------------------------------
#psi4
#
memory 32 gb

molecule  {
0 1
  O       -1.4697740     2.5644010     0.0803940
  N        1.9191590    -0.5831280    -0.0556370
  N       -1.9102790     0.3061000     0.0485010
  N       -0.3427170    -1.4672350    -0.0387560
  N        1.5166440     1.6409000    -0.0105650
  N       -2.6294290    -1.9169300     0.1110730
  C        0.5025913    -0.3912797    -0.0259765
  C        0.3337570     0.9396730    -0.0094060
  C       -1.0221650     1.4237120     0.0351730
  C        2.4390620     0.6894910    -0.0699270
  C       -1.5481969    -0.9622404     0.0203940
  C        2.6353690    -1.8453210    -0.0655260
  H        3.5092610     0.8590810    -0.0866130
  H        2.3729340    -2.4304260     0.8177420
  H        2.3794720    -2.4140780    -0.9605130
  H        3.7041390    -1.6305860    -0.0592400
  H       -2.8879820     0.5691470     0.1693100
  H       -2.3258040    -2.8676930    -0.0642460
  H       -3.4596940    -1.6726380    -0.4173570
units angstrom
no_reorient  #important for SAPT in psi4, default
symmetry c1  #important for SAPT in psi4, default
}

set PROPERTIES_ORIGIN ["COM"]
properties('MP2/aug-cc-pvtz', properties = ['dipole'])
--------------------------------------------------------------------------

    Molecular point group: c1
  Charge       = 0
  Multiplicity = 1
  Basis Set: AUG-CC-PVTZ
    Blend: AUG-CC-PVTZ
  Basis Set: (AUG-CC-PVTZ AUX)
    Blend: AUG-CC-PVTZ-JKFIT

    Orbital Energies [Eh]
    ---------------------

    Doubly Occupied:

       1A    -20.528691     2A    -15.639312     3A    -15.626307
       4A    -15.602092     5A    -15.574922     6A    -15.556243
       7A    -11.394806     8A    -11.370477     9A    -11.317842
      10A    -11.311179    11A    -11.286533    12A    -11.248340
      13A     -1.401625    14A     -1.357421    15A     -1.335207
      16A     -1.229380    17A     -1.202521    18A     -1.188394
      19A     -1.039338    20A     -0.981041    21A     -0.903767
      22A     -0.888228    23A     -0.809187    24A     -0.773297
      25A     -0.745825    26A     -0.713380    27A     -0.687259
      28A     -0.669917    29A     -0.656421    30A     -0.636487
      31A     -0.620271    32A     -0.615750    33A     -0.596613
      34A     -0.567523    35A     -0.558120    36A     -0.540191
      37A     -0.505549    38A     -0.455312    39A     -0.446272
      40A     -0.437220    41A     -0.434558    42A     -0.391104
      43A     -0.307030

  @DF-RHF Final Energy:  -578.61840546702001

   => Energetics <=

    Nuclear Repulsion Energy =            694.6558254451426819
    One-Electron Energy =               -2166.2465643543037004
    Two-Electron Energy =                 892.9723334421410073
    Total Energy =                       -578.6184054670200112
  Basis Set: (AUG-CC-PVTZ AUX)
    Blend: AUG-CC-PVTZ-RI
    Molecular point group: c1

    Geometry (in Angstrom), charge = 0, multiplicity = 1:

       Center              X                  Y                   Z               Mass
    ------------   -----------------  -----------------  -----------------  -----------------
         O           -1.467575065800     2.556444934903     0.080019324336    15.994914619570
         N            1.921357934200    -0.591084065097    -0.056011675664    14.003074004430
         N           -1.908080065800     0.298143934903     0.048126324336    14.003074004430
         N           -0.340518065800    -1.475191065097    -0.039130675664    14.003074004430
         N            1.518842934200     1.632943934903    -0.010939675664    14.003074004430
         N           -2.627230065800    -1.924886065097     0.110698324336    14.003074004430
         C            0.504790234200    -0.399235765097    -0.026351175664    12.000000000000
         C            0.335955934200     0.931716934903    -0.009780675664    12.000000000000
         C           -1.019966065800     1.415755934903     0.034798324336    12.000000000000
         C            2.441260934200     0.681534934903    -0.070301675664    12.000000000000
         C           -1.545997965800    -0.970196465097     0.020019324336    12.000000000000
         C            2.637567934200    -1.853277065097    -0.065900675664    12.000000000000
         H            3.511459934200     0.851124934903    -0.086987675664     1.007825032230
         H            2.375132934200    -2.438382065097     0.817367324336     1.007825032230
         H            2.381670934200    -2.422034065097    -0.960887675664     1.007825032230
         H            3.706337934200    -1.638542065097    -0.059614675664     1.007825032230
         H           -2.885783065800     0.561190934903     0.168935324336     1.007825032230
         H           -2.323605065800    -2.875649065097    -0.064620675664     1.007825032230
         H           -3.457495065800    -1.680594065097    -0.417731675664     1.007825032230

  Basis Set: AUG-CC-PVTZ
    Blend: AUG-CC-PVTZ
  Basis Set: (AUG-CC-PVTZ AUX)
    Blend: AUG-CC-PVTZ-JKFIT
	 Reference Energy          =    -578.6184054670200112 [Eh]
	 Singles Energy            =      -0.0000000000000000 [Eh]
	 Same-Spin Energy          =      -0.6155684193521797 [Eh]
	 Opposite-Spin Energy      =      -1.8203655025618932 [Eh]
	 Correlation Energy        =      -2.4359339219140730 [Eh]
	 Total Energy              =    -581.0543393889340678 [Eh]

	 ================> DF-SCS-MP2 Energies <==================
	-----------------------------------------------------------
	 SCS Same-Spin Scale       =       0.3333333333333333 [-]
	 SCS Opposite-Spin Scale   =       1.2000000000000000 [-]
	 SCS Same-Spin Energy      =      -0.2051894731173932 [Eh]
	 SCS Opposite-Spin Energy  =      -2.1844386030742720 [Eh]
	 SCS Correlation Energy    =      -2.3896280761916651 [Eh]
	 SCS Total Energy          =    -581.0080335432116954 [Eh]
	-----------------------------------------------------------

  Dipole Moment: [D]
     X:    -0.0265      Y:    -6.2851      Z:    -0.9384     Total:     6.3548

*** Psi4 exiting successfully. Buy a developer a beer!
