                               Psi4 1.3.2 release

  ==> Input File <==

--------------------------------------------------------------------------
#psi4
#
memory 32 gb

molecule  {
0 1
  O       -1.4697740     2.5644010     0.0803940
  N        1.9096121    -0.6541742    -0.0571475
  N       -1.9102790     0.3061000     0.0485010
  N       -0.2875713    -1.5129195    -0.0407475
  N        1.5166440     1.6409000    -0.0105650
  N       -2.6294290    -1.9169300     0.1110730
  C        0.5576980    -0.4369160    -0.0295360
  C        0.3337570     0.9396730    -0.0094060
  C       -1.0221650     1.4237120     0.0351730
  C        2.4390620     0.6894910    -0.0699270
  C       -1.5730580    -1.0260450     0.0187980
  C        2.6353690    -1.8453210    -0.0655260
  H        3.5092610     0.8590810    -0.0866130
  H        2.3729340    -2.4304260     0.8177420
  H        2.3794720    -2.4140780    -0.9605130
  H        3.7041390    -1.6305860    -0.0592400
  H       -2.8879820     0.5691470     0.1693100
  H       -2.3258040    -2.8676930    -0.0642460
  H       -3.4596940    -1.6726380    -0.4173570
units angstrom
no_reorient  #important for SAPT in psi4, default
symmetry c1  #important for SAPT in psi4, default
}

set PROPERTIES_ORIGIN ["COM"]
properties('MP2/aug-cc-pvtz', properties = ['dipole'])
--------------------------------------------------------------------------

    Molecular point group: c1
  Charge       = 0
  Multiplicity = 1
  Basis Set: AUG-CC-PVTZ
    Blend: AUG-CC-PVTZ
  Basis Set: (AUG-CC-PVTZ AUX)
    Blend: AUG-CC-PVTZ-JKFIT

    Orbital Energies [Eh]
    ---------------------

    Doubly Occupied:

       1A    -20.522030     2A    -15.637235     3A    -15.625724
       4A    -15.617888     5A    -15.577249     6A    -15.566908
       7A    -11.409663     8A    -11.366005     9A    -11.321837
      10A    -11.311886    11A    -11.279950    12A    -11.246711
      13A     -1.389810    14A     -1.353487    15A     -1.328210
      16A     -1.224133    17A     -1.216918    18A     -1.191364
      19A     -1.024958    20A     -0.984615    21A     -0.892208
      22A     -0.885110    23A     -0.803399    24A     -0.769415
      25A     -0.740626    26A     -0.728871    27A     -0.693645
      28A     -0.669620    29A     -0.655367    30A     -0.635116
      31A     -0.622772    32A     -0.613101    33A     -0.594733
      34A     -0.567901    35A     -0.554729    36A     -0.538372
      37A     -0.499769    38A     -0.460152    39A     -0.443914
      40A     -0.432315    41A     -0.431600    42A     -0.387133
      43A     -0.295598

  @DF-RHF Final Energy:  -578.61245011343465

   => Energetics <=

    Nuclear Repulsion Energy =            691.5665971165659585
    One-Electron Energy =               -2160.1340012878831658
    Two-Electron Energy =                 889.9549540578826736
    Total Energy =                       -578.6124501134346474
  Basis Set: (AUG-CC-PVTZ AUX)
    Blend: AUG-CC-PVTZ-RI
    Molecular point group: c1

    Geometry (in Angstrom), charge = 0, multiplicity = 1:

       Center              X                  Y                   Z               Mass
    ------------   -----------------  -----------------  -----------------  -----------------
         O           -1.473642192130     2.574303829045     0.080691209502    15.994914619570
         N            1.905743907870    -0.644271370955    -0.056850290498    14.003074004430
         N           -1.914147192130     0.316002829045     0.048798209502    14.003074004430
         N           -0.291439492130    -1.503016670955    -0.040450290498    14.003074004430
         N            1.512775807870     1.650802829045    -0.010267790498    14.003074004430
         N           -2.633297192130    -1.907027170955     0.111370209502    14.003074004430
         C            0.553829807870    -0.427013170955    -0.029238790498    12.000000000000
         C            0.329888807870     0.949575829045    -0.009108790498    12.000000000000
         C           -1.026033192130     1.433614829045     0.035470209502    12.000000000000
         C            2.435193807870     0.699393829045    -0.069629790498    12.000000000000
         C           -1.576926192130    -1.016142170955     0.019095209502    12.000000000000
         C            2.631500807870    -1.835418170955    -0.065228790498    12.000000000000
         H            3.505392807870     0.868983829045    -0.086315790498     1.007825032230
         H            2.369065807870    -2.420523170955     0.818039209502     1.007825032230
         H            2.375603807870    -2.404175170955    -0.960215790498     1.007825032230
         H            3.700270807870    -1.620683170955    -0.058942790498     1.007825032230
         H           -2.891850192130     0.579049829045     0.169607209502     1.007825032230
         H           -2.329672192130    -2.857790170955    -0.063948790498     1.007825032230
         H           -3.463562192130    -1.662735170955    -0.417059790498     1.007825032230

  Basis Set: AUG-CC-PVTZ
    Blend: AUG-CC-PVTZ
  Basis Set: (AUG-CC-PVTZ AUX)
    Blend: AUG-CC-PVTZ-JKFIT
	 Reference Energy          =    -578.6124501134346474 [Eh]
	 Singles Energy            =      -0.0000000000000000 [Eh]
	 Same-Spin Energy          =      -0.6173284421818910 [Eh]
	 Opposite-Spin Energy      =      -1.8234345406954326 [Eh]
	 Correlation Energy        =      -2.4407629828773239 [Eh]
	 Total Energy              =    -581.0532130963119926 [Eh]

	 ================> DF-SCS-MP2 Energies <==================
	-----------------------------------------------------------
	 SCS Same-Spin Scale       =       0.3333333333333333 [-]
	 SCS Opposite-Spin Scale   =       1.2000000000000000 [-]
	 SCS Same-Spin Energy      =      -0.2057761473939637 [Eh]
	 SCS Opposite-Spin Energy  =      -2.1881214488345191 [Eh]
	 SCS Correlation Energy    =      -2.3938975962284825 [Eh]
	 SCS Total Energy          =    -581.0063477096631459 [Eh]
	-----------------------------------------------------------

  Dipole Moment: [D]
     X:    -0.3908      Y:    -6.5690      Z:    -0.9173     Total:     6.6442

*** Psi4 exiting successfully. Buy a developer a beer!
