                               Psi4 1.3.2 release

  ==> Input File <==

--------------------------------------------------------------------------
#psi4
#
memory 32 gb

molecule  {
0 1
  O       -1.4697740     2.5644010     0.0803940
  N        1.8533743    -0.5541747    -0.0518156
  N       -1.9102790     0.3061000     0.0485010
  N       -0.3427170    -1.4672350    -0.0387560
  N        1.4681561     1.5912262    -0.0085009
  N       -2.6294290    -1.9169300     0.1110730
  C        0.5576980    -0.4369160    -0.0295360
  C        0.3337570     0.9396730    -0.0094060
  C       -1.0221650     1.4237120     0.0351730
  C        2.4390620     0.6894910    -0.0699270
  C       -1.5730580    -1.0260450     0.0187980
  C        2.6353690    -1.8453210    -0.0655260
  H        3.5092610     0.8590810    -0.0866130
  H        2.3729340    -2.4304260     0.8177420
  H        2.3794720    -2.4140780    -0.9605130
  H        3.7041390    -1.6305860    -0.0592400
  H       -2.8879820     0.5691470     0.1693100
  H       -2.3258040    -2.8676930    -0.0642460
  H       -3.4596940    -1.6726380    -0.4173570
units angstrom
no_reorient  #important for SAPT in psi4, default
symmetry c1  #important for SAPT in psi4, default
}

set PROPERTIES_ORIGIN ["COM"]
properties('MP2/aug-cc-pvtz', properties = ['dipole'])
--------------------------------------------------------------------------

    Molecular point group: c1
  Charge       = 0
  Multiplicity = 1
  Basis Set: AUG-CC-PVTZ
    Blend: AUG-CC-PVTZ
  Basis Set: (AUG-CC-PVTZ AUX)
    Blend: AUG-CC-PVTZ-JKFIT

    Orbital Energies [Eh]
    ---------------------

    Doubly Occupied:

       1A    -20.520264     2A    -15.633301     3A    -15.626646
       4A    -15.608899     5A    -15.566825     6A    -15.551755
       7A    -11.393423     8A    -11.362081     9A    -11.306888
      10A    -11.298635    11A    -11.294568    12A    -11.237225
      13A     -1.395344    14A     -1.370953    15A     -1.334243
      16A     -1.219718    17A     -1.216861    18A     -1.189096
      19A     -1.030556    20A     -0.986844    21A     -0.904691
      22A     -0.879808    23A     -0.808813    24A     -0.768799
      25A     -0.746313    26A     -0.729055    27A     -0.691266
      28A     -0.673876    29A     -0.643422    30A     -0.639334
      31A     -0.623523    32A     -0.609183    33A     -0.601565
      34A     -0.588558    35A     -0.568959    36A     -0.542194
      37A     -0.488009    38A     -0.457993    39A     -0.439102
      40A     -0.427980    41A     -0.420253    42A     -0.397395
      43A     -0.292852

  @DF-RHF Final Energy:  -578.62221379817424

   => Energetics <=

    Nuclear Repulsion Energy =            696.9518375222858140
    One-Electron Energy =               -2170.9739663901277709
    Two-Electron Energy =                 895.3999150696677134
    Total Energy =                       -578.6222137981742435
  Basis Set: (AUG-CC-PVTZ AUX)
    Blend: AUG-CC-PVTZ-RI
    Molecular point group: c1

    Geometry (in Angstrom), charge = 0, multiplicity = 1:

       Center              X                  Y                   Z               Mass
    ------------   -----------------  -----------------  -----------------  -----------------
         O           -1.460079715327     2.566158931895     0.079894833471    15.994914619570
         N            1.863068584673    -0.552416768105    -0.052314766529    14.003074004430
         N           -1.900584715327     0.307857931895     0.048001833471    14.003074004430
         N           -0.333022715327    -1.465477068105    -0.039255166529    14.003074004430
         N            1.477850384673     1.592984131895    -0.009000066529    14.003074004430
         N           -2.619734715327    -1.915172068105     0.110573833471    14.003074004430
         C            0.567392284673    -0.435158068105    -0.030035166529    12.000000000000
         C            0.343451284673     0.941430931895    -0.009905166529    12.000000000000
         C           -1.012470715327     1.425469931895     0.034673833471    12.000000000000
         C            2.448756284673     0.691248931895    -0.070426166529    12.000000000000
         C           -1.563363715327    -1.024287068105     0.018298833471    12.000000000000
         C            2.645063284673    -1.843563068105    -0.066025166529    12.000000000000
         H            3.518955284673     0.860838931895    -0.087112166529     1.007825032230
         H            2.382628284673    -2.428668068105     0.817242833471     1.007825032230
         H            2.389166284673    -2.412320068105    -0.961012166529     1.007825032230
         H            3.713833284673    -1.628828068105    -0.059739166529     1.007825032230
         H           -2.878287715327     0.570904931895     0.168810833471     1.007825032230
         H           -2.316109715327    -2.865935068105    -0.064745166529     1.007825032230
         H           -3.449999715327    -1.670880068105    -0.417856166529     1.007825032230

  Basis Set: AUG-CC-PVTZ
    Blend: AUG-CC-PVTZ
  Basis Set: (AUG-CC-PVTZ AUX)
    Blend: AUG-CC-PVTZ-JKFIT
	 Reference Energy          =    -578.6222137981742435 [Eh]
	 Singles Energy            =      -0.0000000000000000 [Eh]
	 Same-Spin Energy          =      -0.6164544880202905 [Eh]
	 Opposite-Spin Energy      =      -1.8185672364142822 [Eh]
	 Correlation Energy        =      -2.4350217244345727 [Eh]
	 Total Energy              =    -581.0572355226088348 [Eh]

	 ================> DF-SCS-MP2 Energies <==================
	-----------------------------------------------------------
	 SCS Same-Spin Scale       =       0.3333333333333333 [-]
	 SCS Opposite-Spin Scale   =       1.2000000000000000 [-]
	 SCS Same-Spin Energy      =      -0.2054848293400968 [Eh]
	 SCS Opposite-Spin Energy  =      -2.1822806836971385 [Eh]
	 SCS Correlation Energy    =      -2.3877655130372353 [Eh]
	 SCS Total Energy          =    -581.0099793112115094 [Eh]
	-----------------------------------------------------------

  Dipole Moment: [D]
     X:     0.2647      Y:    -6.7877      Z:    -0.9470     Total:     6.8586

*** Psi4 exiting successfully. Buy a developer a beer!
