                               Psi4 1.3.2 release

  ==> Input File <==

--------------------------------------------------------------------------
#psi4
#
memory 32 gb

molecule  {
0 1
  O       -1.4697740     2.5644010     0.0803940
  N        1.9191590    -0.5831280    -0.0556370
  N       -1.9102790     0.3061000     0.0485010
  N       -0.3427170    -1.4672350    -0.0387560
  N        1.5166440     1.6409000    -0.0105650
  N       -2.6294290    -1.9169300     0.1110730
  C        0.5576980    -0.4369160    -0.0295360
  C        0.3461616     0.9191568    -0.0105056
  C       -1.0221650     1.4237120     0.0351730
  C        2.4222942     0.6735294    -0.0701455
  C       -1.5730580    -1.0260450     0.0187980
  C        2.6353690    -1.8453210    -0.0655260
  H        3.5092610     0.8590810    -0.0866130
  H        2.3729340    -2.4304260     0.8177420
  H        2.3794720    -2.4140780    -0.9605130
  H        3.7041390    -1.6305860    -0.0592400
  H       -2.8879820     0.5691470     0.1693100
  H       -2.3258040    -2.8676930    -0.0642460
  H       -3.4596940    -1.6726380    -0.4173570
units angstrom
no_reorient  #important for SAPT in psi4, default
symmetry c1  #important for SAPT in psi4, default
}

set PROPERTIES_ORIGIN ["COM"]
properties('MP2/aug-cc-pvtz', properties = ['dipole'])
--------------------------------------------------------------------------

    Molecular point group: c1
  Charge       = 0
  Multiplicity = 1
  Basis Set: AUG-CC-PVTZ
    Blend: AUG-CC-PVTZ
  Basis Set: (AUG-CC-PVTZ AUX)
    Blend: AUG-CC-PVTZ-JKFIT

    Orbital Energies [Eh]
    ---------------------

    Doubly Occupied:

       1A    -20.523892     2A    -15.632641     3A    -15.629024
       4A    -15.609911     5A    -15.569900     6A    -15.557237
       7A    -11.394888     8A    -11.366591     9A    -11.314193
      10A    -11.306812    11A    -11.290084    12A    -11.246458
      13A     -1.392192    14A     -1.365650    15A     -1.335034
      16A     -1.218822    17A     -1.215832    18A     -1.192203
      19A     -1.030037    20A     -0.987940    21A     -0.901104
      22A     -0.881635    23A     -0.806798    24A     -0.769638
      25A     -0.741073    26A     -0.726803    27A     -0.691851
      28A     -0.673358    29A     -0.652176    30A     -0.640519
      31A     -0.626394    32A     -0.612960    33A     -0.583786
      34A     -0.578638    35A     -0.562789    36A     -0.542018
      37A     -0.494397    38A     -0.458892    39A     -0.441491
      40A     -0.431413    41A     -0.429234    42A     -0.393918
      43A     -0.299418

  @DF-RHF Final Energy:  -578.62974303795556

   => Energetics <=

    Nuclear Repulsion Energy =            694.2272091839979566
    One-Electron Energy =               -2165.4746184281880232
    Two-Electron Energy =                 892.6176662062345031
    Total Energy =                       -578.6297430379555635
  Basis Set: (AUG-CC-PVTZ AUX)
    Blend: AUG-CC-PVTZ-RI
    Molecular point group: c1

    Geometry (in Angstrom), charge = 0, multiplicity = 1:

       Center              X                  Y                   Z               Mass
    ------------   -----------------  -----------------  -----------------  -----------------
         O           -1.469456680238     2.567053021202     0.080489946042    15.994914619570
         N            1.919476319762    -0.580475978798    -0.055541053958    14.003074004430
         N           -1.909961680238     0.308752021202     0.048596946042    14.003074004430
         N           -0.342399680238    -1.464582978798    -0.038660053958    14.003074004430
         N            1.516961319762     1.643552021202    -0.010469053958    14.003074004430
         N           -2.629111680238    -1.914277978798     0.111168946042    14.003074004430
         C            0.558015319762    -0.434263978798    -0.029440053958    12.000000000000
         C            0.346478919762     0.921808821202    -0.010409653958    12.000000000000
         C           -1.021847680238     1.426364021202     0.035268946042    12.000000000000
         C            2.422611519762     0.676181421202    -0.070049553958    12.000000000000
         C           -1.572740680238    -1.023392978798     0.018893946042    12.000000000000
         C            2.635686319762    -1.842668978798    -0.065430053958    12.000000000000
         H            3.509578319762     0.861733021202    -0.086517053958     1.007825032230
         H            2.373251319762    -2.427773978798     0.817837946042     1.007825032230
         H            2.379789319762    -2.411425978798    -0.960417053958     1.007825032230
         H            3.704456319762    -1.627933978798    -0.059144053958     1.007825032230
         H           -2.887664680238     0.571799021202     0.169405946042     1.007825032230
         H           -2.325486680238    -2.865040978798    -0.064150053958     1.007825032230
         H           -3.459376680238    -1.669985978798    -0.417261053958     1.007825032230

  Basis Set: AUG-CC-PVTZ
    Blend: AUG-CC-PVTZ
  Basis Set: (AUG-CC-PVTZ AUX)
    Blend: AUG-CC-PVTZ-JKFIT
	 Reference Energy          =    -578.6297430379555635 [Eh]
	 Singles Energy            =      -0.0000000000000000 [Eh]
	 Same-Spin Energy          =      -0.6158770876407389 [Eh]
	 Opposite-Spin Energy      =      -1.8195038871329010 [Eh]
	 Correlation Energy        =      -2.4353809747736399 [Eh]
	 Total Energy              =    -581.0651240127292567 [Eh]

	 ================> DF-SCS-MP2 Energies <==================
	-----------------------------------------------------------
	 SCS Same-Spin Scale       =       0.3333333333333333 [-]
	 SCS Opposite-Spin Scale   =       1.2000000000000000 [-]
	 SCS Same-Spin Energy      =      -0.2052923625469130 [Eh]
	 SCS Opposite-Spin Energy  =      -2.1834046645594811 [Eh]
	 SCS Correlation Energy    =      -2.3886970271063941 [Eh]
	 SCS Total Energy          =    -581.0184400650620091 [Eh]
	-----------------------------------------------------------

  Dipole Moment: [D]
     X:    -0.0592      Y:    -6.7807      Z:    -0.9356     Total:     6.8452

*** Psi4 exiting successfully. Buy a developer a beer!
