                               Psi4 1.3.2 release

  ==> Input File <==

--------------------------------------------------------------------------
#psi4
#
memory 32 gb

molecule  {
0 1
  O       -1.4697740     2.5644010     0.0803940
  N        1.9191590    -0.5831280    -0.0556370
  N       -1.9102790     0.3061000     0.0485010
  N       -0.3427170    -1.4672350    -0.0387560
  N        1.5166440     1.6409000    -0.0105650
  N       -2.6294290    -1.9169300     0.1110730
  C        0.5576980    -0.4369160    -0.0295360
  C        0.3337570     0.9396730    -0.0094060
  C       -1.0221650     1.4237120     0.0351730
  C        2.4390620     0.6894910    -0.0699270
  C       -1.5730580    -1.0260450     0.0187980
  C        2.6353690    -1.8453210    -0.0655260
  H        3.3117492     0.8277821    -0.0835335
  H        2.3729340    -2.4304260     0.8177420
  H        2.3794720    -2.4140780    -0.9605130
  H        3.7041390    -1.6305860    -0.0592400
  H       -2.8879820     0.5691470     0.1693100
  H       -2.3258040    -2.8676930    -0.0642460
  H       -3.4596940    -1.6726380    -0.4173570
units angstrom
no_reorient  #important for SAPT in psi4, default
symmetry c1  #important for SAPT in psi4, default
}

set PROPERTIES_ORIGIN ["COM"]
properties('MP2/aug-cc-pvtz', properties = ['dipole'])
--------------------------------------------------------------------------

    Molecular point group: c1
  Charge       = 0
  Multiplicity = 1
  Basis Set: AUG-CC-PVTZ
    Blend: AUG-CC-PVTZ
  Basis Set: (AUG-CC-PVTZ AUX)
    Blend: AUG-CC-PVTZ-JKFIT

    Orbital Energies [Eh]
    ---------------------

    Doubly Occupied:

       1A    -20.520863     2A    -15.631732     3A    -15.629161
       4A    -15.610656     5A    -15.570645     6A    -15.559241
       7A    -11.395980     8A    -11.364080     9A    -11.318614
      10A    -11.289695    11A    -11.284797    12A    -11.246240
      13A     -1.390531    14A     -1.360455    15A     -1.334007
      16A     -1.219036    17A     -1.216254    18A     -1.190061
      19A     -1.036454    20A     -0.987245    21A     -0.916947
      22A     -0.883472    23A     -0.824670    24A     -0.766565
      25A     -0.742123    26A     -0.740750    27A     -0.695189
      28A     -0.671713    29A     -0.654043    30A     -0.647293
      31A     -0.626900    32A     -0.610313    33A     -0.608325
      34A     -0.578740    35A     -0.560855    36A     -0.541505
      37A     -0.493667    38A     -0.459148    39A     -0.440303
      40A     -0.429188    41A     -0.428749    42A     -0.391987
      43A     -0.298506

  @DF-RHF Final Energy:  -578.59505875886191

   => Energetics <=

    Nuclear Repulsion Energy =            694.7414106511137106
    One-Electron Energy =               -2166.3395423705496796
    Two-Electron Energy =                 893.0030729605740589
    Total Energy =                       -578.5950587588619101
  Basis Set: (AUG-CC-PVTZ AUX)
    Blend: AUG-CC-PVTZ-RI
    Molecular point group: c1

    Geometry (in Angstrom), charge = 0, multiplicity = 1:

       Center              X                  Y                   Z               Mass
    ------------   -----------------  -----------------  -----------------  -----------------
         O           -1.468567946206     2.564592235222     0.080375319741    15.994914619570
         N            1.920365053794    -0.582936764778    -0.055655680259    14.003074004430
         N           -1.909072946206     0.306291235222     0.048482319741    14.003074004430
         N           -0.341510946206    -1.467043764778    -0.038774680259    14.003074004430
         N            1.517850053794     1.641091235222    -0.010583680259    14.003074004430
         N           -2.628222946206    -1.916738764778     0.111054319741    14.003074004430
         C            0.558904053794    -0.436724764778    -0.029554680259    12.000000000000
         C            0.334963053794     0.939864235222    -0.009424680259    12.000000000000
         C           -1.020958946206     1.423903235222     0.035154319741    12.000000000000
         C            2.440268053794     0.689682235222    -0.069945680259    12.000000000000
         C           -1.571851946206    -1.025853764778     0.018779319741    12.000000000000
         C            2.636575053794    -1.845129764778    -0.065544680259    12.000000000000
         H            3.312955253794     0.827973335222    -0.083552180259     1.007825032230
         H            2.374140053794    -2.430234764778     0.817723319741     1.007825032230
         H            2.380678053794    -2.413886764778    -0.960531680259     1.007825032230
         H            3.705345053794    -1.630394764778    -0.059258680259     1.007825032230
         H           -2.886775946206     0.569338235222     0.169291319741     1.007825032230
         H           -2.324597946206    -2.867501764778    -0.064264680259     1.007825032230
         H           -3.458487946206    -1.672446764778    -0.417375680259     1.007825032230

  Basis Set: AUG-CC-PVTZ
    Blend: AUG-CC-PVTZ
  Basis Set: (AUG-CC-PVTZ AUX)
    Blend: AUG-CC-PVTZ-JKFIT
	 Reference Energy          =    -578.5950587588619101 [Eh]
	 Singles Energy            =      -0.0000000000000000 [Eh]
	 Same-Spin Energy          =      -0.6157691086288635 [Eh]
	 Opposite-Spin Energy      =      -1.8192974472172563 [Eh]
	 Correlation Energy        =      -2.4350665558461198 [Eh]
	 Total Energy              =    -581.0301253147080160 [Eh]

	 ================> DF-SCS-MP2 Energies <==================
	-----------------------------------------------------------
	 SCS Same-Spin Scale       =       0.3333333333333333 [-]
	 SCS Opposite-Spin Scale   =       1.2000000000000000 [-]
	 SCS Same-Spin Energy      =      -0.2052563695429545 [Eh]
	 SCS Opposite-Spin Energy  =      -2.1831569366607075 [Eh]
	 SCS Correlation Energy    =      -2.3884133062036619 [Eh]
	 SCS Total Energy          =    -580.9834720650655981 [Eh]
	-----------------------------------------------------------

  Dipole Moment: [D]
     X:    -0.0361      Y:    -6.8204      Z:    -0.9379     Total:     6.8846

*** Psi4 exiting successfully. Buy a developer a beer!
