                               Psi4 1.3.2 release

  ==> Input File <==

--------------------------------------------------------------------------
#psi4
#
memory 32 gb

molecule  {
0 1
  O       -1.4697740     2.5644010     0.0803940
  N        1.9191590    -0.5831280    -0.0556370
  N       -1.9102790     0.3061000     0.0485010
  N       -0.3427170    -1.4672350    -0.0387560
  N        1.5166440     1.6409000    -0.0105650
  N       -2.6294290    -1.9169300     0.1110730
  C        0.5576980    -0.4369160    -0.0295360
  C        0.3337570     0.9396730    -0.0094060
  C       -1.1465874     1.2671375     0.0370402
  C        2.4390620     0.6894910    -0.0699270
  C       -1.5730580    -1.0260450     0.0187980
  C        2.6353690    -1.8453210    -0.0655260
  H        3.5092610     0.8590810    -0.0866130
  H        2.3729340    -2.4304260     0.8177420
  H        2.3794720    -2.4140780    -0.9605130
  H        3.7041390    -1.6305860    -0.0592400
  H       -2.8879820     0.5691470     0.1693100
  H       -2.3258040    -2.8676930    -0.0642460
  H       -3.4596940    -1.6726380    -0.4173570
units angstrom
no_reorient  #important for SAPT in psi4, default
symmetry c1  #important for SAPT in psi4, default
}

set PROPERTIES_ORIGIN ["COM"]
properties('MP2/aug-cc-pvtz', properties = ['dipole'])
--------------------------------------------------------------------------

    Molecular point group: c1
  Charge       = 0
  Multiplicity = 1
  Basis Set: AUG-CC-PVTZ
    Blend: AUG-CC-PVTZ
  Basis Set: (AUG-CC-PVTZ AUX)
    Blend: AUG-CC-PVTZ-JKFIT

    Orbital Energies [Eh]
    ---------------------

    Doubly Occupied:

       1A    -20.491414     2A    -15.656623     3A    -15.631571
       4A    -15.622703     5A    -15.588229     6A    -15.560741
       7A    -11.408896     8A    -11.357652     9A    -11.310663
      10A    -11.308250    11A    -11.289586    12A    -11.256510
      13A     -1.418243    14A     -1.357453    15A     -1.305331
      16A     -1.235933    17A     -1.226332    18A     -1.192824
      19A     -1.028318    20A     -0.982708    21A     -0.937743
      22A     -0.901663    23A     -0.824053    24A     -0.777487
      25A     -0.752013    26A     -0.733685    27A     -0.706593
      28A     -0.681730    29A     -0.654112    30A     -0.645813
      31A     -0.638425    32A     -0.603228    33A     -0.581062
      34A     -0.561909    35A     -0.552106    36A     -0.544267
      37A     -0.499593    38A     -0.463551    39A     -0.434446
      40A     -0.411712    41A     -0.398758    42A     -0.390800
      43A     -0.297206

  @DF-RHF Final Energy:  -578.57341722654280

   => Energetics <=

    Nuclear Repulsion Energy =            694.5019831268398320
    One-Electron Energy =               -2165.7069329793330326
    Two-Electron Energy =                 892.6315326259503991
    Total Energy =                       -578.5734172265428015
  Basis Set: (AUG-CC-PVTZ AUX)
    Blend: AUG-CC-PVTZ-RI
    Molecular point group: c1

    Geometry (in Angstrom), charge = 0, multiplicity = 1:

       Center              X                  Y                   Z               Mass
    ------------   -----------------  -----------------  -----------------  -----------------
         O           -1.460728543580     2.575783884058     0.080258379167    15.994914619570
         N            1.928204456420    -0.571745115942    -0.055772620833    14.003074004430
         N           -1.901233543580     0.317482884058     0.048365379167    14.003074004430
         N           -0.333671543580    -1.455852115942    -0.038891620833    14.003074004430
         N            1.525689456420     1.652282884058    -0.010700620833    14.003074004430
         N           -2.620383543580    -1.905547115942     0.110937379167    14.003074004430
         C            0.566743456420    -0.425533115942    -0.029671620833    12.000000000000
         C            0.342802456420     0.951055884058    -0.009541620833    12.000000000000
         C           -1.137541943580     1.278520384058     0.036904579167    12.000000000000
         C            2.448107456420     0.700873884058    -0.070062620833    12.000000000000
         C           -1.564012543580    -1.014662115942     0.018662379167    12.000000000000
         C            2.644414456420    -1.833938115942    -0.065661620833    12.000000000000
         H            3.518306456420     0.870463884058    -0.086748620833     1.007825032230
         H            2.381979456420    -2.419043115942     0.817606379167     1.007825032230
         H            2.388517456420    -2.402695115942    -0.960648620833     1.007825032230
         H            3.713184456420    -1.619203115942    -0.059375620833     1.007825032230
         H           -2.878936543580     0.580529884058     0.169174379167     1.007825032230
         H           -2.316758543580    -2.856310115942    -0.064381620833     1.007825032230
         H           -3.450648543580    -1.661255115942    -0.417492620833     1.007825032230

  Basis Set: AUG-CC-PVTZ
    Blend: AUG-CC-PVTZ
  Basis Set: (AUG-CC-PVTZ AUX)
    Blend: AUG-CC-PVTZ-JKFIT
	 Reference Energy          =    -578.5734172265428015 [Eh]
	 Singles Energy            =      -0.0000000000000000 [Eh]
	 Same-Spin Energy          =      -0.6188811755989461 [Eh]
	 Opposite-Spin Energy      =      -1.8246972310109915 [Eh]
	 Correlation Energy        =      -2.4435784066099373 [Eh]
	 Total Energy              =    -581.0169956331527601 [Eh]

	 ================> DF-SCS-MP2 Energies <==================
	-----------------------------------------------------------
	 SCS Same-Spin Scale       =       0.3333333333333333 [-]
	 SCS Opposite-Spin Scale   =       1.2000000000000000 [-]
	 SCS Same-Spin Energy      =      -0.2062937251996487 [Eh]
	 SCS Opposite-Spin Energy  =      -2.1896366772131897 [Eh]
	 SCS Correlation Energy    =      -2.3959304024128385 [Eh]
	 SCS Total Energy          =    -580.9693476289556884 [Eh]
	-----------------------------------------------------------

  Dipole Moment: [D]
     X:    -0.2906      Y:    -8.1230      Z:    -0.9616     Total:     8.1849

*** Psi4 exiting successfully. Buy a developer a beer!
