                               Psi4 1.3.2 release

  ==> Input File <==

--------------------------------------------------------------------------
#psi4
#
memory 32 gb

molecule  {
0 1
  O       -1.4697740     2.5644010     0.0803940
  N        1.9191590    -0.5831280    -0.0556370
  N       -1.9102790     0.3061000     0.0485010
  N       -0.3427170    -1.4672350    -0.0387560
  N        1.5166440     1.6409000    -0.0105650
  N       -2.6294290    -1.9169300     0.1110730
  C        0.5576980    -0.4369160    -0.0295360
  C        0.3337570     0.9396730    -0.0094060
  C       -1.0221650     1.4237120     0.0351730
  C        2.4167761     0.6983738    -0.0695205
  C       -1.5730580    -1.0260450     0.0187980
  C        2.6132365    -1.8576293    -0.0650537
  H        3.5092610     0.8590810    -0.0866130
  H        2.3729340    -2.4304260     0.8177420
  H        2.3794720    -2.4140780    -0.9605130
  H        3.7041390    -1.6305860    -0.0592400
  H       -2.8879820     0.5691470     0.1693100
  H       -2.3258040    -2.8676930    -0.0642460
  H       -3.4596940    -1.6726380    -0.4173570
units angstrom
no_reorient  #important for SAPT in psi4, default
symmetry c1  #important for SAPT in psi4, default
}

set PROPERTIES_ORIGIN ["COM"]
properties('MP2/aug-cc-pvtz', properties = ['dipole'])
--------------------------------------------------------------------------

    Molecular point group: c1
  Charge       = 0
  Multiplicity = 1
  Basis Set: AUG-CC-PVTZ
    Blend: AUG-CC-PVTZ
  Basis Set: (AUG-CC-PVTZ AUX)
    Blend: AUG-CC-PVTZ-JKFIT

    Orbital Energies [Eh]
    ---------------------

    Doubly Occupied:

       1A    -20.520229     2A    -15.631286     3A    -15.629137
       4A    -15.610821     5A    -15.570845     6A    -15.558359
       7A    -11.396247     8A    -11.363679     9A    -11.319052
      10A    -11.307302    11A    -11.289818    12A    -11.246444
      13A     -1.390910    14A     -1.362148    15A     -1.334653
      16A     -1.219156    17A     -1.218863    18A     -1.193449
      19A     -1.029999    20A     -0.986848    21A     -0.900100
      22A     -0.882863    23A     -0.805964    24A     -0.767130
      25A     -0.742319    26A     -0.727997    27A     -0.691978
      28A     -0.673463    29A     -0.650479    30A     -0.640324
      31A     -0.627191    32A     -0.610895    33A     -0.591225
      34A     -0.571078    35A     -0.564626    36A     -0.542091
      37A     -0.494758    38A     -0.460156    39A     -0.440205
      40A     -0.429856    41A     -0.429338    42A     -0.394516
      43A     -0.299888

  @DF-RHF Final Energy:  -578.63066641972966

   => Energetics <=

    Nuclear Repulsion Energy =            694.0502443346121026
    One-Electron Energy =               -2165.1264526551767631
    Two-Electron Energy =                 892.4455419008348827
    Total Energy =                       -578.6306664197296641
  Basis Set: (AUG-CC-PVTZ AUX)
    Blend: AUG-CC-PVTZ-RI
    Molecular point group: c1

    Geometry (in Angstrom), charge = 0, multiplicity = 1:

       Center              X                  Y                   Z               Mass
    ------------   -----------------  -----------------  -----------------  -----------------
         O           -1.466544722975     2.564650165017     0.080330234471    15.994914619570
         N            1.922388277025    -0.582878834983    -0.055700765529    14.003074004430
         N           -1.907049722975     0.306349165017     0.048437234471    14.003074004430
         N           -0.339487722975    -1.466985834983    -0.038819765529    14.003074004430
         N            1.519873277025     1.641149165017    -0.010628765529    14.003074004430
         N           -2.626199722975    -1.916680834983     0.111009234471    14.003074004430
         C            0.560927277025    -0.436666834983    -0.029599765529    12.000000000000
         C            0.336986277025     0.939922165017    -0.009469765529    12.000000000000
         C           -1.018935722975     1.423961165017     0.035109234471    12.000000000000
         C            2.420005377025     0.698622965017    -0.069584265529    12.000000000000
         C           -1.569828722975    -1.025795834983     0.018734234471    12.000000000000
         C            2.616465777025    -1.857380134983    -0.065117465529    12.000000000000
         H            3.512490277025     0.859330165017    -0.086676765529     1.007825032230
         H            2.376163277025    -2.430176834983     0.817678234471     1.007825032230
         H            2.382701277025    -2.413828834983    -0.960576765529     1.007825032230
         H            3.707368277025    -1.630336834983    -0.059303765529     1.007825032230
         H           -2.884752722975     0.569396165017     0.169246234471     1.007825032230
         H           -2.322574722975    -2.867443834983    -0.064309765529     1.007825032230
         H           -3.456464722975    -1.672388834983    -0.417420765529     1.007825032230

  Basis Set: AUG-CC-PVTZ
    Blend: AUG-CC-PVTZ
  Basis Set: (AUG-CC-PVTZ AUX)
    Blend: AUG-CC-PVTZ-JKFIT
	 Reference Energy          =    -578.6306664197296641 [Eh]
	 Singles Energy            =      -0.0000000000000000 [Eh]
	 Same-Spin Energy          =      -0.6156029271087988 [Eh]
	 Opposite-Spin Energy      =      -1.8189014790027009 [Eh]
	 Correlation Energy        =      -2.4345044061114995 [Eh]
	 Total Energy              =    -581.0651708258411645 [Eh]

	 ================> DF-SCS-MP2 Energies <==================
	-----------------------------------------------------------
	 SCS Same-Spin Scale       =       0.3333333333333333 [-]
	 SCS Opposite-Spin Scale   =       1.2000000000000000 [-]
	 SCS Same-Spin Energy      =      -0.2052009757029329 [Eh]
	 SCS Opposite-Spin Energy  =      -2.1826817748032412 [Eh]
	 SCS Correlation Energy    =      -2.3878827505061739 [Eh]
	 SCS Total Energy          =    -581.0185491702358149 [Eh]
	-----------------------------------------------------------

  Dipole Moment: [D]
     X:    -0.0338      Y:    -6.7779      Z:    -0.9371     Total:     6.8425

*** Psi4 exiting successfully. Buy a developer a beer!
