                               Psi4 1.4a3.dev225

  ==> Input File <==

--------------------------------------------------------------------------
#psi4
#
memory 32 gb

molecule  {
0 1
  O        1.6617960     2.5152110     0.0229320
  N       -1.9329240    -0.4005880    -0.0147920
  N        1.9545050     0.2323110     0.0113410
  N        0.2669280    -1.4301930    -0.0208730
  N       -1.3834780     1.7915450    -0.0193170
  N        2.5221760    -2.0364130     0.0734370
  C       -0.5634760    -0.3442740    -0.0026930
  C       -0.2488450     1.0144850    -0.0147620
  C        1.1380320     1.4076430     0.0031510
  C       -2.3534590     0.9170074    -0.0164558
  C        1.5275980    -1.0721200    -0.0057920
  C       -2.7322540    -1.6127190     0.0339130
  H       -3.4247340     1.1445090    -0.0228960
  H       -2.2735910    -2.3629350    -0.6109560
  H       -2.7853950    -1.9995380     1.0543320
  H       -3.7366260    -1.3828770    -0.3245450
  H        2.9468270     0.4301980     0.1174830
  H        2.1372730    -2.9631930    -0.0801050
  H        3.3349710    -1.8642740    -0.5097710
units angstrom
no_reorient  #important for SAPT in psi4, default
symmetry c1  #important for SAPT in psi4, default
}

set PROPERTIES_ORIGIN ["COM"]
properties('MP2/aug-cc-pvtz', properties = ['dipole'])
--------------------------------------------------------------------------

    Molecular point group: c1
  Charge       = 0
  Multiplicity = 1
  Basis Set: AUG-CC-PVTZ
    Blend: AUG-CC-PVTZ
  Basis Set: (AUG-CC-PVTZ AUX)
    Blend: AUG-CC-PVTZ-JKFIT

    Orbital Energies [Eh]
    ---------------------

    Doubly Occupied:

       1A    -20.520858     2A    -15.630817     3A    -15.629329
       4A    -15.610970     5A    -15.571109     6A    -15.559322
       7A    -11.396446     8A    -11.364539     9A    -11.320269
      10A    -11.306831    11A    -11.288832    12A    -11.246839
      13A     -1.390772    14A     -1.360666    15A     -1.334098
      16A     -1.218879    17A     -1.218260    18A     -1.192253
      19A     -1.030223    20A     -0.985203    21A     -0.899144
      22A     -0.882708    23A     -0.806351    24A     -0.766615
      25A     -0.742106    26A     -0.727799    27A     -0.691082
      28A     -0.670236    29A     -0.648798    30A     -0.640942
      31A     -0.625107    32A     -0.610605    33A     -0.594907
      34A     -0.577495    35A     -0.562208    36A     -0.541378
      37A     -0.493509    38A     -0.461198    39A     -0.440199
      40A     -0.430439    41A     -0.429354    42A     -0.392983
      43A     -0.300274

  @DF-RHF Final Energy:  -578.63159138997696

   => Energetics <=

    Nuclear Repulsion Energy =            693.4035462009974253
    One-Electron Energy =               -2163.8463659471872234
    Two-Electron Energy =                 891.8112283562128368
    Total Energy =                       -578.6315913899769612
  Basis Set: (AUG-CC-PVTZ AUX)
    Blend: AUG-CC-PVTZ-RI
    Molecular point group: c1

    Geometry (in Angstrom), charge = 0, multiplicity = 1:

       Center              X                  Y                   Z               Mass
    ------------   -----------------  -----------------  -----------------  -----------------
         O            1.637892078240     2.460263362550     0.020672517712    15.994914619570
         N           -1.956827921760    -0.455535637450    -0.017051482288    14.003074004430
         N            1.930601078240     0.177363362550     0.009081517712    14.003074004430
         N            0.243024078240    -1.485140637450    -0.023132482288    14.003074004430
         N           -1.407381921760     1.736597362550    -0.021576482288    14.003074004430
         N            2.498272078240    -2.091360637450     0.071177517712    14.003074004430
         C           -0.587379921760    -0.399221637450    -0.004952482288    12.000000000000
         C           -0.272748921760     0.959537362550    -0.017021482288    12.000000000000
         C            1.114128078240     1.352695362550     0.000891517712    12.000000000000
         C           -2.377362921760     0.862059762550    -0.018715282288    12.000000000000
         C            1.503694078240    -1.127067637450    -0.008051482288    12.000000000000
         C           -2.756157921760    -1.667666637450     0.031653517712    12.000000000000
         H           -3.448637921760     1.089561362550    -0.025155482288     1.007825032230
         H           -2.297494921760    -2.417882637450    -0.613215482288     1.007825032230
         H           -2.809298921760    -2.054485637450     1.052072517712     1.007825032230
         H           -3.760529921760    -1.437824637450    -0.326804482288     1.007825032230
         H            2.922923078240     0.375250362550     0.115223517712     1.007825032230
         H            2.113369078240    -3.018140637450    -0.082364482288     1.007825032230
         H            3.311067078240    -1.919221637450    -0.512030482288     1.007825032230

  Basis Set: AUG-CC-PVTZ
    Blend: AUG-CC-PVTZ
  Basis Set: (AUG-CC-PVTZ AUX)
    Blend: AUG-CC-PVTZ-JKFIT
	 Reference Energy          =    -578.6315913899769612 [Eh]
	 Singles Energy            =      -0.0000000000000000 [Eh]
	 Same-Spin Energy          =      -0.6155511791477752 [Eh]
	 Opposite-Spin Energy      =      -1.8188811462262628 [Eh]
	 Correlation Energy        =      -2.4344323253740381 [Eh]
	 Total Energy              =    -581.0660237153509797 [Eh]

	 ================> DF-SCS-MP2 Energies <==================
	-----------------------------------------------------------
	 SCS Same-Spin Scale       =       0.3333333333333333 [-]
	 SCS Opposite-Spin Scale   =       1.2000000000000000 [-]
	 SCS Same-Spin Energy      =      -0.2051837263825917 [Eh]
	 SCS Opposite-Spin Energy  =      -2.1826573754715155 [Eh]
	 SCS Correlation Energy    =      -2.3878411018541073 [Eh]
	 SCS Total Energy          =    -581.0194324918310258 [Eh]
	-----------------------------------------------------------

  Dipole Moment: [D]
     X:    -0.5173      Y:    -6.7128      Z:    -0.8510     Total:     6.7862

*** Psi4 exiting successfully. Buy a developer a beer!
