                               Psi4 1.4a3.dev225

  ==> Input File <==

--------------------------------------------------------------------------
#psi4
#
memory 32 gb

molecule  {
0 1
  O        1.6617960     2.5152110     0.0229320
  N       -1.9329240    -0.4005880    -0.0147920
  N        1.9545050     0.2323110     0.0113410
  N        0.2669280    -1.4301930    -0.0208730
  N       -1.3834780     1.7915450    -0.0193170
  N        2.5221760    -2.0364130     0.0734370
  C       -0.5634760    -0.3442740    -0.0026930
  C       -0.2488450     1.0144850    -0.0147620
  C        1.1380320     1.4076430     0.0031510
  C       -2.3683130     0.9036150    -0.0164120
  C        1.5275980    -1.0721200    -0.0057920
  C       -2.7322540    -1.6127190     0.0339130
  H       -3.4247340     1.1445090    -0.0228960
  H       -2.2735910    -2.3629350    -0.6109560
  H       -2.7853950    -1.9995380     1.0543320
  H       -3.7366260    -1.3828770    -0.3245450
  H        2.9468270     0.4301980     0.1174830
  H        2.1562299    -2.9175482    -0.0725429
  H        3.3349710    -1.8642740    -0.5097710
units angstrom
no_reorient  #important for SAPT in psi4, default
symmetry c1  #important for SAPT in psi4, default
}

set PROPERTIES_ORIGIN ["COM"]
properties('MP2/aug-cc-pvtz', properties = ['dipole'])
--------------------------------------------------------------------------

    Molecular point group: c1
  Charge       = 0
  Multiplicity = 1
  Basis Set: AUG-CC-PVTZ
    Blend: AUG-CC-PVTZ
  Basis Set: (AUG-CC-PVTZ AUX)
    Blend: AUG-CC-PVTZ-JKFIT

    Orbital Energies [Eh]
    ---------------------

    Doubly Occupied:

       1A    -20.521582     2A    -15.632948     3A    -15.629564
       4A    -15.606224     5A    -15.571489     6A    -15.560140
       7A    -11.396329     8A    -11.365097     9A    -11.319865
      10A    -11.307254    11A    -11.289215    12A    -11.247506
      13A     -1.391192    14A     -1.360836    15A     -1.335362
      16A     -1.224711    17A     -1.216597    18A     -1.190571
      19A     -1.030126    20A     -0.986188    21A     -0.902013
      22A     -0.884448    23A     -0.807894    24A     -0.767322
      25A     -0.742163    26A     -0.730878    27A     -0.700317
      28A     -0.671079    29A     -0.650568    30A     -0.642549
      31A     -0.625754    32A     -0.611079    33A     -0.594538
      34A     -0.578426    35A     -0.561542    36A     -0.541925
      37A     -0.493354    38A     -0.461334    39A     -0.440322
      40A     -0.429933    41A     -0.429286    42A     -0.392973
      43A     -0.298839

  @DF-RHF Final Energy:  -578.63002649581244

   => Energetics <=

    Nuclear Repulsion Energy =            693.4482991477206042
    One-Electron Energy =               -2163.8739839729028063
    Two-Electron Energy =                 891.7956583293696440
    Total Energy =                       -578.6300264958124444
  Basis Set: (AUG-CC-PVTZ AUX)
    Blend: AUG-CC-PVTZ-RI
    Molecular point group: c1

    Geometry (in Angstrom), charge = 0, multiplicity = 1:

       Center              X                  Y                   Z               Mass
    ------------   -----------------  -----------------  -----------------  -----------------
         O            1.638856199670     2.460958281439     0.020623162181    15.994914619570
         N           -1.955863800330    -0.454840718561    -0.017100837819    14.003074004430
         N            1.931565199670     0.178058281439     0.009032162181    14.003074004430
         N            0.243988199670    -1.484445718561    -0.023181837819    14.003074004430
         N           -1.406417800330     1.737292281439    -0.021625837819    14.003074004430
         N            2.499236199670    -2.090665718561     0.071128162181    14.003074004430
         C           -0.586415800330    -0.398526718561    -0.005001837819    12.000000000000
         C           -0.271784800330     0.960232281439    -0.017070837819    12.000000000000
         C            1.115092199670     1.353390281439     0.000842162181    12.000000000000
         C           -2.391252800330     0.849362281439    -0.018720837819    12.000000000000
         C            1.504658199670    -1.126372718561    -0.008100837819    12.000000000000
         C           -2.755193800330    -1.666971718561     0.031604162181    12.000000000000
         H           -3.447673800330     1.090256281439    -0.025204837819     1.007825032230
         H           -2.296530800330    -2.417187718561    -0.613264837819     1.007825032230
         H           -2.808334800330    -2.053790718561     1.052023162181     1.007825032230
         H           -3.759565800330    -1.437129718561    -0.326853837819     1.007825032230
         H            2.923887199670     0.375945281439     0.115174162181     1.007825032230
         H            2.133290099670    -2.971800918561    -0.074851737819     1.007825032230
         H            3.312031199670    -1.918526718561    -0.512079837819     1.007825032230

  Basis Set: AUG-CC-PVTZ
    Blend: AUG-CC-PVTZ
  Basis Set: (AUG-CC-PVTZ AUX)
    Blend: AUG-CC-PVTZ-JKFIT
	 Reference Energy          =    -578.6300264958124444 [Eh]
	 Singles Energy            =      -0.0000000000000000 [Eh]
	 Same-Spin Energy          =      -0.6157804830531433 [Eh]
	 Opposite-Spin Energy      =      -1.8190301176586978 [Eh]
	 Correlation Energy        =      -2.4348106007118409 [Eh]
	 Total Energy              =    -581.0648370965242293 [Eh]

	 ================> DF-SCS-MP2 Energies <==================
	-----------------------------------------------------------
	 SCS Same-Spin Scale       =       0.3333333333333333 [-]
	 SCS Opposite-Spin Scale   =       1.2000000000000000 [-]
	 SCS Same-Spin Energy      =      -0.2052601610177144 [Eh]
	 SCS Opposite-Spin Energy  =      -2.1828361411904371 [Eh]
	 SCS Correlation Energy    =      -2.3880963022081514 [Eh]
	 SCS Total Energy          =    -581.0181227980206131 [Eh]
	-----------------------------------------------------------

  Dipole Moment: [D]
     X:    -0.5166      Y:    -6.7024      Z:    -0.8497     Total:     6.7758

*** Psi4 exiting successfully. Buy a developer a beer!
