                               Psi4 1.4a3.dev225

  ==> Input File <==

--------------------------------------------------------------------------
#psi4
#
memory 32 gb

molecule  {
0 1
  O        1.6617960     2.5152110     0.0229320
  N       -1.9329240    -0.4005880    -0.0147920
  N        1.9545050     0.2323110     0.0113410
  N        0.2669280    -1.4301930    -0.0208730
  N       -1.3834780     1.7915450    -0.0193170
  N        2.5221760    -2.0364130     0.0734370
  C       -0.5634760    -0.3442740    -0.0026930
  C       -0.2488450     1.0144850    -0.0147620
  C        1.1594044     1.4528378     0.0039582
  C       -2.3683130     0.9036150    -0.0164120
  C        1.5275980    -1.0721200    -0.0057920
  C       -2.7322540    -1.6127190     0.0339130
  H       -3.4247340     1.1445090    -0.0228960
  H       -2.2735910    -2.3629350    -0.6109560
  H       -2.7853950    -1.9995380     1.0543320
  H       -3.7366260    -1.3828770    -0.3245450
  H        2.9468270     0.4301980     0.1174830
  H        2.1372730    -2.9631930    -0.0801050
  H        3.3349710    -1.8642740    -0.5097710
units angstrom
no_reorient  #important for SAPT in psi4, default
symmetry c1  #important for SAPT in psi4, default
}

set PROPERTIES_ORIGIN ["COM"]
properties('MP2/aug-cc-pvtz', properties = ['dipole'])
--------------------------------------------------------------------------

    Molecular point group: c1
  Charge       = 0
  Multiplicity = 1
  Basis Set: AUG-CC-PVTZ
    Blend: AUG-CC-PVTZ
  Basis Set: (AUG-CC-PVTZ AUX)
    Blend: AUG-CC-PVTZ-JKFIT

    Orbital Energies [Eh]
    ---------------------

    Doubly Occupied:

       1A    -20.534583     2A    -15.629788     3A    -15.622904
       4A    -15.607648     5A    -15.566179     6A    -15.557104
       7A    -11.392482     8A    -11.366935     9A    -11.315094
      10A    -11.303192    11A    -11.286835    12A    -11.246093
      13A     -1.417754    14A     -1.365046    15A     -1.333090
      16A     -1.214457    17A     -1.212342    18A     -1.186388
      19A     -1.022105    20A     -0.982027    21A     -0.893742
      22A     -0.877257    23A     -0.803702    24A     -0.763871
      25A     -0.734627    26A     -0.724578    27A     -0.690054
      28A     -0.667683    29A     -0.655687    30A     -0.638872
      31A     -0.625321    32A     -0.623532    33A     -0.591958
      34A     -0.576684    35A     -0.560547    36A     -0.552732
      37A     -0.489630    38A     -0.458786    39A     -0.445154
      40A     -0.432322    41A     -0.428692    42A     -0.390053
      43A     -0.294914

  @DF-RHF Final Energy:  -578.62952987797144

   => Energetics <=

    Nuclear Repulsion Energy =            692.7982053717495319
    One-Electron Energy =               -2162.6905854431652187
    Two-Electron Energy =                 891.2628501934441374
    Total Energy =                       -578.6295298779714358
  Basis Set: (AUG-CC-PVTZ AUX)
    Blend: AUG-CC-PVTZ-RI
    Molecular point group: c1

    Geometry (in Angstrom), charge = 0, multiplicity = 1:

       Center              X                  Y                   Z               Mass
    ------------   -----------------  -----------------  -----------------  -----------------
         O            1.637418199637     2.457951372355     0.020610651197    15.994914619570
         N           -1.957301800363    -0.457847627645    -0.017113348803    14.003074004430
         N            1.930127199637     0.175051372355     0.009019651197    14.003074004430
         N            0.242550199637    -1.487452627645    -0.023194348803    14.003074004430
         N           -1.407855800363     1.734285372355    -0.021638348803    14.003074004430
         N            2.497798199637    -2.093672627645     0.071115651197    14.003074004430
         C           -0.587853800363    -0.401533627645    -0.005014348803    12.000000000000
         C           -0.273222800363     0.957225372355    -0.017083348803    12.000000000000
         C            1.135026599637     1.395578172355     0.001636851197    12.000000000000
         C           -2.392690800363     0.846355372355    -0.018733348803    12.000000000000
         C            1.503220199637    -1.129379627645    -0.008113348803    12.000000000000
         C           -2.756631800363    -1.669978627645     0.031591651197    12.000000000000
         H           -3.449111800363     1.087249372355    -0.025217348803     1.007825032230
         H           -2.297968800363    -2.420194627645    -0.613277348803     1.007825032230
         H           -2.809772800363    -2.056797627645     1.052010651197     1.007825032230
         H           -3.761003800363    -1.440136627645    -0.326866348803     1.007825032230
         H            2.922449199637     0.372938372355     0.115161651197     1.007825032230
         H            2.112895199637    -3.020452627645    -0.082426348803     1.007825032230
         H            3.310593199637    -1.921533627645    -0.512092348803     1.007825032230

  Basis Set: AUG-CC-PVTZ
    Blend: AUG-CC-PVTZ
  Basis Set: (AUG-CC-PVTZ AUX)
    Blend: AUG-CC-PVTZ-JKFIT
	 Reference Energy          =    -578.6295298779714358 [Eh]
	 Singles Energy            =      -0.0000000000000000 [Eh]
	 Same-Spin Energy          =      -0.6150727874222364 [Eh]
	 Opposite-Spin Energy      =      -1.8180160897044015 [Eh]
	 Correlation Energy        =      -2.4330888771266377 [Eh]
	 Total Energy              =    -581.0626187550981285 [Eh]

	 ================> DF-SCS-MP2 Energies <==================
	-----------------------------------------------------------
	 SCS Same-Spin Scale       =       0.3333333333333333 [-]
	 SCS Opposite-Spin Scale   =       1.2000000000000000 [-]
	 SCS Same-Spin Energy      =      -0.2050242624740788 [Eh]
	 SCS Opposite-Spin Energy  =      -2.1816193076452817 [Eh]
	 SCS Correlation Energy    =      -2.3866435701193605 [Eh]
	 SCS Total Energy          =    -581.0161734480907398 [Eh]
	-----------------------------------------------------------

  Dipole Moment: [D]
     X:    -0.2921      Y:    -6.2490      Z:    -0.8456     Total:     6.3127

*** Psi4 exiting successfully. Buy a developer a beer!
