                               Psi4 1.3.2 release

  ==> Input File <==

--------------------------------------------------------------------------
#psi4
#
memory 32 gb

molecule  {
0 1
  O       -1.4497879     2.5720507     0.0801967
  N        1.9191590    -0.5831280    -0.0556370
  N       -1.9102790     0.3061000     0.0485010
  N       -0.3427170    -1.4672350    -0.0387560
  N        1.5166440     1.6409000    -0.0105650
  N       -2.6294290    -1.9169300     0.1110730
  C        0.5576980    -0.4369160    -0.0295360
  C        0.3420162     0.9634107    -0.0088476
  C       -1.0221650     1.4237120     0.0351730
  C        2.4390620     0.6894910    -0.0699270
  C       -1.5730580    -1.0260450     0.0187980
  C        2.6353690    -1.8453210    -0.0655260
  H        3.5092610     0.8590810    -0.0866130
  H        2.3729340    -2.4304260     0.8177420
  H        2.3794720    -2.4140780    -0.9605130
  H        3.7041390    -1.6305860    -0.0592400
  H       -2.8879820     0.5691470     0.1693100
  H       -2.3258040    -2.8676930    -0.0642460
  H       -3.4596940    -1.6726380    -0.4173570
units angstrom
no_reorient  #important for SAPT in psi4, default
symmetry c1  #important for SAPT in psi4, default
}

set PROPERTIES_ORIGIN ["COM"]
properties('MP2/aug-cc-pvtz', properties = ['dipole'])
--------------------------------------------------------------------------

    Molecular point group: c1
  Charge       = 0
  Multiplicity = 1
  Basis Set: AUG-CC-PVTZ
    Blend: AUG-CC-PVTZ
  Basis Set: (AUG-CC-PVTZ AUX)
    Blend: AUG-CC-PVTZ-JKFIT

    Orbital Energies [Eh]
    ---------------------

    Doubly Occupied:

       1A    -20.519545     2A    -15.633994     3A    -15.630732
       4A    -15.611053     5A    -15.571572     6A    -15.558963
       7A    -11.396461     8A    -11.363428     9A    -11.319818
      10A    -11.306235    11A    -11.289560    12A    -11.247786
      13A     -1.389944    14A     -1.360081    15A     -1.334581
      16A     -1.219473    17A     -1.217691    18A     -1.193167
      19A     -1.026003    20A     -0.987251    21A     -0.901684
      22A     -0.882604    23A     -0.807612    24A     -0.764191
      25A     -0.743035    26A     -0.730379    27A     -0.692379
      28A     -0.670758    29A     -0.648219    30A     -0.642982
      31A     -0.626863    32A     -0.608569    33A     -0.596728
      34A     -0.578573    35A     -0.561557    36A     -0.541289
      37A     -0.494539    38A     -0.459734    39A     -0.440651
      40A     -0.429563    41A     -0.425282    42A     -0.394509
      43A     -0.293966

  @DF-RHF Final Energy:  -578.62904829735749

   => Energetics <=

    Nuclear Repulsion Energy =            693.2427126332424905
    One-Electron Energy =               -2163.5175142017146754
    Two-Electron Energy =                 891.6457532711146996
    Total Energy =                       -578.6290482973574854
  Basis Set: (AUG-CC-PVTZ AUX)
    Blend: AUG-CC-PVTZ-RI
    Molecular point group: c1

    Geometry (in Angstrom), charge = 0, multiplicity = 1:

       Center              X                  Y                   Z               Mass
    ------------   -----------------  -----------------  -----------------  -----------------
         O           -1.452324877589     2.569583877159     0.080175345607    15.994914619570
         N            1.916622022411    -0.585594822841    -0.055658354393    14.003074004430
         N           -1.912815977589     0.303633177159     0.048479645607    14.003074004430
         N           -0.345253977589    -1.469701822841    -0.038777354393    14.003074004430
         N            1.514107022411     1.638433177159    -0.010586354393    14.003074004430
         N           -2.631965977589    -1.919396822841     0.111051645607    14.003074004430
         C            0.555161022411    -0.439382822841    -0.029557354393    12.000000000000
         C            0.339479222411     0.960943877159    -0.008868954393    12.000000000000
         C           -1.024701977589     1.421245177159     0.035151645607    12.000000000000
         C            2.436525022411     0.687024177159    -0.069948354393    12.000000000000
         C           -1.575594977589    -1.028511822841     0.018776645607    12.000000000000
         C            2.632832022411    -1.847787822841    -0.065547354393    12.000000000000
         H            3.506724022411     0.856614177159    -0.086634354393     1.007825032230
         H            2.370397022411    -2.432892822841     0.817720645607     1.007825032230
         H            2.376935022411    -2.416544822841    -0.960534354393     1.007825032230
         H            3.701602022411    -1.633052822841    -0.059261354393     1.007825032230
         H           -2.890518977589     0.566680177159     0.169288645607     1.007825032230
         H           -2.328340977589    -2.870159822841    -0.064267354393     1.007825032230
         H           -3.462230977589    -1.675104822841    -0.417378354393     1.007825032230

  Basis Set: AUG-CC-PVTZ
    Blend: AUG-CC-PVTZ
  Basis Set: (AUG-CC-PVTZ AUX)
    Blend: AUG-CC-PVTZ-JKFIT
	 Reference Energy          =    -578.6290482973574854 [Eh]
	 Singles Energy            =      -0.0000000000000000 [Eh]
	 Same-Spin Energy          =      -0.6166102512806368 [Eh]
	 Opposite-Spin Energy      =      -1.8202612399781792 [Eh]
	 Correlation Energy        =      -2.4368714912588159 [Eh]
	 Total Energy              =    -581.0659197886162701 [Eh]

	 ================> DF-SCS-MP2 Energies <==================
	-----------------------------------------------------------
	 SCS Same-Spin Scale       =       0.3333333333333333 [-]
	 SCS Opposite-Spin Scale   =       1.2000000000000000 [-]
	 SCS Same-Spin Energy      =      -0.2055367504268789 [Eh]
	 SCS Opposite-Spin Energy  =      -2.1843134879738151 [Eh]
	 SCS Correlation Energy    =      -2.3898502384006939 [Eh]
	 SCS Total Energy          =    -581.0188985357581259 [Eh]
	-----------------------------------------------------------

  Dipole Moment: [D]
     X:    -0.0300      Y:    -6.8106      Z:    -0.9379     Total:     6.8750

*** Psi4 exiting successfully. Buy a developer a beer!
