                               Psi4 1.4a3.dev225

  ==> Input File <==

--------------------------------------------------------------------------
#psi4
#
memory 32 gb

molecule  {
0 1
  O        1.6617960     2.5152110     0.0229320
  N       -1.9329240    -0.4005880    -0.0147920
  N        1.9545050     0.2323110     0.0113410
  N        0.2669280    -1.4301930    -0.0208730
  N       -1.3834780     1.7915450    -0.0193170
  N        2.5221760    -2.0364130     0.0734370
  C       -0.5634760    -0.3442740    -0.0026930
  C       -0.2488450     1.0144850    -0.0147620
  C        1.1380320     1.4076430     0.0031510
  C       -2.3683130     0.9036150    -0.0164120
  C        1.5275980    -1.0721200    -0.0057920
  C       -2.7322540    -1.6127190     0.0339130
  H       -3.4052349     1.1400626    -0.0227763
  H       -2.2735910    -2.3629350    -0.6109560
  H       -2.7853950    -1.9995380     1.0543320
  H       -3.7366260    -1.3828770    -0.3245450
  H        2.9468270     0.4301980     0.1174830
  H        2.1372730    -2.9631930    -0.0801050
  H        3.3349710    -1.8642740    -0.5097710
units angstrom
no_reorient  #important for SAPT in psi4, default
symmetry c1  #important for SAPT in psi4, default
}

set PROPERTIES_ORIGIN ["COM"]
properties('MP2/aug-cc-pvtz', properties = ['dipole'])
--------------------------------------------------------------------------

    Molecular point group: c1
  Charge       = 0
  Multiplicity = 1
  Basis Set: AUG-CC-PVTZ
    Blend: AUG-CC-PVTZ
  Basis Set: (AUG-CC-PVTZ AUX)
    Blend: AUG-CC-PVTZ-JKFIT

    Orbital Energies [Eh]
    ---------------------

    Doubly Occupied:

       1A    -20.521438     2A    -15.632640     3A    -15.629418
       4A    -15.610744     5A    -15.571091     6A    -15.559916
       7A    -11.396076     8A    -11.364936     9A    -11.319586
      10A    -11.304907    11A    -11.289190    12A    -11.247199
      13A     -1.390825    14A     -1.360604    15A     -1.333819
      16A     -1.218740    17A     -1.215993    18A     -1.190328
      19A     -1.029585    20A     -0.986072    21A     -0.902322
      22A     -0.882123    23A     -0.808649    24A     -0.766477
      25A     -0.741354    26A     -0.729629    27A     -0.691557
      28A     -0.670759    29A     -0.649651    30A     -0.643013
      31A     -0.625388    32A     -0.610735    33A     -0.596448
      34A     -0.578379    35A     -0.561178    36A     -0.541570
      37A     -0.493150    38A     -0.460358    39A     -0.440215
      40A     -0.429709    41A     -0.429067    42A     -0.392750
      43A     -0.298569

  @DF-RHF Final Energy:  -578.63072736437312

   => Energetics <=

    Nuclear Repulsion Energy =            693.2831844110708062
    One-Electron Energy =               -2163.5955141592867221
    Two-Electron Energy =                 891.6816023838428009
    Total Energy =                       -578.6307273643731151
  Basis Set: (AUG-CC-PVTZ AUX)
    Blend: AUG-CC-PVTZ-RI
    Molecular point group: c1

    Geometry (in Angstrom), charge = 0, multiplicity = 1:

       Center              X                  Y                   Z               Mass
    ------------   -----------------  -----------------  -----------------  -----------------
         O            1.638852889202     2.461264119423     0.020668602670    15.994914619570
         N           -1.955867110798    -0.454534880577    -0.017055397330    14.003074004430
         N            1.931561889202     0.178364119423     0.009077602670    14.003074004430
         N            0.243984889202    -1.484139880577    -0.023136397330    14.003074004430
         N           -1.406421110798     1.737598119423    -0.021580397330    14.003074004430
         N            2.499232889202    -2.090359880577     0.071173602670    14.003074004430
         C           -0.586419110798    -0.398220880577    -0.004956397330    12.000000000000
         C           -0.271788110798     0.960538119423    -0.017025397330    12.000000000000
         C            1.115088889202     1.353696119423     0.000887602670    12.000000000000
         C           -2.391256110798     0.849668119423    -0.018675397330    12.000000000000
         C            1.504654889202    -1.126066880577    -0.008055397330    12.000000000000
         C           -2.755197110798    -1.666665880577     0.031649602670    12.000000000000
         H           -3.428178010798     1.086115719423    -0.025039697330     1.007825032230
         H           -2.296534110798    -2.416881880577    -0.613219397330     1.007825032230
         H           -2.808338110798    -2.053484880577     1.052068602670     1.007825032230
         H           -3.759569110798    -1.436823880577    -0.326808397330     1.007825032230
         H            2.923883889202     0.376251119423     0.115219602670     1.007825032230
         H            2.114329889202    -3.017139880577    -0.082368397330     1.007825032230
         H            3.312027889202    -1.918220880577    -0.512034397330     1.007825032230

  Basis Set: AUG-CC-PVTZ
    Blend: AUG-CC-PVTZ
  Basis Set: (AUG-CC-PVTZ AUX)
    Blend: AUG-CC-PVTZ-JKFIT
	 Reference Energy          =    -578.6307273643731151 [Eh]
	 Singles Energy            =      -0.0000000000000000 [Eh]
	 Same-Spin Energy          =      -0.6160244754710036 [Eh]
	 Opposite-Spin Energy      =      -1.8196791339565881 [Eh]
	 Correlation Energy        =      -2.4357036094275917 [Eh]
	 Total Energy              =    -581.0664309738007205 [Eh]

	 ================> DF-SCS-MP2 Energies <==================
	-----------------------------------------------------------
	 SCS Same-Spin Scale       =       0.3333333333333333 [-]
	 SCS Opposite-Spin Scale   =       1.2000000000000000 [-]
	 SCS Same-Spin Energy      =      -0.2053414918236678 [Eh]
	 SCS Opposite-Spin Energy  =      -2.1836149607479056 [Eh]
	 SCS Correlation Energy    =      -2.3889564525715734 [Eh]
	 SCS Total Energy          =    -581.0196838169447346 [Eh]
	-----------------------------------------------------------

  Dipole Moment: [D]
     X:    -0.5241      Y:    -6.7511      Z:    -0.8510     Total:     6.8247

*** Psi4 exiting successfully. Buy a developer a beer!
