                               Psi4 1.3.2 release

  ==> Input File <==

--------------------------------------------------------------------------
#psi4
#
memory 32 gb

molecule  {
0 1
  O       -1.4697740     2.5644010     0.0803940
  N        1.9191590    -0.5831280    -0.0556370
  N       -1.9102790     0.3061000     0.0485010
  N       -0.3427170    -1.4672350    -0.0387560
  N        1.5227131     1.6305586    -0.0110391
  N       -2.6294290    -1.9169300     0.1110730
  C        0.5576980    -0.4369160    -0.0295360
  C        0.3337570     0.9396730    -0.0094060
  C       -1.0263471     1.4118622     0.0348624
  C        2.4390620     0.6894910    -0.0699270
  C       -1.5730580    -1.0260450     0.0187980
  C        2.6353690    -1.8453210    -0.0655260
  H        3.5092610     0.8590810    -0.0866130
  H        2.3729340    -2.4304260     0.8177420
  H        2.3794720    -2.4140780    -0.9605130
  H        3.7041390    -1.6305860    -0.0592400
  H       -2.8879820     0.5691470     0.1693100
  H       -2.3258040    -2.8676930    -0.0642460
  H       -3.4596940    -1.6726380    -0.4173570
units angstrom
no_reorient  #important for SAPT in psi4, default
symmetry c1  #important for SAPT in psi4, default
}

set PROPERTIES_ORIGIN ["COM"]
properties('MP2/aug-cc-pvtz', properties = ['dipole'])
--------------------------------------------------------------------------

    Molecular point group: c1
  Charge       = 0
  Multiplicity = 1
  Basis Set: AUG-CC-PVTZ
    Blend: AUG-CC-PVTZ
  Basis Set: (AUG-CC-PVTZ AUX)
    Blend: AUG-CC-PVTZ-JKFIT

    Orbital Energies [Eh]
    ---------------------

    Doubly Occupied:

       1A    -20.518209     2A    -15.631748     3A    -15.631540
       4A    -15.611717     5A    -15.572042     6A    -15.558116
       7A    -11.397289     8A    -11.364003     9A    -11.319316
      10A    -11.305974    11A    -11.289050    12A    -11.247144
      13A     -1.389400    14A     -1.358990    15A     -1.333498
      16A     -1.221005    17A     -1.217940    18A     -1.191872
      19A     -1.031021    20A     -0.985813    21A     -0.902553
      22A     -0.884816    23A     -0.808961    24A     -0.766314
      25A     -0.743820    26A     -0.730456    27A     -0.693089
      28A     -0.671618    29A     -0.648647    30A     -0.643087
      31A     -0.627639    32A     -0.607116    33A     -0.596026
      34A     -0.578134    35A     -0.561730    36A     -0.540151
      37A     -0.493887    38A     -0.460051    39A     -0.438708
      40A     -0.428937    41A     -0.427193    42A     -0.392633
      43A     -0.299687

  @DF-RHF Final Energy:  -578.63113374954435

   => Energetics <=

    Nuclear Repulsion Energy =            693.7660286420650664
    One-Electron Energy =               -2164.5524469258762110
    Two-Electron Energy =                 892.1552845342667979
    Total Energy =                       -578.6311337495443468
  Basis Set: (AUG-CC-PVTZ AUX)
    Blend: AUG-CC-PVTZ-RI
    Molecular point group: c1

    Geometry (in Angstrom), charge = 0, multiplicity = 1:

       Center              X                  Y                   Z               Mass
    ------------   -----------------  -----------------  -----------------  -----------------
         O           -1.469984709953     2.566139898761     0.080456921835    15.994914619570
         N            1.918948290047    -0.581389101239    -0.055574078165    14.003074004430
         N           -1.910489709953     0.307838898761     0.048563921835    14.003074004430
         N           -0.342927709953    -1.465496101239    -0.038693078165    14.003074004430
         N            1.522502390047     1.632297498761    -0.010976178165    14.003074004430
         N           -2.629639709953    -1.915191101239     0.111135921835    14.003074004430
         C            0.557487290047    -0.435177101239    -0.029473078165    12.000000000000
         C            0.333546290047     0.941411898761    -0.009343078165    12.000000000000
         C           -1.026557809953     1.413601098761     0.034925321835    12.000000000000
         C            2.438851290047     0.691229898761    -0.069864078165    12.000000000000
         C           -1.573268709953    -1.024306101239     0.018860921835    12.000000000000
         C            2.635158290047    -1.843582101239    -0.065463078165    12.000000000000
         H            3.509050290047     0.860819898761    -0.086550078165     1.007825032230
         H            2.372723290047    -2.428687101239     0.817804921835     1.007825032230
         H            2.379261290047    -2.412339101239    -0.960450078165     1.007825032230
         H            3.703928290047    -1.628847101239    -0.059177078165     1.007825032230
         H           -2.888192709953     0.570885898761     0.169372921835     1.007825032230
         H           -2.326014709953    -2.865954101239    -0.064183078165     1.007825032230
         H           -3.459904709953    -1.670899101239    -0.417294078165     1.007825032230

  Basis Set: AUG-CC-PVTZ
    Blend: AUG-CC-PVTZ
  Basis Set: (AUG-CC-PVTZ AUX)
    Blend: AUG-CC-PVTZ-JKFIT
	 Reference Energy          =    -578.6311337495443468 [Eh]
	 Singles Energy            =      -0.0000000000000000 [Eh]
	 Same-Spin Energy          =      -0.6159072579284920 [Eh]
	 Opposite-Spin Energy      =      -1.8193902471363077 [Eh]
	 Correlation Energy        =      -2.4352975050647996 [Eh]
	 Total Energy              =    -581.0664312546091423 [Eh]

	 ================> DF-SCS-MP2 Energies <==================
	-----------------------------------------------------------
	 SCS Same-Spin Scale       =       0.3333333333333333 [-]
	 SCS Opposite-Spin Scale   =       1.2000000000000000 [-]
	 SCS Same-Spin Energy      =      -0.2053024193094973 [Eh]
	 SCS Opposite-Spin Energy  =      -2.1832682965635692 [Eh]
	 SCS Correlation Energy    =      -2.3885707158730667 [Eh]
	 SCS Total Energy          =    -581.0197044654173624 [Eh]
	-----------------------------------------------------------

  Dipole Moment: [D]
     X:    -0.0235      Y:    -6.8758      Z:    -0.9397     Total:     6.9398

*** Psi4 exiting successfully. Buy a developer a beer!
