                               Psi4 1.3.2 release

  ==> Input File <==

--------------------------------------------------------------------------
#psi4
#
memory 32 gb

molecule  {
0 1
  O       -1.4697740     2.5644010     0.0803940
  N        1.9191590    -0.5831280    -0.0556370
  N       -1.9102790     0.3061000     0.0485010
  N       -0.3427170    -1.4672350    -0.0387560
  N        1.5166440     1.6409000    -0.0105650
  N       -2.6294290    -1.9169300     0.1110730
  C        0.5576980    -0.4369160    -0.0295360
  C        0.3337570     0.9396730    -0.0094060
  C       -1.0221650     1.4237120     0.0351730
  C        2.5049426     0.6605280    -0.0711198
  C       -1.5730580    -1.0260450     0.0187980
  C        2.7004309    -1.8061049    -0.0669243
  H        3.5092610     0.8590810    -0.0866130
  H        2.3729340    -2.4304260     0.8177420
  H        2.3794720    -2.4140780    -0.9605130
  H        3.7041390    -1.6305860    -0.0592400
  H       -2.8879820     0.5691470     0.1693100
  H       -2.3258040    -2.8676930    -0.0642460
  H       -3.4596940    -1.6726380    -0.4173570
units angstrom
no_reorient  #important for SAPT in psi4, default
symmetry c1  #important for SAPT in psi4, default
}

set PROPERTIES_ORIGIN ["COM"]
properties('MP2/aug-cc-pvtz', properties = ['dipole'])
--------------------------------------------------------------------------

    Molecular point group: c1
  Charge       = 0
  Multiplicity = 1
  Basis Set: AUG-CC-PVTZ
    Blend: AUG-CC-PVTZ
  Basis Set: (AUG-CC-PVTZ AUX)
    Blend: AUG-CC-PVTZ-JKFIT

    Orbital Energies [Eh]
    ---------------------

    Doubly Occupied:

       1A    -20.523310     2A    -15.638628     3A    -15.630139
       4A    -15.610567     5A    -15.571295     6A    -15.563317
       7A    -11.395806     8A    -11.366498     9A    -11.319876
      10A    -11.307465    11A    -11.289499    12A    -11.249289
      13A     -1.391001    14A     -1.357496    15A     -1.332466
      16A     -1.219589    17A     -1.212010    18A     -1.180577
      19A     -1.028316    20A     -0.986638    21A     -0.906875
      22A     -0.880292    23A     -0.815171    24A     -0.768090
      25A     -0.738077    26A     -0.734969    27A     -0.693398
      28A     -0.666931    29A     -0.655031    30A     -0.645218
      31A     -0.624180    32A     -0.610965    33A     -0.602961
      34A     -0.588609    35A     -0.551652    36A     -0.536838
      37A     -0.490230    38A     -0.457373    39A     -0.439971
      40A     -0.427824    41A     -0.426466    42A     -0.387705
      43A     -0.293907

  @DF-RHF Final Energy:  -578.60996617940032

   => Energetics <=

    Nuclear Repulsion Energy =            691.7920063180968100
    One-Electron Energy =               -2160.5709135436732140
    Two-Electron Energy =                 890.1689410461760872
    Total Energy =                       -578.6099661794003168
  Basis Set: (AUG-CC-PVTZ AUX)
    Blend: AUG-CC-PVTZ-RI
    Molecular point group: c1

    Geometry (in Angstrom), charge = 0, multiplicity = 1:

       Center              X                  Y                   Z               Mass
    ------------   -----------------  -----------------  -----------------  -----------------
         O           -1.479293216216     2.563655749845     0.080582491369    15.994914619570
         N            1.909639783784    -0.583873250155    -0.055448508631    14.003074004430
         N           -1.919798216216     0.305354749845     0.048689491369    14.003074004430
         N           -0.352236216216    -1.467980250155    -0.038567508631    14.003074004430
         N            1.507124783784     1.640154749845    -0.010376508631    14.003074004430
         N           -2.638948216216    -1.917675250155     0.111261491369    14.003074004430
         C            0.548178783784    -0.437661250155    -0.029347508631    12.000000000000
         C            0.324237783784     0.938927749845    -0.009217508631    12.000000000000
         C           -1.031684216216     1.422966749845     0.035361491369    12.000000000000
         C            2.495423383784     0.659782749845    -0.070931308631    12.000000000000
         C           -1.582577216216    -1.026790250155     0.018986491369    12.000000000000
         C            2.690911683784    -1.806850150155    -0.066735808631    12.000000000000
         H            3.499741783784     0.858335749845    -0.086424508631     1.007825032230
         H            2.363414783784    -2.431171250155     0.817930491369     1.007825032230
         H            2.369952783784    -2.414823250155    -0.960324508631     1.007825032230
         H            3.694619783784    -1.631331250155    -0.059051508631     1.007825032230
         H           -2.897501216216     0.568401749845     0.169498491369     1.007825032230
         H           -2.335323216216    -2.868438250155    -0.064057508631     1.007825032230
         H           -3.469213216216    -1.673383250155    -0.417168508631     1.007825032230

  Basis Set: AUG-CC-PVTZ
    Blend: AUG-CC-PVTZ
  Basis Set: (AUG-CC-PVTZ AUX)
    Blend: AUG-CC-PVTZ-JKFIT
	 Reference Energy          =    -578.6099661794003168 [Eh]
	 Singles Energy            =      -0.0000000000000000 [Eh]
	 Same-Spin Energy          =      -0.6179779585836618 [Eh]
	 Opposite-Spin Energy      =      -1.8238266315432838 [Eh]
	 Correlation Energy        =      -2.4418045901269458 [Eh]
	 Total Energy              =    -581.0517707695272520 [Eh]

	 ================> DF-SCS-MP2 Energies <==================
	-----------------------------------------------------------
	 SCS Same-Spin Scale       =       0.3333333333333333 [-]
	 SCS Opposite-Spin Scale   =       1.2000000000000000 [-]
	 SCS Same-Spin Energy      =      -0.2059926528612206 [Eh]
	 SCS Opposite-Spin Energy  =      -2.1885919578519406 [Eh]
	 SCS Correlation Energy    =      -2.3945846107131610 [Eh]
	 SCS Total Energy          =    -581.0045507901135124 [Eh]
	-----------------------------------------------------------

  Dipole Moment: [D]
     X:    -0.0151      Y:    -6.8165      Z:    -0.9377     Total:     6.8807

*** Psi4 exiting successfully. Buy a developer a beer!
