                               Psi4 1.3.2 release

  ==> Input File <==

--------------------------------------------------------------------------
#psi4
#
memory 32 gb

molecule  {
0 1
  O       -1.4697740     2.5644010     0.0803940
  N        1.9191590    -0.5831280    -0.0556370
  N       -1.9102790     0.3061000     0.0485010
  N       -0.3427170    -1.4672350    -0.0387560
  N        1.5166440     1.6409000    -0.0105650
  N       -2.6294290    -1.9169300     0.1110730
  C        0.5576980    -0.4369160    -0.0295360
  C        0.3337570     0.9396730    -0.0094060
  C       -1.0221650     1.4237120     0.0351730
  C        2.4390620     0.6894910    -0.0699270
  C       -1.5730580    -1.0260450     0.0187980
  C        2.6353690    -1.8453210    -0.0655260
  H        3.5092610     0.8590810    -0.0866130
  H        2.4094804    -2.4294013     0.8284577
  H        2.3794720    -2.4140780    -0.9605130
  H        3.7071085    -1.6496962    -0.0264698
  H       -2.8879820     0.5691470     0.1693100
  H       -2.3258040    -2.8676930    -0.0642460
  H       -3.4596940    -1.6726380    -0.4173570
units angstrom
no_reorient  #important for SAPT in psi4, default
symmetry c1  #important for SAPT in psi4, default
}

set PROPERTIES_ORIGIN ["COM"]
properties('MP2/aug-cc-pvtz', properties = ['dipole'])
--------------------------------------------------------------------------

    Molecular point group: c1
  Charge       = 0
  Multiplicity = 1
  Basis Set: AUG-CC-PVTZ
    Blend: AUG-CC-PVTZ
  Basis Set: (AUG-CC-PVTZ AUX)
    Blend: AUG-CC-PVTZ-JKFIT

    Orbital Energies [Eh]
    ---------------------

    Doubly Occupied:

       1A    -20.520896     2A    -15.633338     3A    -15.629272
       4A    -15.610630     5A    -15.570785     6A    -15.559699
       7A    -11.395982     8A    -11.364292     9A    -11.319341
      10A    -11.307357    11A    -11.289250    12A    -11.247018
      13A     -1.390679    14A     -1.360609    15A     -1.333989
      16A     -1.219036    17A     -1.216173    18A     -1.190553
      19A     -1.029437    20A     -0.986535    21A     -0.901543
      22A     -0.882152    23A     -0.808062    24A     -0.767745
      25A     -0.740956    26A     -0.729262    27A     -0.692192
      28A     -0.671884    29A     -0.650283    30A     -0.640844
      31A     -0.627733    32A     -0.610130    33A     -0.593695
      34A     -0.575194    35A     -0.561871    36A     -0.541647
      37A     -0.493671    38A     -0.459213    39A     -0.439935
      40A     -0.429313    41A     -0.428813    42A     -0.393191
      43A     -0.298428

  @DF-RHF Final Energy:  -578.63039245029256

   => Energetics <=

    Nuclear Repulsion Energy =            693.3570025743090355
    One-Electron Energy =               -2163.7495280364164500
    Two-Electron Energy =                 891.7621330118148535
    Total Energy =                       -578.6303924502925611
  Basis Set: (AUG-CC-PVTZ AUX)
    Blend: AUG-CC-PVTZ-RI
    Molecular point group: c1

    Geometry (in Angstrom), charge = 0, multiplicity = 1:

       Center              X                  Y                   Z               Mass
    ------------   -----------------  -----------------  -----------------  -----------------
         O           -1.470015147992     2.564511559183     0.080128613494    15.994914619570
         N            1.918917852008    -0.583017440817    -0.055902386506    14.003074004430
         N           -1.910520147992     0.306210559183     0.048235613494    14.003074004430
         N           -0.342958147992    -1.467124440817    -0.039021386506    14.003074004430
         N            1.516402852008     1.641010559183    -0.010830386506    14.003074004430
         N           -2.629670147992    -1.916819440817     0.110807613494    14.003074004430
         C            0.557456852008    -0.436805440817    -0.029801386506    12.000000000000
         C            0.333515852008     0.939783559183    -0.009671386506    12.000000000000
         C           -1.022406147992     1.423822559183     0.034907613494    12.000000000000
         C            2.438820852008     0.689601559183    -0.070192386506    12.000000000000
         C           -1.573299147992    -1.025934440817     0.018532613494    12.000000000000
         C            2.635127852008    -1.845210440817    -0.065791386506    12.000000000000
         H            3.509019852008     0.859191559183    -0.086878386506     1.007825032230
         H            2.409239252008    -2.429290740817     0.828192313494     1.007825032230
         H            2.379230852008    -2.413967440817    -0.960778386506     1.007825032230
         H            3.706867352008    -1.649585640817    -0.026735186506     1.007825032230
         H           -2.888223147992     0.569257559183     0.169044613494     1.007825032230
         H           -2.326045147992    -2.867582440817    -0.064511386506     1.007825032230
         H           -3.459935147992    -1.672527440817    -0.417622386506     1.007825032230

  Basis Set: AUG-CC-PVTZ
    Blend: AUG-CC-PVTZ
  Basis Set: (AUG-CC-PVTZ AUX)
    Blend: AUG-CC-PVTZ-JKFIT
	 Reference Energy          =    -578.6303924502925611 [Eh]
	 Singles Energy            =      -0.0000000000000000 [Eh]
	 Same-Spin Energy          =      -0.6160495548719787 [Eh]
	 Opposite-Spin Energy      =      -1.8197680017934754 [Eh]
	 Correlation Energy        =      -2.4358175566654543 [Eh]
	 Total Energy              =    -581.0662100069580447 [Eh]

	 ================> DF-SCS-MP2 Energies <==================
	-----------------------------------------------------------
	 SCS Same-Spin Scale       =       0.3333333333333333 [-]
	 SCS Opposite-Spin Scale   =       1.2000000000000000 [-]
	 SCS Same-Spin Energy      =      -0.2053498516239929 [Eh]
	 SCS Opposite-Spin Energy  =      -2.1837216021521706 [Eh]
	 SCS Correlation Energy    =      -2.3890714537761637 [Eh]
	 SCS Total Energy          =    -581.0194639040687434 [Eh]
	-----------------------------------------------------------

  Dipole Moment: [D]
     X:     0.0022      Y:    -6.7905      Z:    -0.9149     Total:     6.8518

*** Psi4 exiting successfully. Buy a developer a beer!
