                               Psi4 1.3.2 release

  ==> Input File <==

--------------------------------------------------------------------------
#psi4
#
memory 32 gb

molecule  {
0 1
  O       -1.4697740     2.5644010     0.0803940
  N        1.9191590    -0.5831280    -0.0556370
  N       -1.9102790     0.3061000     0.0485010
  N       -0.3427170    -1.4672350    -0.0387560
  N        1.5166440     1.6409000    -0.0105650
  N       -2.6294290    -1.9169300     0.1110730
  C        0.5576980    -0.4369160    -0.0295360
  C        0.3337570     0.9396730    -0.0094060
  C       -1.0221650     1.4237120     0.0351730
  C        2.5781392     0.5460427    -0.0788773
  C       -1.5730580    -1.0260450     0.0187980
  C        2.6353690    -1.8453210    -0.0655260
  H        3.5092610     0.8590810    -0.0866130
  H        2.3729340    -2.4304260     0.8177420
  H        2.3794720    -2.4140780    -0.9605130
  H        3.7041390    -1.6305860    -0.0592400
  H       -2.8879820     0.5691470     0.1693100
  H       -2.3258040    -2.8676930    -0.0642460
  H       -3.4596940    -1.6726380    -0.4173570
units angstrom
no_reorient  #important for SAPT in psi4, default
symmetry c1  #important for SAPT in psi4, default
}

set PROPERTIES_ORIGIN ["COM"]
properties('MP2/aug-cc-pvtz', properties = ['dipole'])
--------------------------------------------------------------------------

    Molecular point group: c1
  Charge       = 0
  Multiplicity = 1
  Basis Set: AUG-CC-PVTZ
    Blend: AUG-CC-PVTZ
  Basis Set: (AUG-CC-PVTZ AUX)
    Blend: AUG-CC-PVTZ-JKFIT

    Orbital Energies [Eh]
    ---------------------

    Doubly Occupied:

       1A    -20.527517     2A    -15.652855     3A    -15.630689
       4A    -15.608687     5A    -15.571147     6A    -15.562824
       7A    -11.392671     8A    -11.369398     9A    -11.313083
      10A    -11.310390    11A    -11.291896    12A    -11.253628
      13A     -1.393269    14A     -1.366582    15A     -1.334949
      16A     -1.219424    17A     -1.210328    18A     -1.164920
      19A     -1.022948    20A     -0.992097    21A     -0.920560
      22A     -0.876771    23A     -0.819875    24A     -0.766554
      25A     -0.748595    26A     -0.734866    27A     -0.694225
      28A     -0.677173    29A     -0.663294    30A     -0.650798
      31A     -0.629617    32A     -0.616888    33A     -0.588508
      34A     -0.564403    35A     -0.555753    36A     -0.544332
      37A     -0.484661    38A     -0.455534    39A     -0.441603
      40A     -0.427630    41A     -0.418414    42A     -0.391010
      43A     -0.280241

  @DF-RHF Final Energy:  -578.57166550613795

   => Energetics <=

    Nuclear Repulsion Energy =            691.3808313249770663
    One-Electron Energy =               -2159.6237799563227782
    Two-Electron Energy =                 889.6712831252078786
    Total Energy =                       -578.5716655061379470
  Basis Set: (AUG-CC-PVTZ AUX)
    Blend: AUG-CC-PVTZ-RI
    Molecular point group: c1

    Geometry (in Angstrom), charge = 0, multiplicity = 1:

       Center              X                  Y                   Z               Mass
    ------------   -----------------  -----------------  -----------------  -----------------
         O           -1.479884597578     2.574829627596     0.081044796354    15.994914619570
         N            1.909048402422    -0.572699372404    -0.054986203646    14.003074004430
         N           -1.920389597578     0.316528627596     0.049151796354    14.003074004430
         N           -0.352827597578    -1.456806372404    -0.038105203646    14.003074004430
         N            1.506533402422     1.651328627596    -0.009914203646    14.003074004430
         N           -2.639539597578    -1.906501372404     0.111723796354    14.003074004430
         C            0.547587402422    -0.426487372404    -0.028885203646    12.000000000000
         C            0.323646402422     0.950101627596    -0.008755203646    12.000000000000
         C           -1.032275597578     1.434140627596     0.035823796354    12.000000000000
         C            2.568028602422     0.556471327596    -0.078226503646    12.000000000000
         C           -1.583168597578    -1.015616372404     0.019448796354    12.000000000000
         C            2.625258402422    -1.834892372404    -0.064875203646    12.000000000000
         H            3.499150402422     0.869509627596    -0.085962203646     1.007825032230
         H            2.362823402422    -2.419997372404     0.818392796354     1.007825032230
         H            2.369361402422    -2.403649372404    -0.959862203646     1.007825032230
         H            3.694028402422    -1.620157372404    -0.058589203646     1.007825032230
         H           -2.898092597578     0.579575627596     0.169960796354     1.007825032230
         H           -2.335914597578    -2.857264372404    -0.063595203646     1.007825032230
         H           -3.469804597578    -1.662209372404    -0.416706203646     1.007825032230

  Basis Set: AUG-CC-PVTZ
    Blend: AUG-CC-PVTZ
  Basis Set: (AUG-CC-PVTZ AUX)
    Blend: AUG-CC-PVTZ-JKFIT
	 Reference Energy          =    -578.5716655061379470 [Eh]
	 Singles Energy            =      -0.0000000000000000 [Eh]
	 Same-Spin Energy          =      -0.6222378215856306 [Eh]
	 Opposite-Spin Energy      =      -1.8317294165111646 [Eh]
	 Correlation Energy        =      -2.4539672380967952 [Eh]
	 Total Energy              =    -581.0256327442347128 [Eh]

	 ================> DF-SCS-MP2 Energies <==================
	-----------------------------------------------------------
	 SCS Same-Spin Scale       =       0.3333333333333333 [-]
	 SCS Opposite-Spin Scale   =       1.2000000000000000 [-]
	 SCS Same-Spin Energy      =      -0.2074126071952102 [Eh]
	 SCS Opposite-Spin Energy  =      -2.1980752998133974 [Eh]
	 SCS Correlation Energy    =      -2.4054879070086077 [Eh]
	 SCS Total Energy          =    -580.9771534131465387 [Eh]
	-----------------------------------------------------------

  Dipole Moment: [D]
     X:    -0.1028      Y:    -7.0423      Z:    -0.9338     Total:     7.1047

*** Psi4 exiting successfully. Buy a developer a beer!
