                               Psi4 1.4a3.dev225

  ==> Input File <==

--------------------------------------------------------------------------
#psi4
#
memory 32 gb

molecule  {
0 1
  O        1.6617960     2.5152110     0.0229320
  N       -1.9329240    -0.4005880    -0.0147920
  N        1.9545050     0.2323110     0.0113410
  N        0.2669280    -1.4301930    -0.0208730
  N       -1.3834780     1.7915450    -0.0193170
  N        2.5221760    -2.0364130     0.0734370
  C       -0.5634760    -0.3442740    -0.0026930
  C       -0.2488450     1.0144850    -0.0147620
  C        1.1380320     1.4076430     0.0031510
  C       -2.3619799     0.8846442    -0.0163884
  C        1.5275980    -1.0721200    -0.0057920
  C       -2.7322540    -1.6127190     0.0339130
  H       -3.4247340     1.1445090    -0.0228960
  H       -2.2735910    -2.3629350    -0.6109560
  H       -2.7853950    -1.9995380     1.0543320
  H       -3.7366260    -1.3828770    -0.3245450
  H        2.9468270     0.4301980     0.1174830
  H        2.1372730    -2.9631930    -0.0801050
  H        3.3349710    -1.8642740    -0.5097710
units angstrom
no_reorient  #important for SAPT in psi4, default
symmetry c1  #important for SAPT in psi4, default
}

set PROPERTIES_ORIGIN ["COM"]
properties('MP2/aug-cc-pvtz', properties = ['dipole'])
--------------------------------------------------------------------------

    Molecular point group: c1
  Charge       = 0
  Multiplicity = 1
  Basis Set: AUG-CC-PVTZ
    Blend: AUG-CC-PVTZ
  Basis Set: (AUG-CC-PVTZ AUX)
    Blend: AUG-CC-PVTZ-JKFIT

    Orbital Energies [Eh]
    ---------------------

    Doubly Occupied:

       1A    -20.521752     2A    -15.634710     3A    -15.629382
       4A    -15.610349     5A    -15.571041     6A    -15.558817
       7A    -11.395443     8A    -11.365031     9A    -11.318754
      10A    -11.306961    11A    -11.290570    12A    -11.247670
      13A     -1.391446    14A     -1.363765    15A     -1.334498
      16A     -1.218635    17A     -1.215088    18A     -1.191029
      19A     -1.028242    20A     -0.988841    21A     -0.903687
      22A     -0.881310    23A     -0.806216    24A     -0.767247
      25A     -0.741882    26A     -0.727689    27A     -0.691207
      28A     -0.672704    29A     -0.651532    30A     -0.642362
      31A     -0.625800    32A     -0.611550    33A     -0.588586
      34A     -0.579471    35A     -0.562006    36A     -0.541925
      37A     -0.493663    38A     -0.460011    39A     -0.440306
      40A     -0.429573    41A     -0.429166    42A     -0.394117
      43A     -0.297164

  @DF-RHF Final Energy:  -578.62952520023703

   => Energetics <=

    Nuclear Repulsion Energy =            693.5055387535601312
    One-Electron Energy =               -2164.0277380475044993
    Two-Electron Energy =                 891.8926740937073419
    Total Energy =                       -578.6295252002370262
  Basis Set: (AUG-CC-PVTZ AUX)
    Blend: AUG-CC-PVTZ-RI
    Molecular point group: c1

    Geometry (in Angstrom), charge = 0, multiplicity = 1:

       Center              X                  Y                   Z               Mass
    ------------   -----------------  -----------------  -----------------  -----------------
         O            1.638511535805     2.462616122124     0.020667617826    15.994914619570
         N           -1.956208464195    -0.453182877876    -0.017056382174    14.003074004430
         N            1.931220535805     0.179716122124     0.009076617826    14.003074004430
         N            0.243643535805    -1.482787877876    -0.023137382174    14.003074004430
         N           -1.406762464195     1.738950122124    -0.021581382174    14.003074004430
         N            2.498891535805    -2.089007877876     0.071172617826    14.003074004430
         C           -0.586760464195    -0.396868877876    -0.004957382174    12.000000000000
         C           -0.272129464195     0.961890122124    -0.017026382174    12.000000000000
         C            1.114747535805     1.355048122124     0.000886617826    12.000000000000
         C           -2.385264364195     0.832049322124    -0.018652782174    12.000000000000
         C            1.504313535805    -1.124714877876    -0.008056382174    12.000000000000
         C           -2.755538464195    -1.665313877876     0.031648617826    12.000000000000
         H           -3.448018464195     1.091914122124    -0.025160382174     1.007825032230
         H           -2.296875464195    -2.415529877876    -0.613220382174     1.007825032230
         H           -2.808679464195    -2.052132877876     1.052067617826     1.007825032230
         H           -3.759910464195    -1.435471877876    -0.326809382174     1.007825032230
         H            2.923542535805     0.377603122124     0.115218617826     1.007825032230
         H            2.113988535805    -3.015787877876    -0.082369382174     1.007825032230
         H            3.311686535805    -1.916868877876    -0.512035382174     1.007825032230

  Basis Set: AUG-CC-PVTZ
    Blend: AUG-CC-PVTZ
  Basis Set: (AUG-CC-PVTZ AUX)
    Blend: AUG-CC-PVTZ-JKFIT
	 Reference Energy          =    -578.6295252002370262 [Eh]
	 Singles Energy            =      -0.0000000000000000 [Eh]
	 Same-Spin Energy          =      -0.6164040911399068 [Eh]
	 Opposite-Spin Energy      =      -1.8202012610510214 [Eh]
	 Correlation Energy        =      -2.4366053521909281 [Eh]
	 Total Energy              =    -581.0661305524279214 [Eh]

	 ================> DF-SCS-MP2 Energies <==================
	-----------------------------------------------------------
	 SCS Same-Spin Scale       =       0.3333333333333333 [-]
	 SCS Opposite-Spin Scale   =       1.2000000000000000 [-]
	 SCS Same-Spin Energy      =      -0.2054680303799689 [Eh]
	 SCS Opposite-Spin Energy  =      -2.1842415132612256 [Eh]
	 SCS Correlation Energy    =      -2.3897095436411946 [Eh]
	 SCS Total Energy          =    -581.0192347438782008 [Eh]
	-----------------------------------------------------------

  Dipole Moment: [D]
     X:    -0.5380      Y:    -6.8015      Z:    -0.8509     Total:     6.8756

*** Psi4 exiting successfully. Buy a developer a beer!
