                               Psi4 1.3.2 release

  ==> Input File <==

--------------------------------------------------------------------------
#psi4
#
memory 32 gb

molecule  {
0 1
  O       -1.4697740     2.5644010     0.0803940
  N        1.9191590    -0.5831280    -0.0556370
  N       -1.9102790     0.3061000     0.0485010
  N       -0.3427170    -1.4672350    -0.0387560
  N        1.5166440     1.6409000    -0.0105650
  N       -2.6294290    -1.9169300     0.1110730
  C        0.5576980    -0.4369160    -0.0295360
  C        0.3337570     0.9396730    -0.0094060
  C       -1.0818267     1.4686541     0.0377521
  C        2.4390620     0.6894910    -0.0699270
  C       -1.6432170    -1.0419077     0.0208670
  C        2.6353690    -1.8453210    -0.0655260
  H        3.5092610     0.8590810    -0.0866130
  H        2.3729340    -2.4304260     0.8177420
  H        2.3794720    -2.4140780    -0.9605130
  H        3.7041390    -1.6305860    -0.0592400
  H       -2.8879820     0.5691470     0.1693100
  H       -2.3258040    -2.8676930    -0.0642460
  H       -3.4596940    -1.6726380    -0.4173570
units angstrom
no_reorient  #important for SAPT in psi4, default
symmetry c1  #important for SAPT in psi4, default
}

set PROPERTIES_ORIGIN ["COM"]
properties('MP2/aug-cc-pvtz', properties = ['dipole'])
--------------------------------------------------------------------------

    Molecular point group: c1
  Charge       = 0
  Multiplicity = 1
  Basis Set: AUG-CC-PVTZ
    Blend: AUG-CC-PVTZ
  Basis Set: (AUG-CC-PVTZ AUX)
    Blend: AUG-CC-PVTZ-JKFIT

    Orbital Energies [Eh]
    ---------------------

    Doubly Occupied:

       1A    -20.535470     2A    -15.627685     3A    -15.622548
       4A    -15.620796     5A    -15.560216     6A    -15.550592
       7A    -11.399426     8A    -11.366446     9A    -11.305421
      10A    -11.296695    11A    -11.281891    12A    -11.239348
      13A     -1.426314    14A     -1.361081    15A     -1.340089
      16A     -1.237499    17A     -1.200386    18A     -1.176063
      19A     -1.011814    20A     -0.975106    21A     -0.896014
      22A     -0.877364    23A     -0.804251    24A     -0.760224
      25A     -0.743424    26A     -0.730593    27A     -0.697957
      28A     -0.663153    29A     -0.662328    30A     -0.636189
      31A     -0.623868    32A     -0.620543    33A     -0.585892
      34A     -0.573265    35A     -0.564972    36A     -0.550154
      37A     -0.479033    38A     -0.462844    39A     -0.444572
      40A     -0.429578    41A     -0.418137    42A     -0.383434
      43A     -0.282622

  @DF-RHF Final Energy:  -578.61528469887401

   => Energetics <=

    Nuclear Repulsion Energy =            692.1676351805681406
    One-Electron Energy =               -2161.5152475769500597
    Two-Electron Energy =                 890.7323276975079125
    Total Energy =                       -578.6152846988740066
  Basis Set: (AUG-CC-PVTZ AUX)
    Blend: AUG-CC-PVTZ-RI
    Molecular point group: c1

    Geometry (in Angstrom), charge = 0, multiplicity = 1:

       Center              X                  Y                   Z               Mass
    ------------   -----------------  -----------------  -----------------  -----------------
         O           -1.460336094687     2.562287104050     0.080056211610    15.994914619570
         N            1.928596905313    -0.585241895950    -0.055974788390    14.003074004430
         N           -1.900841094687     0.303986104050     0.048163211610    14.003074004430
         N           -0.333279094687    -1.469348895950    -0.039093788390    14.003074004430
         N            1.526081905313     1.638786104050    -0.010902788390    14.003074004430
         N           -2.619991094687    -1.919043895950     0.110735211610    14.003074004430
         C            0.567135905313    -0.439029895950    -0.029873788390    12.000000000000
         C            0.343194905313     0.937559104050    -0.009743788390    12.000000000000
         C           -1.072388794687     1.466540204050     0.037414311610    12.000000000000
         C            2.448499905313     0.687377104050    -0.070264788390    12.000000000000
         C           -1.633779094687    -1.044021595950     0.020529211610    12.000000000000
         C            2.644806905313    -1.847434895950    -0.065863788390    12.000000000000
         H            3.518698905313     0.856967104050    -0.086950788390     1.007825032230
         H            2.382371905313    -2.432539895950     0.817404211610     1.007825032230
         H            2.388909905313    -2.416191895950    -0.960850788390     1.007825032230
         H            3.713576905313    -1.632699895950    -0.059577788390     1.007825032230
         H           -2.878544094687     0.567033104050     0.168972211610     1.007825032230
         H           -2.316366094687    -2.869806895950    -0.064583788390     1.007825032230
         H           -3.450256094687    -1.674751895950    -0.417694788390     1.007825032230

  Basis Set: AUG-CC-PVTZ
    Blend: AUG-CC-PVTZ
  Basis Set: (AUG-CC-PVTZ AUX)
    Blend: AUG-CC-PVTZ-JKFIT
	 Reference Energy          =    -578.6152846988740066 [Eh]
	 Singles Energy            =      -0.0000000000000000 [Eh]
	 Same-Spin Energy          =      -0.6157805752837826 [Eh]
	 Opposite-Spin Energy      =      -1.8186352158118395 [Eh]
	 Correlation Energy        =      -2.4344157910956223 [Eh]
	 Total Energy              =    -581.0497004899696094 [Eh]

	 ================> DF-SCS-MP2 Energies <==================
	-----------------------------------------------------------
	 SCS Same-Spin Scale       =       0.3333333333333333 [-]
	 SCS Opposite-Spin Scale   =       1.2000000000000000 [-]
	 SCS Same-Spin Energy      =      -0.2052601917612609 [Eh]
	 SCS Opposite-Spin Energy  =      -2.1823622589742073 [Eh]
	 SCS Correlation Energy    =      -2.3876224507354680 [Eh]
	 SCS Total Energy          =    -581.0029071496094275 [Eh]
	-----------------------------------------------------------

  Dipole Moment: [D]
     X:    -1.0453      Y:    -6.4827      Z:    -0.8874     Total:     6.6261

*** Psi4 exiting successfully. Buy a developer a beer!
