                               Psi4 1.3.2 release

  ==> Input File <==

--------------------------------------------------------------------------
#psi4
#
memory 32 gb

molecule  {
0 1
  O       -1.4094309     2.5862984     0.0797610
  N        1.9191590    -0.5831280    -0.0556370
  N       -1.9102790     0.3061000     0.0485010
  N       -0.3427170    -1.4672350    -0.0387560
  N        1.5166440     1.6409000    -0.0105650
  N       -2.6294290    -1.9169300     0.1110730
  C        0.5576980    -0.4369160    -0.0295360
  C        0.3572857     1.0112995    -0.0076909
  C       -1.0221650     1.4237120     0.0351730
  C        2.4390620     0.6894910    -0.0699270
  C       -1.5730580    -1.0260450     0.0187980
  C        2.6353690    -1.8453210    -0.0655260
  H        3.5092610     0.8590810    -0.0866130
  H        2.3729340    -2.4304260     0.8177420
  H        2.3794720    -2.4140780    -0.9605130
  H        3.7041390    -1.6305860    -0.0592400
  H       -2.8879820     0.5691470     0.1693100
  H       -2.3258040    -2.8676930    -0.0642460
  H       -3.4596940    -1.6726380    -0.4173570
units angstrom
no_reorient  #important for SAPT in psi4, default
symmetry c1  #important for SAPT in psi4, default
}

set PROPERTIES_ORIGIN ["COM"]
properties('MP2/aug-cc-pvtz', properties = ['dipole'])
--------------------------------------------------------------------------

    Molecular point group: c1
  Charge       = 0
  Multiplicity = 1
  Basis Set: AUG-CC-PVTZ
    Blend: AUG-CC-PVTZ
  Basis Set: (AUG-CC-PVTZ AUX)
    Blend: AUG-CC-PVTZ-JKFIT

    Orbital Energies [Eh]
    ---------------------

    Doubly Occupied:

       1A    -20.517200     2A    -15.636140     3A    -15.633623
       4A    -15.611681     5A    -15.572737     6A    -15.557628
       7A    -11.397110     8A    -11.362296     9A    -11.320414
      10A    -11.303947    11A    -11.289821    12A    -11.249676
      13A     -1.388841    14A     -1.359247    15A     -1.335769
      16A     -1.222258    17A     -1.219483    18A     -1.197480
      19A     -1.019357    20A     -0.988850    21A     -0.901899
      22A     -0.883465    23A     -0.807540    24A     -0.759877
      25A     -0.745674    26A     -0.732421    27A     -0.692742
      28A     -0.669999    29A     -0.647778    30A     -0.642493
      31A     -0.627491    32A     -0.606951    33A     -0.599832
      34A     -0.578474    35A     -0.562740    36A     -0.540841
      37A     -0.496098    38A     -0.460839    39A     -0.441593
      40A     -0.430592    41A     -0.416838    42A     -0.398001
      43A     -0.285188

  @DF-RHF Final Energy:  -578.62025627737546

   => Energetics <=

    Nuclear Repulsion Energy =            692.8665604466189052
    One-Electron Energy =               -2162.7477876842958722
    Two-Electron Energy =                 891.2609709603015062
    Total Energy =                       -578.6202562773754607
  Basis Set: (AUG-CC-PVTZ AUX)
    Blend: AUG-CC-PVTZ-RI
    Molecular point group: c1

    Geometry (in Angstrom), charge = 0, multiplicity = 1:

       Center              X                  Y                   Z               Mass
    ------------   -----------------  -----------------  -----------------  -----------------
         O           -1.416988569248     2.578969516432     0.079697774749    15.994914619570
         N            1.911601330752    -0.590456883568    -0.055700225251    14.003074004430
         N           -1.917836669248     0.298771116432     0.048437774749    14.003074004430
         N           -0.350274669248    -1.474563883568    -0.038819225251    14.003074004430
         N            1.509086330752     1.633571116432    -0.010628225251    14.003074004430
         N           -2.636986669248    -1.924258883568     0.111009774749    14.003074004430
         C            0.550140330752    -0.444244883568    -0.029599225251    12.000000000000
         C            0.349728030752     1.003970616432    -0.007754125251    12.000000000000
         C           -1.029722669248     1.416383116432     0.035109774749    12.000000000000
         C            2.431504330752     0.682162116432    -0.069990225251    12.000000000000
         C           -1.580615669248    -1.033373883568     0.018734774749    12.000000000000
         C            2.627811330752    -1.852649883568    -0.065589225251    12.000000000000
         H            3.501703330752     0.851752116432    -0.086676225251     1.007825032230
         H            2.365376330752    -2.437754883568     0.817678774749     1.007825032230
         H            2.371914330752    -2.421406883568    -0.960576225251     1.007825032230
         H            3.696581330752    -1.637914883568    -0.059303225251     1.007825032230
         H           -2.895539669248     0.561818116432     0.169246774749     1.007825032230
         H           -2.333361669248    -2.875021883568    -0.064309225251     1.007825032230
         H           -3.467251669248    -1.679966883568    -0.417420225251     1.007825032230

  Basis Set: AUG-CC-PVTZ
    Blend: AUG-CC-PVTZ
  Basis Set: (AUG-CC-PVTZ AUX)
    Blend: AUG-CC-PVTZ-JKFIT
	 Reference Energy          =    -578.6202562773754607 [Eh]
	 Singles Energy            =      -0.0000000000000000 [Eh]
	 Same-Spin Energy          =      -0.6178553573465170 [Eh]
	 Opposite-Spin Energy      =      -1.8214754131671693 [Eh]
	 Correlation Energy        =      -2.4393307705136862 [Eh]
	 Total Energy              =    -581.0595870478891811 [Eh]

	 ================> DF-SCS-MP2 Energies <==================
	-----------------------------------------------------------
	 SCS Same-Spin Scale       =       0.3333333333333333 [-]
	 SCS Opposite-Spin Scale   =       1.2000000000000000 [-]
	 SCS Same-Spin Energy      =      -0.2059517857821723 [Eh]
	 SCS Opposite-Spin Energy  =      -2.1857704958006030 [Eh]
	 SCS Correlation Energy    =      -2.3917222815827754 [Eh]
	 SCS Total Energy          =    -581.0119785589582762 [Eh]
	-----------------------------------------------------------

  Dipole Moment: [D]
     X:    -0.0644      Y:    -6.8296      Z:    -0.9380     Total:     6.8940

*** Psi4 exiting successfully. Buy a developer a beer!
