                               Psi4 1.3.2 release

  ==> Input File <==

--------------------------------------------------------------------------
#psi4
#
memory 32 gb

molecule  {
0 1
  O       -1.4697740     2.5644010     0.0803940
  N        1.9191590    -0.5831280    -0.0556370
  N       -1.9102790     0.3061000     0.0485010
  N       -0.3427170    -1.4672350    -0.0387560
  N        1.5166440     1.6409000    -0.0105650
  N       -2.6294290    -1.9169300     0.1110730
  C        0.5576980    -0.4369160    -0.0295360
  C        0.3337570     0.9396730    -0.0094060
  C       -1.0221650     1.4237120     0.0351730
  C        2.4390620     0.6894910    -0.0699270
  C       -1.5730580    -1.0260450     0.0187980
  C        2.6353690    -1.8453210    -0.0655260
  H        3.5092610     0.8590810    -0.0866130
  H        2.3729340    -2.4304260     0.8177420
  H        2.3794720    -2.4140780    -0.9605130
  H        3.7041390    -1.6305860    -0.0592400
  H       -2.8879820     0.5691470     0.1693100
  H       -2.2858022    -2.8596928    -0.0303278
  H       -3.4578390    -1.6243853    -0.3952977
units angstrom
no_reorient  #important for SAPT in psi4, default
symmetry c1  #important for SAPT in psi4, default
}

set PROPERTIES_ORIGIN ["COM"]
properties('MP2/aug-cc-pvtz', properties = ['dipole'])
--------------------------------------------------------------------------

    Molecular point group: c1
  Charge       = 0
  Multiplicity = 1
  Basis Set: AUG-CC-PVTZ
    Blend: AUG-CC-PVTZ
  Basis Set: (AUG-CC-PVTZ AUX)
    Blend: AUG-CC-PVTZ-JKFIT

    Orbital Energies [Eh]
    ---------------------

    Doubly Occupied:

       1A    -20.520908     2A    -15.632758     3A    -15.629174
       4A    -15.611017     5A    -15.570471     6A    -15.559494
       7A    -11.395057     8A    -11.364240     9A    -11.319137
      10A    -11.307094    11A    -11.289370    12A    -11.246709
      13A     -1.390739    14A     -1.360508    15A     -1.334372
      16A     -1.219084    17A     -1.216191    18A     -1.190597
      19A     -1.028894    20A     -0.986412    21A     -0.901823
      22A     -0.880151    23A     -0.809063    24A     -0.767733
      25A     -0.741962    26A     -0.724833    27A     -0.698762
      28A     -0.671282    29A     -0.649817    30A     -0.641073
      31A     -0.626801    32A     -0.610408    33A     -0.593613
      34A     -0.578452    35A     -0.561025    36A     -0.541573
      37A     -0.493661    38A     -0.458226    39A     -0.439878
      40A     -0.429389    41A     -0.428812    42A     -0.392666
      43A     -0.298117

  @DF-RHF Final Energy:  -578.62988336862838

   => Energetics <=

    Nuclear Repulsion Energy =            693.6074512668758416
    One-Electron Energy =               -2164.2519742246518035
    Two-Electron Energy =                 892.0146395891475777
    Total Energy =                       -578.6298833686283842
  Basis Set: (AUG-CC-PVTZ AUX)
    Blend: AUG-CC-PVTZ-RI
    Molecular point group: c1

    Geometry (in Angstrom), charge = 0, multiplicity = 1:

       Center              X                  Y                   Z               Mass
    ------------   -----------------  -----------------  -----------------  -----------------
         O           -1.470029440645     2.564057676935     0.080052344494    15.994914619570
         N            1.918903559355    -0.583471323065    -0.055978655506    14.003074004430
         N           -1.910534440645     0.305756676935     0.048159344494    14.003074004430
         N           -0.342972440645    -1.467578323065    -0.039097655506    14.003074004430
         N            1.516388559355     1.640556676935    -0.010906655506    14.003074004430
         N           -2.629684440645    -1.917273323065     0.110731344494    14.003074004430
         C            0.557442559355    -0.437259323065    -0.029877655506    12.000000000000
         C            0.333501559355     0.939329676935    -0.009747655506    12.000000000000
         C           -1.022420440645     1.423368676935     0.034831344494    12.000000000000
         C            2.438806559355     0.689147676935    -0.070268655506    12.000000000000
         C           -1.573313440645    -1.026388323065     0.018456344494    12.000000000000
         C            2.635113559355    -1.845664323065    -0.065867655506    12.000000000000
         H            3.509005559355     0.858737676935    -0.086954655506     1.007825032230
         H            2.372678559355    -2.430769323065     0.817400344494     1.007825032230
         H            2.379216559355    -2.414421323065    -0.960854655506     1.007825032230
         H            3.703883559355    -1.630929323065    -0.059581655506     1.007825032230
         H           -2.888237440645     0.568803676935     0.168968344494     1.007825032230
         H           -2.286057640645    -2.860036123065    -0.030669455506     1.007825032230
         H           -3.458094440645    -1.624728623065    -0.395639355506     1.007825032230

  Basis Set: AUG-CC-PVTZ
    Blend: AUG-CC-PVTZ
  Basis Set: (AUG-CC-PVTZ AUX)
    Blend: AUG-CC-PVTZ-JKFIT
	 Reference Energy          =    -578.6298833686283842 [Eh]
	 Singles Energy            =      -0.0000000000000000 [Eh]
	 Same-Spin Energy          =      -0.6161433426506784 [Eh]
	 Opposite-Spin Energy      =      -1.8198483445865499 [Eh]
	 Correlation Energy        =      -2.4359916872372285 [Eh]
	 Total Energy              =    -581.0658750558656038 [Eh]

	 ================> DF-SCS-MP2 Energies <==================
	-----------------------------------------------------------
	 SCS Same-Spin Scale       =       0.3333333333333333 [-]
	 SCS Opposite-Spin Scale   =       1.2000000000000000 [-]
	 SCS Same-Spin Energy      =      -0.2053811142168928 [Eh]
	 SCS Opposite-Spin Energy  =      -2.1838180135038598 [Eh]
	 SCS Correlation Energy    =      -2.3891991277207527 [Eh]
	 SCS Total Energy          =    -581.0190824963491423 [Eh]
	-----------------------------------------------------------

  Dipole Moment: [D]
     X:    -0.0233      Y:    -6.7698      Z:    -0.8679     Total:     6.8252

*** Psi4 exiting successfully. Buy a developer a beer!
