                               Psi4 1.3.2 release

  ==> Input File <==

--------------------------------------------------------------------------
#psi4
#
memory 32 gb

molecule  {
0 1
  O       -1.4697740     2.5644010     0.0803940
  N        1.9191590    -0.5831280    -0.0556370
  N       -1.9102790     0.3061000     0.0485010
  N       -0.3427170    -1.4672350    -0.0387560
  N        1.5166440     1.6409000    -0.0105650
  N       -2.6294290    -1.9169300     0.1110730
  C        0.5755257    -0.4527621    -0.0307286
  C        0.3337570     0.9396730    -0.0094060
  C       -1.0221650     1.4237120     0.0351730
  C        2.4390620     0.6894910    -0.0699270
  C       -1.5805987    -1.0475907     0.0182307
  C        2.6353690    -1.8453210    -0.0655260
  H        3.5092610     0.8590810    -0.0866130
  H        2.3729340    -2.4304260     0.8177420
  H        2.3794720    -2.4140780    -0.9605130
  H        3.7041390    -1.6305860    -0.0592400
  H       -2.8879820     0.5691470     0.1693100
  H       -2.3258040    -2.8676930    -0.0642460
  H       -3.4596940    -1.6726380    -0.4173570
units angstrom
no_reorient  #important for SAPT in psi4, default
symmetry c1  #important for SAPT in psi4, default
}

set PROPERTIES_ORIGIN ["COM"]
properties('MP2/aug-cc-pvtz', properties = ['dipole'])
--------------------------------------------------------------------------

    Molecular point group: c1
  Charge       = 0
  Multiplicity = 1
  Basis Set: AUG-CC-PVTZ
    Blend: AUG-CC-PVTZ
  Basis Set: (AUG-CC-PVTZ AUX)
    Blend: AUG-CC-PVTZ-JKFIT

    Orbital Energies [Eh]
    ---------------------

    Doubly Occupied:

       1A    -20.518310     2A    -15.634897     3A    -15.625831
       4A    -15.613597     5A    -15.569731     6A    -15.560703
       7A    -11.396876     8A    -11.362152     9A    -11.319821
      10A    -11.305769    11A    -11.290266    12A    -11.246396
      13A     -1.388159    14A     -1.362388    15A     -1.334432
      16A     -1.222759    17A     -1.213769    18A     -1.190451
      19A     -1.026996    20A     -0.987800    21A     -0.901626
      22A     -0.880670    23A     -0.807656    24A     -0.765273
      25A     -0.742046    26A     -0.732191    27A     -0.693522
      28A     -0.672423    29A     -0.648672    30A     -0.644256
      31A     -0.625862    32A     -0.608473    33A     -0.592557
      34A     -0.581266    35A     -0.562294    36A     -0.542089
      37A     -0.490264    38A     -0.460267    39A     -0.437228
      40A     -0.426898    41A     -0.426304    42A     -0.393169
      43A     -0.295365

  @DF-RHF Final Energy:  -578.62871041635913

   => Energetics <=

    Nuclear Repulsion Energy =            693.0853533054962554
    One-Electron Energy =               -2163.2251858630975221
    Two-Electron Energy =                 891.5111221412421401
    Total Energy =                       -578.6287104163591266
  Basis Set: (AUG-CC-PVTZ AUX)
    Blend: AUG-CC-PVTZ-RI
    Molecular point group: c1

    Geometry (in Angstrom), charge = 0, multiplicity = 1:

       Center              X                  Y                   Z               Mass
    ------------   -----------------  -----------------  -----------------  -----------------
         O           -1.470521729378     2.567119467729     0.080522064287    15.994914619570
         N            1.918411270622    -0.580409532271    -0.055508935713    14.003074004430
         N           -1.911026729378     0.308818467729     0.048629064287    14.003074004430
         N           -0.343464729378    -1.464516532271    -0.038627935713    14.003074004430
         N            1.515896270622     1.643618467729    -0.010436935713    14.003074004430
         N           -2.630176729378    -1.914211532271     0.111201064287    14.003074004430
         C            0.574777970622    -0.450043632271    -0.030600535713    12.000000000000
         C            0.333009270622     0.942391467729    -0.009277935713    12.000000000000
         C           -1.022912729378     1.426430467729     0.035301064287    12.000000000000
         C            2.438314270622     0.692209467729    -0.069798935713    12.000000000000
         C           -1.581346429378    -1.044872232271     0.018358764287    12.000000000000
         C            2.634621270622    -1.842602532271    -0.065397935713    12.000000000000
         H            3.508513270622     0.861799467729    -0.086484935713     1.007825032230
         H            2.372186270622    -2.427707532271     0.817870064287     1.007825032230
         H            2.378724270622    -2.411359532271    -0.960384935713     1.007825032230
         H            3.703391270622    -1.627867532271    -0.059111935713     1.007825032230
         H           -2.888729729378     0.571865467729     0.169438064287     1.007825032230
         H           -2.326551729378    -2.864974532271    -0.064117935713     1.007825032230
         H           -3.460441729378    -1.669919532271    -0.417228935713     1.007825032230

  Basis Set: AUG-CC-PVTZ
    Blend: AUG-CC-PVTZ
  Basis Set: (AUG-CC-PVTZ AUX)
    Blend: AUG-CC-PVTZ-JKFIT
	 Reference Energy          =    -578.6287104163591266 [Eh]
	 Singles Energy            =      -0.0000000000000000 [Eh]
	 Same-Spin Energy          =      -0.6164211248742856 [Eh]
	 Opposite-Spin Energy      =      -1.8199799984907949 [Eh]
	 Correlation Energy        =      -2.4364011233650804 [Eh]
	 Total Energy              =    -581.0651115397241711 [Eh]

	 ================> DF-SCS-MP2 Energies <==================
	-----------------------------------------------------------
	 SCS Same-Spin Scale       =       0.3333333333333333 [-]
	 SCS Opposite-Spin Scale   =       1.2000000000000000 [-]
	 SCS Same-Spin Energy      =      -0.2054737082914285 [Eh]
	 SCS Opposite-Spin Energy  =      -2.1839759981889539 [Eh]
	 SCS Correlation Energy    =      -2.3894497064803826 [Eh]
	 SCS Total Energy          =    -581.0181601228395039 [Eh]
	-----------------------------------------------------------

  Dipole Moment: [D]
     X:    -0.0155      Y:    -6.9637      Z:    -0.9372     Total:     7.0265

*** Psi4 exiting successfully. Buy a developer a beer!
