                               Psi4 1.3.2 release

  ==> Input File <==

--------------------------------------------------------------------------
#psi4
#
memory 32 gb

molecule  {
0 1
  O       -1.4697740     2.5644010     0.0803940
  N        1.9191590    -0.5831280    -0.0556370
  N       -1.9102790     0.3061000     0.0485010
  N       -0.3427170    -1.4672350    -0.0387560
  N        1.5166440     1.6409000    -0.0105650
  N       -2.6294290    -1.9169300     0.1110730
  C        0.5576980    -0.4369160    -0.0295360
  C        0.3337570     0.9396730    -0.0094060
  C       -1.0221650     1.4237120     0.0351730
  C        2.4390620     0.6894910    -0.0699270
  C       -1.5437727    -1.0631359     0.0086216
  C        2.6353690    -1.8453210    -0.0655260
  H        3.5092610     0.8590810    -0.0866130
  H        2.3729340    -2.4304260     0.8177420
  H        2.3794720    -2.4140780    -0.9605130
  H        3.7041390    -1.6305860    -0.0592400
  H       -2.8879820     0.5691470     0.1693100
  H       -2.2928998    -2.8556403    -0.0690556
  H       -3.4596940    -1.6726380    -0.4173570
units angstrom
no_reorient  #important for SAPT in psi4, default
symmetry c1  #important for SAPT in psi4, default
}

set PROPERTIES_ORIGIN ["COM"]
properties('MP2/aug-cc-pvtz', properties = ['dipole'])
--------------------------------------------------------------------------

    Molecular point group: c1
  Charge       = 0
  Multiplicity = 1
  Basis Set: AUG-CC-PVTZ
    Blend: AUG-CC-PVTZ
  Basis Set: (AUG-CC-PVTZ AUX)
    Blend: AUG-CC-PVTZ-JKFIT

    Orbital Energies [Eh]
    ---------------------

    Doubly Occupied:

       1A    -20.518999     2A    -15.635578     3A    -15.621628
       4A    -15.609203     5A    -15.573294     6A    -15.561197
       7A    -11.393061     8A    -11.361672     9A    -11.320945
      10A    -11.308588    11A    -11.291132    12A    -11.249451
      13A     -1.388466    14A     -1.361614    15A     -1.334335
      16A     -1.223014    17A     -1.212085    18A     -1.192073
      19A     -1.032168    20A     -0.987520    21A     -0.901167
      22A     -0.875360    23A     -0.810217    24A     -0.767593
      25A     -0.740301    26A     -0.724839    27A     -0.689278
      28A     -0.672755    29A     -0.649442    30A     -0.644459
      31A     -0.626281    32A     -0.610092    33A     -0.593821
      34A     -0.580597    35A     -0.562325    36A     -0.542996
      37A     -0.495404    38A     -0.461501    39A     -0.438575
      40A     -0.429263    41A     -0.424795    42A     -0.394187
      43A     -0.303095

  @DF-RHF Final Energy:  -578.62755050254543

   => Energetics <=

    Nuclear Repulsion Energy =            693.5518312369789555
    One-Electron Energy =               -2164.1300263789344172
    Two-Electron Energy =                 891.9506446394099157
    Total Energy =                       -578.6275505025454322
  Basis Set: (AUG-CC-PVTZ AUX)
    Blend: AUG-CC-PVTZ-RI
    Molecular point group: c1

    Geometry (in Angstrom), charge = 0, multiplicity = 1:

       Center              X                  Y                   Z               Mass
    ------------   -----------------  -----------------  -----------------  -----------------
         O           -1.472103779975     2.567024003476     0.081163297721    15.994914619570
         N            1.916829220025    -0.580504996524    -0.054867702279    14.003074004430
         N           -1.912608779975     0.308723003476     0.049270297721    14.003074004430
         N           -0.345046779975    -1.464611996524    -0.037986702279    14.003074004430
         N            1.514314220025     1.643523003476    -0.009795702279    14.003074004430
         N           -2.631758779975    -1.914306996524     0.111842297721    14.003074004430
         C            0.555368220025    -0.434292996524    -0.028766702279    12.000000000000
         C            0.331427220025     0.942296003476    -0.008636702279    12.000000000000
         C           -1.024494779975     1.426335003476     0.035942297721    12.000000000000
         C            2.436732220025     0.692114003476    -0.069157702279    12.000000000000
         C           -1.546102479975    -1.060512896524     0.009390897721    12.000000000000
         C            2.633039220025    -1.842697996524    -0.064756702279    12.000000000000
         H            3.506931220025     0.861704003476    -0.085843702279     1.007825032230
         H            2.370604220025    -2.427802996524     0.818511297721     1.007825032230
         H            2.377142220025    -2.411454996524    -0.959743702279     1.007825032230
         H            3.701809220025    -1.627962996524    -0.058470702279     1.007825032230
         H           -2.890311779975     0.571770003476     0.170079297721     1.007825032230
         H           -2.295229579975    -2.853017296524    -0.068286302279     1.007825032230
         H           -3.462023779975    -1.670014996524    -0.416587702279     1.007825032230

  Basis Set: AUG-CC-PVTZ
    Blend: AUG-CC-PVTZ
  Basis Set: (AUG-CC-PVTZ AUX)
    Blend: AUG-CC-PVTZ-JKFIT
	 Reference Energy          =    -578.6275505025454322 [Eh]
	 Singles Energy            =      -0.0000000000000000 [Eh]
	 Same-Spin Energy          =      -0.6157994996700957 [Eh]
	 Opposite-Spin Energy      =      -1.8197134840850657 [Eh]
	 Correlation Energy        =      -2.4355129837551615 [Eh]
	 Total Energy              =    -581.0630634863006208 [Eh]

	 ================> DF-SCS-MP2 Energies <==================
	-----------------------------------------------------------
	 SCS Same-Spin Scale       =       0.3333333333333333 [-]
	 SCS Opposite-Spin Scale   =       1.2000000000000000 [-]
	 SCS Same-Spin Energy      =      -0.2052664998900319 [Eh]
	 SCS Opposite-Spin Energy  =      -2.1836561809020787 [Eh]
	 SCS Correlation Energy    =      -2.3889226807921107 [Eh]
	 SCS Total Energy          =    -581.0164731833375527 [Eh]
	-----------------------------------------------------------

  Dipole Moment: [D]
     X:     0.2265      Y:    -6.9151      Z:    -0.9677     Total:     6.9862

*** Psi4 exiting successfully. Buy a developer a beer!
