                               Psi4 1.3.2 release

  ==> Input File <==

--------------------------------------------------------------------------
#psi4
#
memory 32 gb

molecule  {
0 1
  O       -1.4697740     2.5644010     0.0803940
  N        1.9191590    -0.5831280    -0.0556370
  N       -1.9102790     0.3061000     0.0485010
  N       -0.3427170    -1.4672350    -0.0387560
  N        1.5166440     1.6409000    -0.0105650
  N       -2.6294290    -1.9169300     0.1110730
  C        0.5576980    -0.4369160    -0.0295360
  C        0.3337570     0.9396730    -0.0094060
  C       -0.9837331     1.3920408     0.0334734
  C        2.4390620     0.6894910    -0.0699270
  C       -1.5267870    -1.0134382     0.0174636
  C        2.6353690    -1.8453210    -0.0655260
  H        3.5092610     0.8590810    -0.0866130
  H        2.3729340    -2.4304260     0.8177420
  H        2.3794720    -2.4140780    -0.9605130
  H        3.7041390    -1.6305860    -0.0592400
  H       -2.8879820     0.5691470     0.1693100
  H       -2.3258040    -2.8676930    -0.0642460
  H       -3.4596940    -1.6726380    -0.4173570
units angstrom
no_reorient  #important for SAPT in psi4, default
symmetry c1  #important for SAPT in psi4, default
}

set PROPERTIES_ORIGIN ["COM"]
properties('MP2/aug-cc-pvtz', properties = ['dipole'])
--------------------------------------------------------------------------

    Molecular point group: c1
  Charge       = 0
  Multiplicity = 1
  Basis Set: AUG-CC-PVTZ
    Blend: AUG-CC-PVTZ
  Basis Set: (AUG-CC-PVTZ AUX)
    Blend: AUG-CC-PVTZ-JKFIT

    Orbital Energies [Eh]
    ---------------------

    Doubly Occupied:

       1A    -20.510768     2A    -15.639855     3A    -15.630940
       4A    -15.603974     5A    -15.577687     6A    -15.565548
       7A    -11.394235     8A    -11.362011     9A    -11.328799
      10A    -11.314298    11A    -11.294422    12A    -11.250821
      13A     -1.389582    14A     -1.353780    15A     -1.324398
      16A     -1.224541    17A     -1.205737    18A     -1.198840
      19A     -1.042087    20A     -0.994200    21A     -0.911721
      22A     -0.879558    23A     -0.812851    24A     -0.772944
      25A     -0.748038    26A     -0.723651    27A     -0.686735
      28A     -0.677109    29A     -0.653102    30A     -0.641664
      31A     -0.628931    32A     -0.600936    33A     -0.595389
      34A     -0.581585    35A     -0.564189    36A     -0.533003
      37A     -0.502703    38A     -0.459079    39A     -0.441367
      40A     -0.425930    41A     -0.424118    42A     -0.398256
      43A     -0.308246

  @DF-RHF Final Energy:  -578.62048822317706

   => Energetics <=

    Nuclear Repulsion Energy =            694.4716674087974297
    One-Electron Energy =               -2165.8290521861458728
    Two-Electron Energy =                 892.7368965541713806
    Total Energy =                       -578.6204882231770625
  Basis Set: (AUG-CC-PVTZ AUX)
    Blend: AUG-CC-PVTZ-RI
    Molecular point group: c1

    Geometry (in Angstrom), charge = 0, multiplicity = 1:

       Center              X                  Y                   Z               Mass
    ------------   -----------------  -----------------  -----------------  -----------------
         O           -1.475931661684     2.565787091270     0.080614689582    15.994914619570
         N            1.913001338316    -0.581741908730    -0.055416310418    14.003074004430
         N           -1.916436661684     0.307486091270     0.048721689582    14.003074004430
         N           -0.348874661684    -1.465848908730    -0.038535310418    14.003074004430
         N            1.510486338316     1.642286091270    -0.010344310418    14.003074004430
         N           -2.635586661684    -1.915543908730     0.111293689582    14.003074004430
         C            0.551540338316    -0.435529908730    -0.029315310418    12.000000000000
         C            0.327599338316     0.941059091270    -0.009185310418    12.000000000000
         C           -0.989890761684     1.393426891270     0.033694089582    12.000000000000
         C            2.432904338316     0.690877091270    -0.069706310418    12.000000000000
         C           -1.532944661684    -1.012052108730     0.017684289582    12.000000000000
         C            2.629211338316    -1.843934908730    -0.065305310418    12.000000000000
         H            3.503103338316     0.860467091270    -0.086392310418     1.007825032230
         H            2.366776338316    -2.429039908730     0.817962689582     1.007825032230
         H            2.373314338316    -2.412691908730    -0.960292310418     1.007825032230
         H            3.697981338316    -1.629199908730    -0.059019310418     1.007825032230
         H           -2.894139661684     0.570533091270     0.169530689582     1.007825032230
         H           -2.331961661684    -2.866306908730    -0.064025310418     1.007825032230
         H           -3.465851661684    -1.671251908730    -0.417136310418     1.007825032230

  Basis Set: AUG-CC-PVTZ
    Blend: AUG-CC-PVTZ
  Basis Set: (AUG-CC-PVTZ AUX)
    Blend: AUG-CC-PVTZ-JKFIT
	 Reference Energy          =    -578.6204882231770625 [Eh]
	 Singles Energy            =      -0.0000000000000000 [Eh]
	 Same-Spin Energy          =      -0.6166429359309994 [Eh]
	 Opposite-Spin Energy      =      -1.8213923134299184 [Eh]
	 Correlation Energy        =      -2.4380352493609179 [Eh]
	 Total Energy              =    -581.0585234725380133 [Eh]

	 ================> DF-SCS-MP2 Energies <==================
	-----------------------------------------------------------
	 SCS Same-Spin Scale       =       0.3333333333333333 [-]
	 SCS Opposite-Spin Scale   =       1.2000000000000000 [-]
	 SCS Same-Spin Energy      =      -0.2055476453103331 [Eh]
	 SCS Opposite-Spin Energy  =      -2.1856707761159018 [Eh]
	 SCS Correlation Energy    =      -2.3912184214262351 [Eh]
	 SCS Total Energy          =    -581.0117066446033505 [Eh]
	-----------------------------------------------------------

  Dipole Moment: [D]
     X:     0.6629      Y:    -6.9765      Z:    -0.9682     Total:     7.0744

*** Psi4 exiting successfully. Buy a developer a beer!
