                               Psi4 1.3.2 release

  ==> Input File <==

--------------------------------------------------------------------------
#psi4
#
memory 32 gb

molecule  {
0 1
  O       -1.4697740     2.5644010     0.0803940
  N        1.9191590    -0.5831280    -0.0556370
  N       -1.9102790     0.3061000     0.0485010
  N       -0.3427170    -1.4672350    -0.0387560
  N        1.5166440     1.6409000    -0.0105650
  N       -2.6294290    -1.9169300     0.1110730
  C        0.5576980    -0.4369160    -0.0295360
  C        0.3016469     1.1370574    -0.0065196
  C       -1.0221650     1.4237120     0.0351730
  C        2.4390620     0.6894910    -0.0699270
  C       -1.5730580    -1.0260450     0.0187980
  C        2.6353690    -1.8453210    -0.0655260
  H        3.5092610     0.8590810    -0.0866130
  H        2.3729340    -2.4304260     0.8177420
  H        2.3794720    -2.4140780    -0.9605130
  H        3.7041390    -1.6305860    -0.0592400
  H       -2.8879820     0.5691470     0.1693100
  H       -2.3258040    -2.8676930    -0.0642460
  H       -3.4596940    -1.6726380    -0.4173570
units angstrom
no_reorient  #important for SAPT in psi4, default
symmetry c1  #important for SAPT in psi4, default
}

set PROPERTIES_ORIGIN ["COM"]
properties('MP2/aug-cc-pvtz', properties = ['dipole'])
--------------------------------------------------------------------------

    Molecular point group: c1
  Charge       = 0
  Multiplicity = 1
  Basis Set: AUG-CC-PVTZ
    Blend: AUG-CC-PVTZ
  Basis Set: (AUG-CC-PVTZ AUX)
    Blend: AUG-CC-PVTZ-JKFIT

    Orbital Energies [Eh]
    ---------------------

    Doubly Occupied:

       1A    -20.499614     2A    -15.644113     3A    -15.631613
       4A    -15.613627     5A    -15.575825     6A    -15.563074
       7A    -11.399776     8A    -11.349127     9A    -11.336862
      10A    -11.307019    11A    -11.294535    12A    -11.257233
      13A     -1.386013    14A     -1.355051    15A     -1.333674
      16A     -1.223132    17A     -1.218418    18A     -1.199748
      19A     -1.019928    20A     -0.996312    21A     -0.914435
      22A     -0.884261    23A     -0.807157    24A     -0.758018
      25A     -0.743922    26A     -0.736629    27A     -0.693429
      28A     -0.671191    29A     -0.658634    30A     -0.635187
      31A     -0.628762    32A     -0.615462    33A     -0.593547
      34A     -0.579925    35A     -0.563627    36A     -0.540735
      37A     -0.496767    38A     -0.463371    39A     -0.432250
      40A     -0.427591    41A     -0.402382    42A     -0.399252
      43A     -0.278220

  @DF-RHF Final Energy:  -578.58443720615492

   => Energetics <=

    Nuclear Repulsion Energy =            691.4852775566907894
    One-Electron Energy =               -2159.8805373838558808
    Two-Electron Energy =                 889.8108226210101748
    Total Energy =                       -578.5844372061549166
  Basis Set: (AUG-CC-PVTZ AUX)
    Blend: AUG-CC-PVTZ-RI
    Molecular point group: c1

    Geometry (in Angstrom), charge = 0, multiplicity = 1:

       Center              X                  Y                   Z               Mass
    ------------   -----------------  -----------------  -----------------  -----------------
         O           -1.467439519246     2.550051564914     0.080184284747    15.994914619570
         N            1.921493480754    -0.597477435086    -0.055846715253    14.003074004430
         N           -1.907944519246     0.291750564914     0.048291284747    14.003074004430
         N           -0.340382519246    -1.481584435086    -0.038965715253    14.003074004430
         N            1.518978480754     1.626550564914    -0.010774715253    14.003074004430
         N           -2.627094519246    -1.931279435086     0.110863284747    14.003074004430
         C            0.560032480754    -0.451265435086    -0.029745715253    12.000000000000
         C            0.303981380754     1.122707964914    -0.006729315253    12.000000000000
         C           -1.019830519246     1.409362564914     0.034963284747    12.000000000000
         C            2.441396480754     0.675141564914    -0.070136715253    12.000000000000
         C           -1.570723519246    -1.040394435086     0.018588284747    12.000000000000
         C            2.637703480754    -1.859670435086    -0.065735715253    12.000000000000
         H            3.511595480754     0.844731564914    -0.086822715253     1.007825032230
         H            2.375268480754    -2.444775435086     0.817532284747     1.007825032230
         H            2.381806480754    -2.428427435086    -0.960722715253     1.007825032230
         H            3.706473480754    -1.644935435086    -0.059449715253     1.007825032230
         H           -2.885647519246     0.554797564914     0.169100284747     1.007825032230
         H           -2.323469519246    -2.882042435086    -0.064455715253     1.007825032230
         H           -3.457359519246    -1.686987435086    -0.417566715253     1.007825032230

  Basis Set: AUG-CC-PVTZ
    Blend: AUG-CC-PVTZ
  Basis Set: (AUG-CC-PVTZ AUX)
    Blend: AUG-CC-PVTZ-JKFIT
	 Reference Energy          =    -578.5844372061549166 [Eh]
	 Singles Energy            =      -0.0000000000000000 [Eh]
	 Same-Spin Energy          =      -0.6199567060711364 [Eh]
	 Opposite-Spin Energy      =      -1.8240536600123638 [Eh]
	 Correlation Energy        =      -2.4440103660835000 [Eh]
	 Total Energy              =    -581.0284475722384059 [Eh]

	 ================> DF-SCS-MP2 Energies <==================
	-----------------------------------------------------------
	 SCS Same-Spin Scale       =       0.3333333333333333 [-]
	 SCS Opposite-Spin Scale   =       1.2000000000000000 [-]
	 SCS Same-Spin Energy      =      -0.2066522353570455 [Eh]
	 SCS Opposite-Spin Energy  =      -2.1888643920148363 [Eh]
	 SCS Correlation Energy    =      -2.3955166273718818 [Eh]
	 SCS Total Energy          =    -580.9799538335267926 [Eh]
	-----------------------------------------------------------

  Dipole Moment: [D]
     X:     0.3343      Y:    -7.0523      Z:    -0.9508     Total:     7.1240

*** Psi4 exiting successfully. Buy a developer a beer!
