                               Psi4 1.4a3.dev225

  ==> Input File <==

--------------------------------------------------------------------------
#psi4
#
memory 32 gb

molecule  {
0 1
  O        1.6617960     2.5152110     0.0229320
  N       -1.9329240    -0.4005880    -0.0147920
  N        1.9545050     0.2323110     0.0113410
  N        0.2669280    -1.4301930    -0.0208730
  N       -1.3834780     1.7915450    -0.0193170
  N        2.5221760    -2.0364130     0.0734370
  C       -0.5434937    -0.3434523    -0.0025165
  C       -0.2488450     1.0144850    -0.0147620
  C        1.1380320     1.4076430     0.0031510
  C       -2.3683130     0.9036150    -0.0164120
  C        1.5275980    -1.0721200    -0.0057920
  C       -2.7322540    -1.6127190     0.0339130
  H       -3.4247340     1.1445090    -0.0228960
  H       -2.2735910    -2.3629350    -0.6109560
  H       -2.7853950    -1.9995380     1.0543320
  H       -3.7366260    -1.3828770    -0.3245450
  H        2.9468270     0.4301980     0.1174830
  H        2.1372730    -2.9631930    -0.0801050
  H        3.3349710    -1.8642740    -0.5097710
units angstrom
no_reorient  #important for SAPT in psi4, default
symmetry c1  #important for SAPT in psi4, default
}

set PROPERTIES_ORIGIN ["COM"]
properties('MP2/aug-cc-pvtz', properties = ['dipole'])
--------------------------------------------------------------------------

    Molecular point group: c1
  Charge       = 0
  Multiplicity = 1
  Basis Set: AUG-CC-PVTZ
    Blend: AUG-CC-PVTZ
  Basis Set: (AUG-CC-PVTZ AUX)
    Blend: AUG-CC-PVTZ-JKFIT

    Orbital Energies [Eh]
    ---------------------

    Doubly Occupied:

       1A    -20.521568     2A    -15.630622     3A    -15.630490
       4A    -15.611485     5A    -15.572027     6A    -15.558710
       7A    -11.397097     8A    -11.364937     9A    -11.319761
      10A    -11.307641    11A    -11.287701    12A    -11.247621
      13A     -1.391293    14A     -1.357850    15A     -1.333879
      16A     -1.219738    17A     -1.218731    18A     -1.189005
      19A     -1.029724    20A     -0.983419    21A     -0.900338
      22A     -0.883686    23A     -0.807859    24A     -0.766193
      25A     -0.739984    26A     -0.728836    27A     -0.691661
      28A     -0.669079    29A     -0.649818    30A     -0.641911
      31A     -0.625754    32A     -0.610904    33A     -0.594170
      34A     -0.575211    35A     -0.560035    36A     -0.541684
      37A     -0.494954    38A     -0.461937    39A     -0.440819
      40A     -0.430858    41A     -0.429235    42A     -0.391476
      43A     -0.298662

  @DF-RHF Final Energy:  -578.62978196835866

   => Energetics <=

    Nuclear Repulsion Energy =            693.2094848199529906
    One-Electron Energy =               -2163.4618084826483937
    Two-Electron Energy =                 891.6225416943366326
    Total Energy =                       -578.6297819683586567
  Basis Set: (AUG-CC-PVTZ AUX)
    Blend: AUG-CC-PVTZ-RI
    Molecular point group: c1

    Geometry (in Angstrom), charge = 0, multiplicity = 1:

       Center              X                  Y                   Z               Mass
    ------------   -----------------  -----------------  -----------------  -----------------
         O            1.637519257971     2.461177234935     0.020656502209    15.994914619570
         N           -1.957200742029    -0.454621765065    -0.017067497791    14.003074004430
         N            1.930228257971     0.178277234935     0.009065502209    14.003074004430
         N            0.242651257971    -1.484226765065    -0.023148497791    14.003074004430
         N           -1.407754742029     1.737511234935    -0.021592497791    14.003074004430
         N            2.497899257971    -2.090446765065     0.071161502209    14.003074004430
         C           -0.567770442029    -0.397486065065    -0.004791997791    12.000000000000
         C           -0.273121742029     0.960451234935    -0.017037497791    12.000000000000
         C            1.113755257971     1.353609234935     0.000875502209    12.000000000000
         C           -2.392589742029     0.849581234935    -0.018687497791    12.000000000000
         C            1.503321257971    -1.126153765065    -0.008067497791    12.000000000000
         C           -2.756530742029    -1.666752765065     0.031637502209    12.000000000000
         H           -3.449010742029     1.090475234935    -0.025171497791     1.007825032230
         H           -2.297867742029    -2.416968765065    -0.613231497791     1.007825032230
         H           -2.809671742029    -2.053571765065     1.052056502209     1.007825032230
         H           -3.760902742029    -1.436910765065    -0.326820497791     1.007825032230
         H            2.922550257971     0.376164234935     0.115207502209     1.007825032230
         H            2.112996257971    -3.017226765065    -0.082380497791     1.007825032230
         H            3.310694257971    -1.918307765065    -0.512046497791     1.007825032230

  Basis Set: AUG-CC-PVTZ
    Blend: AUG-CC-PVTZ
  Basis Set: (AUG-CC-PVTZ AUX)
    Blend: AUG-CC-PVTZ-JKFIT
	 Reference Energy          =    -578.6297819683586567 [Eh]
	 Singles Energy            =      -0.0000000000000000 [Eh]
	 Same-Spin Energy          =      -0.6161544710581492 [Eh]
	 Opposite-Spin Energy      =      -1.8199664567369305 [Eh]
	 Correlation Energy        =      -2.4361209277950797 [Eh]
	 Total Energy              =    -581.0659028961537160 [Eh]

	 ================> DF-SCS-MP2 Energies <==================
	-----------------------------------------------------------
	 SCS Same-Spin Scale       =       0.3333333333333333 [-]
	 SCS Opposite-Spin Scale   =       1.2000000000000000 [-]
	 SCS Same-Spin Energy      =      -0.2053848236860497 [Eh]
	 SCS Opposite-Spin Energy  =      -2.1839597480843165 [Eh]
	 SCS Correlation Energy    =      -2.3893445717703661 [Eh]
	 SCS Total Energy          =    -581.0191265401290366 [Eh]
	-----------------------------------------------------------

  Dipole Moment: [D]
     X:    -0.4297      Y:    -6.7584      Z:    -0.8517     Total:     6.8254

*** Psi4 exiting successfully. Buy a developer a beer!
