                               Psi4 1.3.2 release

  ==> Input File <==

--------------------------------------------------------------------------
#psi4
#
memory 32 gb

molecule  {
0 1
  O       -1.4697740     2.5644010     0.0803940
  N        1.9080740    -0.5785413    -0.0554971
  N       -1.9102790     0.3061000     0.0485010
  N       -0.3427170    -1.4672350    -0.0387560
  N        1.5166440     1.6409000    -0.0105650
  N       -2.6294290    -1.9169300     0.1110730
  C        0.5576980    -0.4369160    -0.0295360
  C        0.3337570     0.9396730    -0.0094060
  C       -1.0221650     1.4237120     0.0351730
  C        2.4390620     0.6894910    -0.0699270
  C       -1.5730580    -1.0260450     0.0187980
  C        2.6353690    -1.8453210    -0.0655260
  H        3.5077397     0.8684147    -0.0866390
  H        2.3729340    -2.4304260     0.8177420
  H        2.3794720    -2.4140780    -0.9605130
  H        3.7041390    -1.6305860    -0.0592400
  H       -2.8879820     0.5691470     0.1693100
  H       -2.3258040    -2.8676930    -0.0642460
  H       -3.4596940    -1.6726380    -0.4173570
units angstrom
no_reorient  #important for SAPT in psi4, default
symmetry c1  #important for SAPT in psi4, default
}

set PROPERTIES_ORIGIN ["COM"]
properties('MP2/aug-cc-pvtz', properties = ['dipole'])
--------------------------------------------------------------------------

    Molecular point group: c1
  Charge       = 0
  Multiplicity = 1
  Basis Set: AUG-CC-PVTZ
    Blend: AUG-CC-PVTZ
  Basis Set: (AUG-CC-PVTZ AUX)
    Blend: AUG-CC-PVTZ-JKFIT

    Orbital Energies [Eh]
    ---------------------

    Doubly Occupied:

       1A    -20.520407     2A    -15.633140     3A    -15.628897
       4A    -15.610587     5A    -15.570520     6A    -15.559532
       7A    -11.395920     8A    -11.363745     9A    -11.318026
      10A    -11.306352    11A    -11.290408    12A    -11.245934
      13A     -1.390721    14A     -1.361751    15A     -1.334017
      16A     -1.218809    17A     -1.216173    18A     -1.189335
      19A     -1.029996    20A     -0.986140    21A     -0.901678
      22A     -0.882077    23A     -0.807824    24A     -0.766864
      25A     -0.741398    26A     -0.729473    27A     -0.692010
      28A     -0.671412    29A     -0.647866    30A     -0.642429
      31A     -0.626179    32A     -0.609396    33A     -0.593381
      34A     -0.580650    35A     -0.561807    36A     -0.541713
      37A     -0.493085    38A     -0.459083    39A     -0.439603
      40A     -0.429067    41A     -0.428582    42A     -0.392726
      43A     -0.298353

  @DF-RHF Final Energy:  -578.63096036115485

   => Energetics <=

    Nuclear Repulsion Energy =            693.6716989059744947
    One-Electron Energy =               -2164.3911884987064695
    Two-Electron Energy =                 892.0885292315770130
    Total Energy =                       -578.6309603611548482
  Basis Set: (AUG-CC-PVTZ AUX)
    Blend: AUG-CC-PVTZ-RI
    Molecular point group: c1

    Geometry (in Angstrom), charge = 0, multiplicity = 1:

       Center              X                  Y                   Z               Mass
    ------------   -----------------  -----------------  -----------------  -----------------
         O           -1.468824209141     2.563955041312     0.080382412524    15.994914619570
         N            1.909023790859    -0.578987258688    -0.055508687476    14.003074004430
         N           -1.909329209141     0.305654041312     0.048489412524    14.003074004430
         N           -0.341767209141    -1.467680958688    -0.038767587476    14.003074004430
         N            1.517593790859     1.640454041312    -0.010576587476    14.003074004430
         N           -2.628479209141    -1.917375958688     0.111061412524    14.003074004430
         C            0.558647790859    -0.437361958688    -0.029547587476    12.000000000000
         C            0.334706790859     0.939227041312    -0.009417587476    12.000000000000
         C           -1.021215209141     1.423266041312     0.035161412524    12.000000000000
         C            2.440011790859     0.689045041312    -0.069938587476    12.000000000000
         C           -1.572108209141    -1.026490958688     0.018786412524    12.000000000000
         C            2.636318790859    -1.845766958688    -0.065537587476    12.000000000000
         H            3.508689490859     0.867968741312    -0.086650587476     1.007825032230
         H            2.373883790859    -2.430871958688     0.817730412524     1.007825032230
         H            2.380421790859    -2.414523958688    -0.960524587476     1.007825032230
         H            3.705088790859    -1.631031958688    -0.059251587476     1.007825032230
         H           -2.887032209141     0.568701041312     0.169298412524     1.007825032230
         H           -2.324854209141    -2.868138958688    -0.064257587476     1.007825032230
         H           -3.458744209141    -1.673083958688    -0.417368587476     1.007825032230

  Basis Set: AUG-CC-PVTZ
    Blend: AUG-CC-PVTZ
  Basis Set: (AUG-CC-PVTZ AUX)
    Blend: AUG-CC-PVTZ-JKFIT
	 Reference Energy          =    -578.6309603611548482 [Eh]
	 Singles Energy            =      -0.0000000000000000 [Eh]
	 Same-Spin Energy          =      -0.6159853537086948 [Eh]
	 Opposite-Spin Energy      =      -1.8195982716060279 [Eh]
	 Correlation Energy        =      -2.4355836253147229 [Eh]
	 Total Energy              =    -581.0665439864695827 [Eh]

	 ================> DF-SCS-MP2 Energies <==================
	-----------------------------------------------------------
	 SCS Same-Spin Scale       =       0.3333333333333333 [-]
	 SCS Opposite-Spin Scale   =       1.2000000000000000 [-]
	 SCS Same-Spin Energy      =      -0.2053284512362316 [Eh]
	 SCS Opposite-Spin Energy  =      -2.1835179259272333 [Eh]
	 SCS Correlation Energy    =      -2.3888463771634649 [Eh]
	 SCS Total Energy          =    -581.0198067383182661 [Eh]
	-----------------------------------------------------------

  Dipole Moment: [D]
     X:     0.0236      Y:    -6.8097      Z:    -0.9385     Total:     6.8741

*** Psi4 exiting successfully. Buy a developer a beer!
