                               Psi4 1.3.2 release

  ==> Input File <==

--------------------------------------------------------------------------
#psi4
#
memory 32 gb

molecule  {
0 1
  O       -1.4697740     2.5644010     0.0803940
  N        1.9191590    -0.5831280    -0.0556370
  N       -1.9102790     0.3061000     0.0485010
  N       -0.3427170    -1.4672350    -0.0387560
  N        1.5166440     1.6409000    -0.0105650
  N       -2.6294290    -1.9169300     0.1110730
  C        0.5576980    -0.4369160    -0.0295360
  C        0.3337570     0.9396730    -0.0094060
  C       -1.0221650     1.4237120     0.0351730
  C        2.4390620     0.6894910    -0.0699270
  C       -1.7611376    -0.9586012     0.0275962
  C        2.6353690    -1.8453210    -0.0655260
  H        3.5092610     0.8590810    -0.0866130
  H        2.3729340    -2.4304260     0.8177420
  H        2.3794720    -2.4140780    -0.9605130
  H        3.7041390    -1.6305860    -0.0592400
  H       -2.8879820     0.5691470     0.1693100
  H       -2.3258040    -2.8676930    -0.0642460
  H       -3.4596940    -1.6726380    -0.4173570
units angstrom
no_reorient  #important for SAPT in psi4, default
symmetry c1  #important for SAPT in psi4, default
}

set PROPERTIES_ORIGIN ["COM"]
properties('MP2/aug-cc-pvtz', properties = ['dipole'])
--------------------------------------------------------------------------

    Molecular point group: c1
  Charge       = 0
  Multiplicity = 1
  Basis Set: AUG-CC-PVTZ
    Blend: AUG-CC-PVTZ
  Basis Set: (AUG-CC-PVTZ AUX)
    Blend: AUG-CC-PVTZ-JKFIT

    Orbital Energies [Eh]
    ---------------------

    Doubly Occupied:

       1A    -20.523033     2A    -15.648711     3A    -15.633359
       4A    -15.619514     5A    -15.555057     6A    -15.550205
       7A    -11.406285     8A    -11.368893     9A    -11.309403
      10A    -11.299280    11A    -11.280603    12A    -11.233195
      13A     -1.404611    14A     -1.355985    15A     -1.348784
      16A     -1.265473    17A     -1.192143    18A     -1.159824
      19A     -1.017961    20A     -0.978961    21A     -0.914899
      22A     -0.884745    23A     -0.808842    24A     -0.776246
      25A     -0.762015    26A     -0.739679    27A     -0.703110
      28A     -0.667006    29A     -0.652216    30A     -0.643344
      31A     -0.608815    32A     -0.598985    33A     -0.587321
      34A     -0.570065    35A     -0.557739    36A     -0.538369
      37A     -0.472076    38A     -0.464640    39A     -0.443591
      40A     -0.427248    41A     -0.412852    42A     -0.383779
      43A     -0.275274

  @DF-RHF Final Energy:  -578.57833189422820

   => Energetics <=

    Nuclear Repulsion Energy =            692.3010773347058375
    One-Electron Energy =               -2161.6705443470532373
    Two-Electron Energy =                 890.7911351181190867
    Total Energy =                       -578.5783318942281994
  Basis Set: (AUG-CC-PVTZ AUX)
    Blend: AUG-CC-PVTZ-RI
    Molecular point group: c1

    Geometry (in Angstrom), charge = 0, multiplicity = 1:

       Center              X                  Y                   Z               Mass
    ------------   -----------------  -----------------  -----------------  -----------------
         O           -1.456100753783     2.559498065593     0.079754505119    15.994914619570
         N            1.932832246217    -0.588030934407    -0.056276494881    14.003074004430
         N           -1.896605753783     0.301197065593     0.047861505119    14.003074004430
         N           -0.329043753783    -1.472137934407    -0.039395494881    14.003074004430
         N            1.530317246217     1.635997065593    -0.011204494881    14.003074004430
         N           -2.615755753783    -1.921832934407     0.110433505119    14.003074004430
         C            0.571371246217    -0.441818934407    -0.030175494881    12.000000000000
         C            0.347430246217     0.934770065593    -0.010045494881    12.000000000000
         C           -1.008491753783     1.418809065593     0.034533505119    12.000000000000
         C            2.452735246217     0.684588065593    -0.070566494881    12.000000000000
         C           -1.747464353783    -0.963504134407     0.026956705119    12.000000000000
         C            2.649042246217    -1.850223934407    -0.066165494881    12.000000000000
         H            3.522934246217     0.854178065593    -0.087252494881     1.007825032230
         H            2.386607246217    -2.435328934407     0.817102505119     1.007825032230
         H            2.393145246217    -2.418980934407    -0.961152494881     1.007825032230
         H            3.717812246217    -1.635488934407    -0.059879494881     1.007825032230
         H           -2.874308753783     0.564244065593     0.168670505119     1.007825032230
         H           -2.312130753783    -2.872595934407    -0.064885494881     1.007825032230
         H           -3.446020753783    -1.677540934407    -0.417996494881     1.007825032230

  Basis Set: AUG-CC-PVTZ
    Blend: AUG-CC-PVTZ
  Basis Set: (AUG-CC-PVTZ AUX)
    Blend: AUG-CC-PVTZ-JKFIT
	 Reference Energy          =    -578.5783318942281994 [Eh]
	 Singles Energy            =      -0.0000000000000000 [Eh]
	 Same-Spin Energy          =      -0.6182190434422740 [Eh]
	 Opposite-Spin Energy      =      -1.8232614302429646 [Eh]
	 Correlation Energy        =      -2.4414804736852385 [Eh]
	 Total Energy              =    -581.0198123679134596 [Eh]

	 ================> DF-SCS-MP2 Energies <==================
	-----------------------------------------------------------
	 SCS Same-Spin Scale       =       0.3333333333333333 [-]
	 SCS Opposite-Spin Scale   =       1.2000000000000000 [-]
	 SCS Same-Spin Energy      =      -0.2060730144807580 [Eh]
	 SCS Opposite-Spin Energy  =      -2.1879137162915576 [Eh]
	 SCS Correlation Energy    =      -2.3939867307723155 [Eh]
	 SCS Total Energy          =    -580.9723186250005256 [Eh]
	-----------------------------------------------------------

  Dipole Moment: [D]
     X:    -1.4915      Y:    -6.9548      Z:    -0.8588     Total:     7.1646

*** Psi4 exiting successfully. Buy a developer a beer!
