                               Psi4 1.4a3.dev225

  ==> Input File <==

--------------------------------------------------------------------------
#psi4
#
memory 32 gb

molecule  {
0 1
  O        1.6617960     2.5152110     0.0229320
  N       -1.9329240    -0.4005880    -0.0147920
  N        1.9545050     0.2323110     0.0113410
  N        0.2669280    -1.4301930    -0.0208730
  N       -1.3834780     1.7915450    -0.0193170
  N        2.5221760    -2.0364130     0.0734370
  C       -0.5634760    -0.3442740    -0.0026930
  C       -0.2488450     1.0144850    -0.0147620
  C        1.1380320     1.4076430     0.0031510
  C       -2.3683130     0.9036150    -0.0164120
  C        1.5275980    -1.0721200    -0.0057920
  C       -2.7322540    -1.6127190     0.0339130
  H       -3.4442331     1.1489554    -0.0230157
  H       -2.2735910    -2.3629350    -0.6109560
  H       -2.7853950    -1.9995380     1.0543320
  H       -3.7366260    -1.3828770    -0.3245450
  H        2.9468270     0.4301980     0.1174830
  H        2.1372730    -2.9631930    -0.0801050
  H        3.3349710    -1.8642740    -0.5097710
units angstrom
no_reorient  #important for SAPT in psi4, default
symmetry c1  #important for SAPT in psi4, default
}

set PROPERTIES_ORIGIN ["COM"]
properties('MP2/aug-cc-pvtz', properties = ['dipole'])
--------------------------------------------------------------------------

    Molecular point group: c1
  Charge       = 0
  Multiplicity = 1
  Basis Set: AUG-CC-PVTZ
    Blend: AUG-CC-PVTZ
  Basis Set: (AUG-CC-PVTZ AUX)
    Blend: AUG-CC-PVTZ-JKFIT

    Orbital Energies [Eh]
    ---------------------

    Doubly Occupied:

       1A    -20.521478     2A    -15.632967     3A    -15.629479
       4A    -15.610779     5A    -15.571169     6A    -15.560104
       7A    -11.396127     8A    -11.365015     9A    -11.319745
      10A    -11.309262    11A    -11.289132    12A    -11.247401
      13A     -1.390895    14A     -1.360704    15A     -1.333872
      16A     -1.218787    17A     -1.216049    18A     -1.190490
      19A     -1.028792    20A     -0.986014    21A     -0.900584
      22A     -0.881845    23A     -0.806022    24A     -0.766557
      25A     -0.741403    26A     -0.727468    27A     -0.691008
      28A     -0.670692    29A     -0.649424    30A     -0.641496
      31A     -0.625375    32A     -0.610800    33A     -0.592186
      34A     -0.578251    35A     -0.561231    36A     -0.541620
      37A     -0.493181    38A     -0.460418    39A     -0.440145
      40A     -0.429771    41A     -0.429121    42A     -0.392935
      43A     -0.298618

  @DF-RHF Final Energy:  -578.62990965853965

   => Energetics <=

    Nuclear Repulsion Energy =            693.0554730974836275
    One-Electron Energy =               -2163.1539416170639925
    Two-Electron Energy =                 891.4685588610407194
    Total Energy =                       -578.6299096585396455
  Basis Set: (AUG-CC-PVTZ AUX)
    Blend: AUG-CC-PVTZ-RI
    Molecular point group: c1

    Geometry (in Angstrom), charge = 0, multiplicity = 1:

       Center              X                  Y                   Z               Mass
    ------------   -----------------  -----------------  -----------------  -----------------
         O            1.639090997510     2.461209823339     0.020670064356    15.994914619570
         N           -1.955629002490    -0.454589176661    -0.017053935644    14.003074004430
         N            1.931799997510     0.178309823339     0.009079064356    14.003074004430
         N            0.244222997510    -1.484194176661    -0.023134935644    14.003074004430
         N           -1.406183002490     1.737543823339    -0.021578935644    14.003074004430
         N            2.499470997510    -2.090414176661     0.071175064356    14.003074004430
         C           -0.586181002490    -0.398275176661    -0.004954935644    12.000000000000
         C           -0.271550002490     0.960483823339    -0.017023935644    12.000000000000
         C            1.115326997510     1.353641823339     0.000889064356    12.000000000000
         C           -2.391018002490     0.849613823339    -0.018673935644    12.000000000000
         C            1.504892997510    -1.126121176661    -0.008053935644    12.000000000000
         C           -2.754959002490    -1.666720176661     0.031651064356    12.000000000000
         H           -3.466938102490     1.094954223339    -0.025277635644     1.007825032230
         H           -2.296296002490    -2.416936176661    -0.613217935644     1.007825032230
         H           -2.808100002490    -2.053539176661     1.052070064356     1.007825032230
         H           -3.759331002490    -1.436878176661    -0.326806935644     1.007825032230
         H            2.924121997510     0.376196823339     0.115221064356     1.007825032230
         H            2.114567997510    -3.017194176661    -0.082366935644     1.007825032230
         H            3.312265997510    -1.918275176661    -0.512032935644     1.007825032230

  Basis Set: AUG-CC-PVTZ
    Blend: AUG-CC-PVTZ
  Basis Set: (AUG-CC-PVTZ AUX)
    Blend: AUG-CC-PVTZ-JKFIT
	 Reference Energy          =    -578.6299096585396455 [Eh]
	 Singles Energy            =      -0.0000000000000000 [Eh]
	 Same-Spin Energy          =      -0.6161314967578480 [Eh]
	 Opposite-Spin Energy      =      -1.8199805210740381 [Eh]
	 Correlation Energy        =      -2.4361120178318858 [Eh]
	 Total Energy              =    -581.0660216763715198 [Eh]

	 ================> DF-SCS-MP2 Energies <==================
	-----------------------------------------------------------
	 SCS Same-Spin Scale       =       0.3333333333333333 [-]
	 SCS Opposite-Spin Scale   =       1.2000000000000000 [-]
	 SCS Same-Spin Energy      =      -0.2053771655859493 [Eh]
	 SCS Opposite-Spin Energy  =      -2.1839766252888455 [Eh]
	 SCS Correlation Energy    =      -2.3893537908747948 [Eh]
	 SCS Total Energy          =    -581.0192634494144386 [Eh]
	-----------------------------------------------------------

  Dipole Moment: [D]
     X:    -0.5233      Y:    -6.7463      Z:    -0.8510     Total:     6.8199

*** Psi4 exiting successfully. Buy a developer a beer!
