                               Psi4 1.3.2 release

  ==> Input File <==

--------------------------------------------------------------------------
#psi4
#
memory 32 gb

molecule  {
0 1
  O       -1.4697740     2.5644010     0.0803940
  N        1.9191590    -0.5831280    -0.0556370
  N       -1.9102790     0.3061000     0.0485010
  N       -0.3427170    -1.4672350    -0.0387560
  N        1.5166440     1.6409000    -0.0105650
  N       -2.6294290    -1.9169300     0.1110730
  C        0.5576980    -0.4369160    -0.0295360
  C        0.3337570     0.9396730    -0.0094060
  C       -1.0221650     1.4237120     0.0351730
  C        2.4390620     0.6894910    -0.0699270
  C       -1.5730580    -1.0260450     0.0187980
  C        2.6353690    -1.8453210    -0.0655260
  H        3.5092610     0.8590810    -0.0866130
  H        2.3729340    -2.4304260     0.8177420
  H        2.3794720    -2.4140780    -0.9605130
  H        3.7041390    -1.6305860    -0.0592400
  H       -2.8879820     0.5691470     0.1693100
  H       -2.3123721    -2.8653149    -0.0529888
  H       -3.4593284    -1.6564728    -0.4101619
units angstrom
no_reorient  #important for SAPT in psi4, default
symmetry c1  #important for SAPT in psi4, default
}

set PROPERTIES_ORIGIN ["COM"]
properties('MP2/aug-cc-pvtz', properties = ['dipole'])
--------------------------------------------------------------------------

    Molecular point group: c1
  Charge       = 0
  Multiplicity = 1
  Basis Set: AUG-CC-PVTZ
    Blend: AUG-CC-PVTZ
  Basis Set: (AUG-CC-PVTZ AUX)
    Blend: AUG-CC-PVTZ-JKFIT

    Orbital Energies [Eh]
    ---------------------

    Doubly Occupied:

       1A    -20.520885     2A    -15.632829     3A    -15.629253
       4A    -15.610808     5A    -15.570730     6A    -15.559554
       7A    -11.395713     8A    -11.364253     9A    -11.319125
      10A    -11.307209    11A    -11.289375    12A    -11.246866
      13A     -1.390688    14A     -1.360543    15A     -1.334116
      16A     -1.219060    17A     -1.216188    18A     -1.190626
      19A     -1.029233    20A     -0.986446    21A     -0.901679
      22A     -0.881484    23A     -0.808254    24A     -0.767086
      25A     -0.741426    26A     -0.727811    27A     -0.694498
      28A     -0.671199    29A     -0.649707    30A     -0.641806
      31A     -0.626666    32A     -0.610445    33A     -0.593667
      34A     -0.578498    35A     -0.561032    36A     -0.541584
      37A     -0.493696    38A     -0.458916    39A     -0.439904
      40A     -0.429336    41A     -0.428811    42A     -0.392696
      43A     -0.298300

  @DF-RHF Final Energy:  -578.63067427872227

   => Energetics <=

    Nuclear Repulsion Energy =            693.5022089153608249
    One-Electron Energy =               -2164.0417540529133476
    Two-Electron Energy =                 891.9088708588302552
    Total Energy =                       -578.6306742787222674
  Basis Set: (AUG-CC-PVTZ AUX)
    Blend: AUG-CC-PVTZ-RI
    Molecular point group: c1

    Geometry (in Angstrom), charge = 0, multiplicity = 1:

       Center              X                  Y                   Z               Mass
    ------------   -----------------  -----------------  -----------------  -----------------
         O           -1.469858121137     2.564287917538     0.080281459219    15.994914619570
         N            1.919074878863    -0.583241082462    -0.055749540781    14.003074004430
         N           -1.910363121137     0.305986917538     0.048388459219    14.003074004430
         N           -0.342801121137    -1.467348082462    -0.038868540781    14.003074004430
         N            1.516559878863     1.640786917538    -0.010677540781    14.003074004430
         N           -2.629513121137    -1.917043082462     0.110960459219    14.003074004430
         C            0.557613878863    -0.437029082462    -0.029648540781    12.000000000000
         C            0.333672878863     0.939559917538    -0.009518540781    12.000000000000
         C           -1.022249121137     1.423598917538     0.035060459219    12.000000000000
         C            2.438977878863     0.689377917538    -0.070039540781    12.000000000000
         C           -1.573142121137    -1.026158082462     0.018685459219    12.000000000000
         C            2.635284878863    -1.845434082462    -0.065638540781    12.000000000000
         H            3.509176878863     0.858967917538    -0.086725540781     1.007825032230
         H            2.372849878863    -2.430539082462     0.817629459219     1.007825032230
         H            2.379387878863    -2.414191082462    -0.960625540781     1.007825032230
         H            3.704054878863    -1.630699082462    -0.059352540781     1.007825032230
         H           -2.888066121137     0.569033917538     0.169197459219     1.007825032230
         H           -2.312456221137    -2.865427982462    -0.053101340781     1.007825032230
         H           -3.459412521137    -1.656585882462    -0.410274440781     1.007825032230

  Basis Set: AUG-CC-PVTZ
    Blend: AUG-CC-PVTZ
  Basis Set: (AUG-CC-PVTZ AUX)
    Blend: AUG-CC-PVTZ-JKFIT
	 Reference Energy          =    -578.6306742787222674 [Eh]
	 Singles Energy            =      -0.0000000000000000 [Eh]
	 Same-Spin Energy          =      -0.6160865471424761 [Eh]
	 Opposite-Spin Energy      =      -1.8198122682418749 [Eh]
	 Correlation Energy        =      -2.4358988153843510 [Eh]
	 Total Energy              =    -581.0665730941066158 [Eh]

	 ================> DF-SCS-MP2 Energies <==================
	-----------------------------------------------------------
	 SCS Same-Spin Scale       =       0.3333333333333333 [-]
	 SCS Opposite-Spin Scale   =       1.2000000000000000 [-]
	 SCS Same-Spin Energy      =      -0.2053621823808254 [Eh]
	 SCS Opposite-Spin Energy  =      -2.1837747218902499 [Eh]
	 SCS Correlation Energy    =      -2.3891369042710755 [Eh]
	 SCS Total Energy          =    -581.0198111829932941 [Eh]
	-----------------------------------------------------------

  Dipole Moment: [D]
     X:    -0.0167      Y:    -6.7844      Z:    -0.9147     Total:     6.8458

*** Psi4 exiting successfully. Buy a developer a beer!
