                               Psi4 1.3.2 release

  ==> Input File <==

--------------------------------------------------------------------------
#psi4
#
memory 32 gb

molecule  {
0 1
  O       -1.4697740     2.5644010     0.0803940
  N        1.8975377    -0.5967558    -0.0119007
  N       -1.9102790     0.3061000     0.0485010
  N       -0.3427170    -1.4672350    -0.0387560
  N        1.5166440     1.6409000    -0.0105650
  N       -2.6294290    -1.9169300     0.1110730
  C        0.5576980    -0.4369160    -0.0295360
  C        0.3337570     0.9396730    -0.0094060
  C       -1.0221650     1.4237120     0.0351730
  C        2.4390620     0.6894910    -0.0699270
  C       -1.5730580    -1.0260450     0.0187980
  C        2.6353690    -1.8453210    -0.0655260
  H        3.5092610     0.8590810    -0.0866130
  H        2.3497543    -2.4022458     0.8287007
  H        2.3794720    -2.4140780    -0.9605130
  H        3.7041390    -1.6305860    -0.0592400
  H       -2.8879820     0.5691470     0.1693100
  H       -2.3258040    -2.8676930    -0.0642460
  H       -3.4596940    -1.6726380    -0.4173570
units angstrom
no_reorient  #important for SAPT in psi4, default
symmetry c1  #important for SAPT in psi4, default
}

set PROPERTIES_ORIGIN ["COM"]
properties('MP2/aug-cc-pvtz', properties = ['dipole'])
--------------------------------------------------------------------------

    Molecular point group: c1
  Charge       = 0
  Multiplicity = 1
  Basis Set: AUG-CC-PVTZ
    Blend: AUG-CC-PVTZ
  Basis Set: (AUG-CC-PVTZ AUX)
    Blend: AUG-CC-PVTZ-JKFIT

    Orbital Energies [Eh]
    ---------------------

    Doubly Occupied:

       1A    -20.520064     2A    -15.631934     3A    -15.628703
       4A    -15.610710     5A    -15.569970     6A    -15.562491
       7A    -11.396070     8A    -11.363621     9A    -11.318439
      10A    -11.307776    11A    -11.289183    12A    -11.245635
      13A     -1.390484    14A     -1.360632    15A     -1.333319
      16A     -1.218824    17A     -1.216993    18A     -1.190757
      19A     -1.030354    20A     -0.985868    21A     -0.898901
      22A     -0.882143    23A     -0.808140    24A     -0.767191
      25A     -0.740564    26A     -0.729501    27A     -0.691846
      28A     -0.672272    29A     -0.646921    30A     -0.642076
      31A     -0.626096    32A     -0.608297    33A     -0.595381
      34A     -0.581645    35A     -0.560552    36A     -0.541690
      37A     -0.493183    38A     -0.458790    39A     -0.440095
      40A     -0.429872    41A     -0.428232    42A     -0.392123
      43A     -0.298702

  @DF-RHF Final Energy:  -578.62910316056207

   => Energetics <=

    Nuclear Repulsion Energy =            693.7414961064234831
    One-Electron Energy =               -2164.5291217073199732
    Two-Electron Energy =                 892.1585224403344228
    Total Energy =                       -578.6291031605620674
  Basis Set: (AUG-CC-PVTZ AUX)
    Blend: AUG-CC-PVTZ-RI
    Molecular point group: c1

    Geometry (in Angstrom), charge = 0, multiplicity = 1:

       Center              X                  Y                   Z               Mass
    ------------   -----------------  -----------------  -----------------  -----------------
         O           -1.467798138170     2.565385174480     0.076616901690    15.994914619570
         N            1.899513561830    -0.595771625520    -0.015677798310    14.003074004430
         N           -1.908303138170     0.307084174480     0.044723901690    14.003074004430
         N           -0.340741138170    -1.466250825520    -0.042533098310    14.003074004430
         N            1.518619861830     1.641884174480    -0.014342098310    14.003074004430
         N           -2.627453138170    -1.915945825520     0.107295901690    14.003074004430
         C            0.559673861830    -0.435931825520    -0.033313098310    12.000000000000
         C            0.335732861830     0.940657174480    -0.013183098310    12.000000000000
         C           -1.020189138170     1.424696174480     0.031395901690    12.000000000000
         C            2.441037861830     0.690475174480    -0.073704098310    12.000000000000
         C           -1.571082138170    -1.025060825520     0.015020901690    12.000000000000
         C            2.637344861830    -1.844336825520    -0.069303098310    12.000000000000
         H            3.511236861830     0.860065174480    -0.090390098310     1.007825032230
         H            2.351730161830    -2.401261625520     0.824923601690     1.007825032230
         H            2.381447861830    -2.413093825520    -0.964290098310     1.007825032230
         H            3.706114861830    -1.629601825520    -0.063017098310     1.007825032230
         H           -2.886006138170     0.570131174480     0.165532901690     1.007825032230
         H           -2.323828138170    -2.866708825520    -0.068023098310     1.007825032230
         H           -3.457718138170    -1.671653825520    -0.421134098310     1.007825032230

  Basis Set: AUG-CC-PVTZ
    Blend: AUG-CC-PVTZ
  Basis Set: (AUG-CC-PVTZ AUX)
    Blend: AUG-CC-PVTZ-JKFIT
	 Reference Energy          =    -578.6291031605620674 [Eh]
	 Singles Energy            =      -0.0000000000000000 [Eh]
	 Same-Spin Energy          =      -0.6160053439356943 [Eh]
	 Opposite-Spin Energy      =      -1.8198252341334142 [Eh]
	 Correlation Energy        =      -2.4358305780691083 [Eh]
	 Total Energy              =    -581.0649337386312254 [Eh]

	 ================> DF-SCS-MP2 Energies <==================
	-----------------------------------------------------------
	 SCS Same-Spin Scale       =       0.3333333333333333 [-]
	 SCS Opposite-Spin Scale   =       1.2000000000000000 [-]
	 SCS Same-Spin Energy      =      -0.2053351146452314 [Eh]
	 SCS Opposite-Spin Energy  =      -2.1837902809600971 [Eh]
	 SCS Correlation Energy    =      -2.3891253956053284 [Eh]
	 SCS Total Energy          =    -581.0182285561674007 [Eh]
	-----------------------------------------------------------

  Dipole Moment: [D]
     X:     0.0289      Y:    -6.7691      Z:    -0.9662     Total:     6.8378

*** Psi4 exiting successfully. Buy a developer a beer!
