                               Psi4 1.3.2 release

  ==> Input File <==

--------------------------------------------------------------------------
#psi4
#
memory 32 gb

molecule  {
0 1
  O       -1.4697740     2.5644010     0.0803940
  N        1.9082376    -0.5897507    -0.0337640
  N       -1.9102790     0.3061000     0.0485010
  N       -0.3427170    -1.4672350    -0.0387560
  N        1.5166440     1.6409000    -0.0105650
  N       -2.6294290    -1.9169300     0.1110730
  C        0.5576980    -0.4369160    -0.0295360
  C        0.3337570     0.9396730    -0.0094060
  C       -1.0221650     1.4237120     0.0351730
  C        2.4390620     0.6894910    -0.0699270
  C       -1.5730580    -1.0260450     0.0187980
  C        2.6353690    -1.8453210    -0.0655260
  H        3.5092610     0.8590810    -0.0866130
  H        2.3613024    -2.4164229     0.8233567
  H        2.3794720    -2.4140780    -0.9605130
  H        3.7041390    -1.6305860    -0.0592400
  H       -2.8879820     0.5691470     0.1693100
  H       -2.3258040    -2.8676930    -0.0642460
  H       -3.4596940    -1.6726380    -0.4173570
units angstrom
no_reorient  #important for SAPT in psi4, default
symmetry c1  #important for SAPT in psi4, default
}

set PROPERTIES_ORIGIN ["COM"]
properties('MP2/aug-cc-pvtz', properties = ['dipole'])
--------------------------------------------------------------------------

    Molecular point group: c1
  Charge       = 0
  Multiplicity = 1
  Basis Set: AUG-CC-PVTZ
    Blend: AUG-CC-PVTZ
  Basis Set: (AUG-CC-PVTZ AUX)
    Blend: AUG-CC-PVTZ-JKFIT

    Orbital Energies [Eh]
    ---------------------

    Doubly Occupied:

       1A    -20.520461     2A    -15.632411     3A    -15.628990
       4A    -15.610693     5A    -15.570411     6A    -15.561002
       7A    -11.396049     8A    -11.363929     9A    -11.318738
      10A    -11.307490    11A    -11.289299    12A    -11.246262
      13A     -1.390571    14A     -1.360624    15A     -1.333664
      16A     -1.218937    17A     -1.216567    18A     -1.190690
      19A     -1.029872    20A     -0.986182    21A     -0.900350
      22A     -0.882155    23A     -0.808009    24A     -0.766966
      25A     -0.740916    26A     -0.729424    27A     -0.691991
      28A     -0.671708    29A     -0.648138    30A     -0.642159
      31A     -0.626372    32A     -0.609356    33A     -0.594471
      34A     -0.580388    35A     -0.560855    36A     -0.541657
      37A     -0.493486    38A     -0.459008    39A     -0.439977
      40A     -0.429590    41A     -0.428505    42A     -0.392366
      43A     -0.298571

  @DF-RHF Final Energy:  -578.63038165083788

   => Energetics <=

    Nuclear Repulsion Energy =            693.6065776336827184
    One-Electron Energy =               -2164.2554019014178266
    Two-Electron Energy =                 892.0184426168972323
    Total Energy =                       -578.6303816508378759
  Basis Set: (AUG-CC-PVTZ AUX)
    Blend: AUG-CC-PVTZ-RI
    Molecular point group: c1

    Geometry (in Angstrom), charge = 0, multiplicity = 1:

       Center              X                  Y                   Z               Mass
    ------------   -----------------  -----------------  -----------------  -----------------
         O           -1.468776358248     2.564877466201     0.078504274009    15.994914619570
         N            1.909235241752    -0.589274233799    -0.035653725991    14.003074004430
         N           -1.909281358248     0.306576466201     0.046611274009    14.003074004430
         N           -0.341719358248    -1.466758533799    -0.040645725991    14.003074004430
         N            1.517641641752     1.641376466201    -0.012454725991    14.003074004430
         N           -2.628431358248    -1.916453533799     0.109183274009    14.003074004430
         C            0.558695641752    -0.436439533799    -0.031425725991    12.000000000000
         C            0.334754641752     0.940149466201    -0.011295725991    12.000000000000
         C           -1.021167358248     1.424188466201     0.033283274009    12.000000000000
         C            2.440059641752     0.689967466201    -0.071816725991    12.000000000000
         C           -1.572060358248    -1.025568533799     0.016908274009    12.000000000000
         C            2.636366641752    -1.844844533799    -0.067415725991    12.000000000000
         H            3.510258641752     0.859557466201    -0.088502725991     1.007825032230
         H            2.362300041752    -2.415946433799     0.821466974009     1.007825032230
         H            2.380469641752    -2.413601533799    -0.962402725991     1.007825032230
         H            3.705136641752    -1.630109533799    -0.061129725991     1.007825032230
         H           -2.886984358248     0.569623466201     0.167420274009     1.007825032230
         H           -2.324806358248    -2.867216533799    -0.066135725991     1.007825032230
         H           -3.458696358248    -1.672161533799    -0.419246725991     1.007825032230

  Basis Set: AUG-CC-PVTZ
    Blend: AUG-CC-PVTZ
  Basis Set: (AUG-CC-PVTZ AUX)
    Blend: AUG-CC-PVTZ-JKFIT
	 Reference Energy          =    -578.6303816508378759 [Eh]
	 Singles Energy            =      -0.0000000000000000 [Eh]
	 Same-Spin Energy          =      -0.6160300285242435 [Eh]
	 Opposite-Spin Energy      =      -1.8197893726780161 [Eh]
	 Correlation Energy        =      -2.4358194012022594 [Eh]
	 Total Energy              =    -581.0662010520401282 [Eh]

	 ================> DF-SCS-MP2 Energies <==================
	-----------------------------------------------------------
	 SCS Same-Spin Scale       =       0.3333333333333333 [-]
	 SCS Opposite-Spin Scale   =       1.2000000000000000 [-]
	 SCS Same-Spin Energy      =      -0.2053433428414145 [Eh]
	 SCS Opposite-Spin Energy  =      -2.1837472472136192 [Eh]
	 SCS Correlation Energy    =      -2.3890905900550337 [Eh]
	 SCS Total Energy          =    -581.0194722408929238 [Eh]
	-----------------------------------------------------------

  Dipole Moment: [D]
     X:     0.0096      Y:    -6.7816      Z:    -0.9518     Total:     6.8481

*** Psi4 exiting successfully. Buy a developer a beer!
