                               Psi4 1.3.2 release

  ==> Input File <==

--------------------------------------------------------------------------
#psi4
#
memory 32 gb

molecule  {
0 1
  O       -1.4697740     2.5644010     0.0803940
  N        1.9191590    -0.5831280    -0.0556370
  N       -1.9102790     0.3061000     0.0485010
  N       -0.3427170    -1.4672350    -0.0387560
  N        1.5166440     1.6409000    -0.0105650
  N       -2.6294290    -1.9169300     0.1110730
  C        0.5576980    -0.4369160    -0.0295360
  C        0.3337570     0.9396730    -0.0094060
  C       -1.0221650     1.4237120     0.0351730
  C        2.4390620     0.6894910    -0.0699270
  C       -1.5239893    -1.2198841     0.0144759
  C        2.6353690    -1.8453210    -0.0655260
  H        3.5092610     0.8590810    -0.0866130
  H        2.3729340    -2.4304260     0.8177420
  H        2.3794720    -2.4140780    -0.9605130
  H        3.7041390    -1.6305860    -0.0592400
  H       -2.8879820     0.5691470     0.1693100
  H       -2.3258040    -2.8676930    -0.0642460
  H       -3.4596940    -1.6726380    -0.4173570
units angstrom
no_reorient  #important for SAPT in psi4, default
symmetry c1  #important for SAPT in psi4, default
}

set PROPERTIES_ORIGIN ["COM"]
properties('MP2/aug-cc-pvtz', properties = ['dipole'])
--------------------------------------------------------------------------

    Molecular point group: c1
  Charge       = 0
  Multiplicity = 1
  Basis Set: AUG-CC-PVTZ
    Blend: AUG-CC-PVTZ
  Basis Set: (AUG-CC-PVTZ AUX)
    Blend: AUG-CC-PVTZ-JKFIT

    Orbital Energies [Eh]
    ---------------------

    Doubly Occupied:

       1A    -20.509356     2A    -15.637971     3A    -15.620078
       4A    -15.593022     5A    -15.575046     6A    -15.561109
       7A    -11.394086     8A    -11.350511     9A    -11.321728
      10A    -11.308129    11A    -11.292381    12A    -11.250422
      13A     -1.383716    14A     -1.356183    15A     -1.344699
      16A     -1.252659    17A     -1.201404    18A     -1.170662
      19A     -1.035915    20A     -0.986414    21A     -0.899838
      22A     -0.867823    23A     -0.807162    24A     -0.768512
      25A     -0.766979    26A     -0.712404    27A     -0.680571
      28A     -0.673398    29A     -0.657131    30A     -0.633989
      31A     -0.626862    32A     -0.603871    33A     -0.587904
      34A     -0.582209    35A     -0.569644    36A     -0.538821
      37A     -0.484365    38A     -0.471678    39A     -0.431863
      40A     -0.418228    41A     -0.404550    42A     -0.392776
      43A     -0.307240

  @DF-RHF Final Energy:  -578.58704579321216

   => Energetics <=

    Nuclear Repulsion Energy =            692.5560573953142693
    One-Electron Energy =               -2162.2195924001789535
    Two-Electron Energy =                 891.0764892116524152
    Total Energy =                       -578.5870457932121553
  Basis Set: (AUG-CC-PVTZ AUX)
    Blend: AUG-CC-PVTZ-RI
    Molecular point group: c1

    Geometry (in Angstrom), charge = 0, multiplicity = 1:

       Center              X                  Y                   Z               Mass
    ------------   -----------------  -----------------  -----------------  -----------------
         O           -1.473341104965     2.578492968587     0.080708332659    15.994914619570
         N            1.915591895035    -0.569036031413    -0.055322667341    14.003074004430
         N           -1.913846104965     0.320191968587     0.048815332659    14.003074004430
         N           -0.346284104965    -1.453143031413    -0.038441667341    14.003074004430
         N            1.513076895035     1.654991968587    -0.010250667341    14.003074004430
         N           -2.632996104965    -1.902838031413     0.111387332659    14.003074004430
         C            0.554130895035    -0.422824031413    -0.029221667341    12.000000000000
         C            0.330189895035     0.953764968587    -0.009091667341    12.000000000000
         C           -1.025732104965     1.437803968587     0.035487332659    12.000000000000
         C            2.435494895035     0.703582968587    -0.069612667341    12.000000000000
         C           -1.527556404965    -1.205792131413     0.014790232659    12.000000000000
         C            2.631801895035    -1.831229031413    -0.065211667341    12.000000000000
         H            3.505693895035     0.873172968587    -0.086298667341     1.007825032230
         H            2.369366895035    -2.416334031413     0.818056332659     1.007825032230
         H            2.375904895035    -2.399986031413    -0.960198667341     1.007825032230
         H            3.700571895035    -1.616494031413    -0.058925667341     1.007825032230
         H           -2.891549104965     0.583238968587     0.169624332659     1.007825032230
         H           -2.329371104965    -2.853601031413    -0.063931667341     1.007825032230
         H           -3.463261104965    -1.658546031413    -0.417042667341     1.007825032230

  Basis Set: AUG-CC-PVTZ
    Blend: AUG-CC-PVTZ
  Basis Set: (AUG-CC-PVTZ AUX)
    Blend: AUG-CC-PVTZ-JKFIT
	 Reference Energy          =    -578.5870457932121553 [Eh]
	 Singles Energy            =      -0.0000000000000000 [Eh]
	 Same-Spin Energy          =      -0.6166060509880369 [Eh]
	 Opposite-Spin Energy      =      -1.8216743685618646 [Eh]
	 Correlation Energy        =      -2.4382804195499013 [Eh]
	 Total Energy              =    -581.0253262127620246 [Eh]

	 ================> DF-SCS-MP2 Energies <==================
	-----------------------------------------------------------
	 SCS Same-Spin Scale       =       0.3333333333333333 [-]
	 SCS Opposite-Spin Scale   =       1.2000000000000000 [-]
	 SCS Same-Spin Energy      =      -0.2055353503293456 [Eh]
	 SCS Opposite-Spin Energy  =      -2.1860092422742374 [Eh]
	 SCS Correlation Energy    =      -2.3915445926035832 [Eh]
	 SCS Total Energy          =    -580.9785903858157781 [Eh]
	-----------------------------------------------------------

  Dipole Moment: [D]
     X:     0.2076      Y:    -7.8886      Z:    -0.9643     Total:     7.9500

*** Psi4 exiting successfully. Buy a developer a beer!
