                               Psi4 1.3.2 release

  ==> Input File <==

--------------------------------------------------------------------------
#psi4
#
memory 32 gb

molecule  {
0 1
  O       -1.4697740     2.5644010     0.0803940
  N        1.9191590    -0.5831280    -0.0556370
  N       -1.9102790     0.3061000     0.0485010
  N       -0.3427170    -1.4672350    -0.0387560
  N        1.5166440     1.6409000    -0.0105650
  N       -2.6294290    -1.9169300     0.1110730
  C        0.5696983    -0.4349051    -0.0298686
  C        0.3337570     0.9396730    -0.0094060
  C       -1.0178876     1.4355318     0.0351638
  C        2.4390620     0.6894910    -0.0699270
  C       -1.5730580    -1.0260450     0.0187980
  C        2.6353690    -1.8453210    -0.0655260
  H        3.5092610     0.8590810    -0.0866130
  H        2.3729340    -2.4304260     0.8177420
  H        2.3794720    -2.4140780    -0.9605130
  H        3.7041390    -1.6305860    -0.0592400
  H       -2.8879820     0.5691470     0.1693100
  H       -2.3258040    -2.8676930    -0.0642460
  H       -3.4596940    -1.6726380    -0.4173570
units angstrom
no_reorient  #important for SAPT in psi4, default
symmetry c1  #important for SAPT in psi4, default
}

set PROPERTIES_ORIGIN ["COM"]
properties('MP2/aug-cc-pvtz', properties = ['dipole'])
--------------------------------------------------------------------------

    Molecular point group: c1
  Charge       = 0
  Multiplicity = 1
  Basis Set: AUG-CC-PVTZ
    Blend: AUG-CC-PVTZ
  Basis Set: (AUG-CC-PVTZ AUX)
    Blend: AUG-CC-PVTZ-JKFIT

    Orbital Energies [Eh]
    ---------------------

    Doubly Occupied:

       1A    -20.523674     2A    -15.633845     3A    -15.626419
       4A    -15.609221     5A    -15.569087     6A    -15.559995
       7A    -11.394184     8A    -11.364978     9A    -11.318789
      10A    -11.306614    11A    -11.290080    12A    -11.246318
      13A     -1.393145    14A     -1.364698    15A     -1.333852
      16A     -1.216672    17A     -1.213453    18A     -1.190267
      19A     -1.029040    20A     -0.987975    21A     -0.901054
      22A     -0.878766    23A     -0.806403    24A     -0.767285
      25A     -0.740235    26A     -0.728041    27A     -0.691203
      28A     -0.671786    29A     -0.650867    30A     -0.640748
      31A     -0.625140    32A     -0.613832    33A     -0.593594
      34A     -0.580287    35A     -0.561672    36A     -0.543242
      37A     -0.491963    38A     -0.457683    39A     -0.440401
      40A     -0.430171    41A     -0.428570    42A     -0.393323
      43A     -0.298645

  @DF-RHF Final Energy:  -578.63116477270444

   => Energetics <=

    Nuclear Repulsion Energy =            693.3780194691382803
    One-Electron Energy =               -2163.8039398051928401
    Two-Electron Energy =                 891.7947555633501224
    Total Energy =                       -578.6311647727044374
  Basis Set: (AUG-CC-PVTZ AUX)
    Blend: AUG-CC-PVTZ-RI
    Molecular point group: c1

    Geometry (in Angstrom), charge = 0, multiplicity = 1:

       Center              X                  Y                   Z               Mass
    ------------   -----------------  -----------------  -----------------  -----------------
         O           -1.470957244926     2.563395663307     0.080418970391    15.994914619570
         N            1.917975755074    -0.584133336693    -0.055612029609    14.003074004430
         N           -1.911462244926     0.305094663307     0.048525970391    14.003074004430
         N           -0.343900244926    -1.468240336693    -0.038731029609    14.003074004430
         N            1.515460755074     1.639894663307    -0.010540029609    14.003074004430
         N           -2.630612244926    -1.917935336693     0.111097970391    14.003074004430
         C            0.568515055074    -0.435910436693    -0.029843629609    12.000000000000
         C            0.332573755074     0.938667663307    -0.009381029609    12.000000000000
         C           -1.019070844926     1.434526463307     0.035188770391    12.000000000000
         C            2.437878755074     0.688485663307    -0.069902029609    12.000000000000
         C           -1.574241244926    -1.027050336693     0.018822970391    12.000000000000
         C            2.634185755074    -1.846326336693    -0.065501029609    12.000000000000
         H            3.508077755074     0.858075663307    -0.086588029609     1.007825032230
         H            2.371750755074    -2.431431336693     0.817766970391     1.007825032230
         H            2.378288755074    -2.415083336693    -0.960488029609     1.007825032230
         H            3.702955755074    -1.631591336693    -0.059215029609     1.007825032230
         H           -2.889165244926     0.568141663307     0.169334970391     1.007825032230
         H           -2.326987244926    -2.868698336693    -0.064221029609     1.007825032230
         H           -3.460877244926    -1.673643336693    -0.417332029609     1.007825032230

  Basis Set: AUG-CC-PVTZ
    Blend: AUG-CC-PVTZ
  Basis Set: (AUG-CC-PVTZ AUX)
    Blend: AUG-CC-PVTZ-JKFIT
	 Reference Energy          =    -578.6311647727044374 [Eh]
	 Singles Energy            =      -0.0000000000000000 [Eh]
	 Same-Spin Energy          =      -0.6158002860329648 [Eh]
	 Opposite-Spin Energy      =      -1.8194168891832903 [Eh]
	 Correlation Energy        =      -2.4352171752162550 [Eh]
	 Total Energy              =    -581.0663819479207177 [Eh]

	 ================> DF-SCS-MP2 Energies <==================
	-----------------------------------------------------------
	 SCS Same-Spin Scale       =       0.3333333333333333 [-]
	 SCS Opposite-Spin Scale   =       1.2000000000000000 [-]
	 SCS Same-Spin Energy      =      -0.2052667620109883 [Eh]
	 SCS Opposite-Spin Energy  =      -2.1833002670199484 [Eh]
	 SCS Correlation Energy    =      -2.3885670290309369 [Eh]
	 SCS Total Energy          =    -581.0197318017353609 [Eh]
	-----------------------------------------------------------

  Dipole Moment: [D]
     X:     0.0439      Y:    -6.6698      Z:    -0.9359     Total:     6.7353

*** Psi4 exiting successfully. Buy a developer a beer!
