                               Psi4 1.3.2 release

  ==> Input File <==

--------------------------------------------------------------------------
#psi4
#
memory 32 gb

molecule  {
0 1
  O       -1.4697740     2.5644010     0.0803940
  N        1.9191590    -0.5831280    -0.0556370
  N       -1.9102790     0.3061000     0.0485010
  N       -0.3427170    -1.4672350    -0.0387560
  N        1.5166440     1.6409000    -0.0105650
  N       -2.6294290    -1.9169300     0.1110730
  C        0.5576980    -0.4369160    -0.0295360
  C        0.3337570     0.9396730    -0.0094060
  C       -1.0221650     1.4237120     0.0351730
  C        2.4390620     0.6894910    -0.0699270
  C       -1.5730580    -1.0260450     0.0187980
  C        2.6353690    -1.8453210    -0.0655260
  H        3.5092610     0.8590810    -0.0866130
  H        2.3367073    -2.4307378     0.8059502
  H        2.3794720    -2.4140780    -0.9605130
  H        3.6998674    -1.6117374    -0.0920179
  H       -2.8879820     0.5691470     0.1693100
  H       -2.3258040    -2.8676930    -0.0642460
  H       -3.4596940    -1.6726380    -0.4173570
units angstrom
no_reorient  #important for SAPT in psi4, default
symmetry c1  #important for SAPT in psi4, default
}

set PROPERTIES_ORIGIN ["COM"]
properties('MP2/aug-cc-pvtz', properties = ['dipole'])
--------------------------------------------------------------------------

    Molecular point group: c1
  Charge       = 0
  Multiplicity = 1
  Basis Set: AUG-CC-PVTZ
    Blend: AUG-CC-PVTZ
  Basis Set: (AUG-CC-PVTZ AUX)
    Blend: AUG-CC-PVTZ-JKFIT

    Orbital Energies [Eh]
    ---------------------

    Doubly Occupied:

       1A    -20.520865     2A    -15.632407     3A    -15.629331
       4A    -15.610752     5A    -15.570953     6A    -15.559475
       7A    -11.396117     8A    -11.364238     9A    -11.318900
      10A    -11.307177    11A    -11.289526    12A    -11.246884
      13A     -1.390665    14A     -1.360528    15A     -1.334026
      16A     -1.219125    17A     -1.216232    18A     -1.190758
      19A     -1.029399    20A     -0.986510    21A     -0.901717
      22A     -0.882219    23A     -0.807773    24A     -0.765930
      25A     -0.741445    26A     -0.729425    27A     -0.692171
      28A     -0.670602    29A     -0.649079    30A     -0.643588
      31A     -0.625412    32A     -0.610881    33A     -0.593713
      34A     -0.581743    35A     -0.559470    36A     -0.541358
      37A     -0.493752    38A     -0.459308    39A     -0.439909
      40A     -0.429323    41A     -0.428810    42A     -0.392200
      43A     -0.298364

  @DF-RHF Final Energy:  -578.63019614341783

   => Energetics <=

    Nuclear Repulsion Energy =            693.5503606372906233
    One-Electron Energy =               -2164.1369907413532019
    Two-Electron Energy =                 891.9564339606447447
    Total Energy =                       -578.6301961434178338
  Basis Set: (AUG-CC-PVTZ AUX)
    Blend: AUG-CC-PVTZ-RI
    Molecular point group: c1

    Geometry (in Angstrom), charge = 0, multiplicity = 1:

       Center              X                  Y                   Z               Mass
    ------------   -----------------  -----------------  -----------------  -----------------
         O           -1.469526611449     2.564287957224     0.080666247794    15.994914619570
         N            1.919406388551    -0.583241042776    -0.055364752206    14.003074004430
         N           -1.910031611449     0.305986957224     0.048773247794    14.003074004430
         N           -0.342469611449    -1.467348042776    -0.038483752206    14.003074004430
         N            1.516891388551     1.640786957224    -0.010292752206    14.003074004430
         N           -2.629181611449    -1.917043042776     0.111345247794    14.003074004430
         C            0.557945388551    -0.437029042776    -0.029263752206    12.000000000000
         C            0.334004388551     0.939559957224    -0.009133752206    12.000000000000
         C           -1.021917611449     1.423598957224     0.035445247794    12.000000000000
         C            2.439309388551     0.689377957224    -0.069654752206    12.000000000000
         C           -1.572810611449    -1.026158042776     0.019070247794    12.000000000000
         C            2.635616388551    -1.845434042776    -0.065253752206    12.000000000000
         H            3.509508388551     0.858967957224    -0.086340752206     1.007825032230
         H            2.336954688551    -2.430850842776     0.806222447794     1.007825032230
         H            2.379719388551    -2.414191042776    -0.960240752206     1.007825032230
         H            3.700114788551    -1.611850442776    -0.091745652206     1.007825032230
         H           -2.887734611449     0.569033957224     0.169582247794     1.007825032230
         H           -2.325556611449    -2.867806042776    -0.063973752206     1.007825032230
         H           -3.459446611449    -1.672751042776    -0.417084752206     1.007825032230

  Basis Set: AUG-CC-PVTZ
    Blend: AUG-CC-PVTZ
  Basis Set: (AUG-CC-PVTZ AUX)
    Blend: AUG-CC-PVTZ-JKFIT
	 Reference Energy          =    -578.6301961434178338 [Eh]
	 Singles Energy            =      -0.0000000000000000 [Eh]
	 Same-Spin Energy          =      -0.6161394282605608 [Eh]
	 Opposite-Spin Energy      =      -1.8199164041106668 [Eh]
	 Correlation Energy        =      -2.4360558323712276 [Eh]
	 Total Energy              =    -581.0662519757891005 [Eh]

	 ================> DF-SCS-MP2 Energies <==================
	-----------------------------------------------------------
	 SCS Same-Spin Scale       =       0.3333333333333333 [-]
	 SCS Opposite-Spin Scale   =       1.2000000000000000 [-]
	 SCS Same-Spin Energy      =      -0.2053798094201869 [Eh]
	 SCS Opposite-Spin Energy  =      -2.1838996849328001 [Eh]
	 SCS Correlation Energy    =      -2.3892794943529871 [Eh]
	 SCS Total Energy          =    -581.0194756377708245 [Eh]
	-----------------------------------------------------------

  Dipole Moment: [D]
     X:    -0.0282      Y:    -6.7915      Z:    -0.9604     Total:     6.8591

*** Psi4 exiting successfully. Buy a developer a beer!
