                               Psi4 1.3.2 release

  ==> Input File <==

--------------------------------------------------------------------------
#psi4
#
memory 32 gb

molecule  {
0 1
  O       -1.4697740     2.5644010     0.0803940
  N        1.9191590    -0.5831280    -0.0556370
  N       -1.9102790     0.3061000     0.0485010
  N       -0.3427170    -1.4672350    -0.0387560
  N        1.5166440     1.6409000    -0.0105650
  N       -2.6294290    -1.9169300     0.1110730
  C        0.5590248    -0.4250386    -0.0296004
  C        0.3337570     0.9396730    -0.0094060
  C       -1.0221650     1.4237120     0.0351730
  C        2.4390620     0.6894910    -0.0699270
  C       -1.5730580    -1.0260450     0.0187980
  C        2.6463539    -1.8390224    -0.0657608
  H        3.5092610     0.8590810    -0.0866130
  H        2.3729340    -2.4304260     0.8177420
  H        2.3794720    -2.4140780    -0.9605130
  H        3.7041390    -1.6305860    -0.0592400
  H       -2.8879820     0.5691470     0.1693100
  H       -2.3258040    -2.8676930    -0.0642460
  H       -3.4596940    -1.6726380    -0.4173570
units angstrom
no_reorient  #important for SAPT in psi4, default
symmetry c1  #important for SAPT in psi4, default
}

set PROPERTIES_ORIGIN ["COM"]
properties('MP2/aug-cc-pvtz', properties = ['dipole'])
--------------------------------------------------------------------------

    Molecular point group: c1
  Charge       = 0
  Multiplicity = 1
  Basis Set: AUG-CC-PVTZ
    Blend: AUG-CC-PVTZ
  Basis Set: (AUG-CC-PVTZ AUX)
    Blend: AUG-CC-PVTZ-JKFIT

    Orbital Energies [Eh]
    ---------------------

    Doubly Occupied:

       1A    -20.521904     2A    -15.632668     3A    -15.628958
       4A    -15.610134     5A    -15.570639     6A    -15.559164
       7A    -11.395134     8A    -11.365083     9A    -11.318256
      10A    -11.307297    11A    -11.289570    12A    -11.246580
      13A     -1.390917    14A     -1.361025    15A     -1.333657
      16A     -1.218891    17A     -1.214039    18A     -1.190301
      19A     -1.031101    20A     -0.986886    21A     -0.901199
      22A     -0.880916    23A     -0.807678    24A     -0.768194
      25A     -0.740748    26A     -0.728764    27A     -0.691862
      28A     -0.670213    29A     -0.650571    30A     -0.640852
      31A     -0.625637    32A     -0.610989    33A     -0.593973
      34A     -0.581723    35A     -0.560299    36A     -0.541072
      37A     -0.493321    38A     -0.458177    39A     -0.440155
      40A     -0.430002    41A     -0.428457    42A     -0.392428
      43A     -0.300432

  @DF-RHF Final Energy:  -578.63076351419591

   => Energetics <=

    Nuclear Repulsion Energy =            693.4710729777375491
    One-Electron Energy =               -2163.9839479141232914
    Two-Electron Energy =                 891.8821114221898370
    Total Energy =                       -578.6307635141959054
  Basis Set: (AUG-CC-PVTZ AUX)
    Blend: AUG-CC-PVTZ-RI
    Molecular point group: c1

    Geometry (in Angstrom), charge = 0, multiplicity = 1:

       Center              X                  Y                   Z               Mass
    ------------   -----------------  -----------------  -----------------  -----------------
         O           -1.470668922249     2.563079766047     0.080415873431    15.994914619570
         N            1.918264077751    -0.584449233953    -0.055615126569    14.003074004430
         N           -1.911173922249     0.304778766047     0.048522873431    14.003074004430
         N           -0.343611922249    -1.468556233953    -0.038734126569    14.003074004430
         N            1.515749077751     1.639578766047    -0.010543126569    14.003074004430
         N           -2.630323922249    -1.918251233953     0.111094873431    14.003074004430
         C            0.558129877751    -0.426359833953    -0.029578526569    12.000000000000
         C            0.332862077751     0.938351766047    -0.009384126569    12.000000000000
         C           -1.023059922249     1.422390766047     0.035194873431    12.000000000000
         C            2.438167077751     0.688169766047    -0.069905126569    12.000000000000
         C           -1.573952922249    -1.027366233953     0.018819873431    12.000000000000
         C            2.645458977751    -1.840343633953    -0.065738926569    12.000000000000
         H            3.508366077751     0.857759766047    -0.086591126569     1.007825032230
         H            2.372039077751    -2.431747233953     0.817763873431     1.007825032230
         H            2.378577077751    -2.415399233953    -0.960491126569     1.007825032230
         H            3.703244077751    -1.631907233953    -0.059218126569     1.007825032230
         H           -2.888876922249     0.567825766047     0.169331873431     1.007825032230
         H           -2.326698922249    -2.869014233953    -0.064224126569     1.007825032230
         H           -3.460588922249    -1.673959233953    -0.417335126569     1.007825032230

  Basis Set: AUG-CC-PVTZ
    Blend: AUG-CC-PVTZ
  Basis Set: (AUG-CC-PVTZ AUX)
    Blend: AUG-CC-PVTZ-JKFIT
	 Reference Energy          =    -578.6307635141959054 [Eh]
	 Singles Energy            =      -0.0000000000000000 [Eh]
	 Same-Spin Energy          =      -0.6158114085645687 [Eh]
	 Opposite-Spin Energy      =      -1.8196741700753902 [Eh]
	 Correlation Energy        =      -2.4354855786399590 [Eh]
	 Total Energy              =    -581.0662490928358466 [Eh]

	 ================> DF-SCS-MP2 Energies <==================
	-----------------------------------------------------------
	 SCS Same-Spin Scale       =       0.3333333333333333 [-]
	 SCS Opposite-Spin Scale   =       1.2000000000000000 [-]
	 SCS Same-Spin Energy      =      -0.2052704695215229 [Eh]
	 SCS Opposite-Spin Energy  =      -2.1836090040904681 [Eh]
	 SCS Correlation Energy    =      -2.3888794736119912 [Eh]
	 SCS Total Energy          =    -581.0196429878078561 [Eh]
	-----------------------------------------------------------

  Dipole Moment: [D]
     X:    -0.0012      Y:    -6.7589      Z:    -0.9372     Total:     6.8236

*** Psi4 exiting successfully. Buy a developer a beer!
