                               Psi4 1.3.2 release

  ==> Input File <==

--------------------------------------------------------------------------
#psi4
#
memory 32 gb

molecule  {
0 1
  O       -1.4697740     2.5644010     0.0803940
  N        1.9191590    -0.5831280    -0.0556370
  N       -1.9102790     0.3061000     0.0485010
  N       -0.3427170    -1.4672350    -0.0387560
  N        1.5166440     1.6409000    -0.0105650
  N       -2.6294290    -1.9169300     0.1110730
  C        0.5576980    -0.4369160    -0.0295360
  C        0.3337570     0.9396730    -0.0094060
  C       -1.0221650     1.4237120     0.0351730
  C        2.4390620     0.6894910    -0.0699270
  C       -1.5730580    -1.0260450     0.0187980
  C        2.6353690    -1.8453210    -0.0655260
  H        3.5092610     0.8590810    -0.0866130
  H        2.4278596    -2.4286220     0.8334079
  H        2.3794720    -2.4140780    -0.9605130
  H        3.7081037    -1.6593422    -0.0101000
  H       -2.8879820     0.5691470     0.1693100
  H       -2.3258040    -2.8676930    -0.0642460
  H       -3.4596940    -1.6726380    -0.4173570
units angstrom
no_reorient  #important for SAPT in psi4, default
symmetry c1  #important for SAPT in psi4, default
}

set PROPERTIES_ORIGIN ["COM"]
properties('MP2/aug-cc-pvtz', properties = ['dipole'])
--------------------------------------------------------------------------

    Molecular point group: c1
  Charge       = 0
  Multiplicity = 1
  Basis Set: AUG-CC-PVTZ
    Blend: AUG-CC-PVTZ
  Basis Set: (AUG-CC-PVTZ AUX)
    Blend: AUG-CC-PVTZ-JKFIT

    Orbital Energies [Eh]
    ---------------------

    Doubly Occupied:

       1A    -20.520904     2A    -15.633575     3A    -15.629259
       4A    -15.610601     5A    -15.570747     6A    -15.559754
       7A    -11.395951     8A    -11.364306     9A    -11.319447
      10A    -11.307396    11A    -11.289190    12A    -11.247052
      13A     -1.390685    14A     -1.360632    15A     -1.333982
      16A     -1.219015    17A     -1.216161    18A     -1.190512
      19A     -1.029452    20A     -0.986615    21A     -0.901509
      22A     -0.882138    23A     -0.808157    24A     -0.768257
      25A     -0.740851    26A     -0.729226    27A     -0.692209
      28A     -0.672335    29A     -0.650630    30A     -0.640266
      31A     -0.628292    32A     -0.609996    33A     -0.593697
      34A     -0.573772    35A     -0.561755    36A     -0.541597
      37A     -0.493639    38A     -0.459191    39A     -0.439942
      40A     -0.429309    41A     -0.428812    42A     -0.393413
      43A     -0.298444

  @DF-RHF Final Energy:  -578.62986636984101

   => Energetics <=

    Nuclear Repulsion Energy =            693.3115547553795750
    One-Electron Energy =               -2163.6574975963330871
    Two-Electron Energy =                 891.7160764711125012
    Total Energy =                       -578.6298663698410110
  Basis Set: (AUG-CC-PVTZ AUX)
    Blend: AUG-CC-PVTZ-RI
    Molecular point group: c1

    Geometry (in Angstrom), charge = 0, multiplicity = 1:

       Center              X                  Y                   Z               Mass
    ------------   -----------------  -----------------  -----------------  -----------------
         O           -1.470133440775     2.564565695911     0.079998441611    15.994914619570
         N            1.918799559225    -0.582963304089    -0.056032558389    14.003074004430
         N           -1.910638440775     0.306264695911     0.048105441611    14.003074004430
         N           -0.343076440775    -1.467070304089    -0.039151558389    14.003074004430
         N            1.516284559225     1.641064695911    -0.010960558389    14.003074004430
         N           -2.629788440775    -1.916765304089     0.110677441611    14.003074004430
         C            0.557338559225    -0.436751304089    -0.029931558389    12.000000000000
         C            0.333397559225     0.939837695911    -0.009801558389    12.000000000000
         C           -1.022524440775     1.423876695911     0.034777441611    12.000000000000
         C            2.438702559225     0.689655695911    -0.070322558389    12.000000000000
         C           -1.573417440775    -1.025880304089     0.018402441611    12.000000000000
         C            2.635009559225    -1.845156304089    -0.065921558389    12.000000000000
         H            3.508901559225     0.859245695911    -0.087008558389     1.007825032230
         H            2.427500159225    -2.428457304089     0.833012341611     1.007825032230
         H            2.379112559225    -2.413913304089    -0.960908558389     1.007825032230
         H            3.707744259225    -1.659177504089    -0.010495558389     1.007825032230
         H           -2.888341440775     0.569311695911     0.168914441611     1.007825032230
         H           -2.326163440775    -2.867528304089    -0.064641558389     1.007825032230
         H           -3.460053440775    -1.672473304089    -0.417752558389     1.007825032230

  Basis Set: AUG-CC-PVTZ
    Blend: AUG-CC-PVTZ
  Basis Set: (AUG-CC-PVTZ AUX)
    Blend: AUG-CC-PVTZ-JKFIT
	 Reference Energy          =    -578.6298663698410110 [Eh]
	 Singles Energy            =      -0.0000000000000000 [Eh]
	 Same-Spin Energy          =      -0.6160536040421101 [Eh]
	 Opposite-Spin Energy      =      -1.8197657576789754 [Eh]
	 Correlation Energy        =      -2.4358193617210855 [Eh]
	 Total Energy              =    -581.0656857315620982 [Eh]

	 ================> DF-SCS-MP2 Energies <==================
	-----------------------------------------------------------
	 SCS Same-Spin Scale       =       0.3333333333333333 [-]
	 SCS Opposite-Spin Scale   =       1.2000000000000000 [-]
	 SCS Same-Spin Energy      =      -0.2053512013473700 [Eh]
	 SCS Opposite-Spin Energy  =      -2.1837189092147704 [Eh]
	 SCS Correlation Energy    =      -2.3890701105621406 [Eh]
	 SCS Total Energy          =    -581.0189364804031129 [Eh]
	-----------------------------------------------------------

  Dipole Moment: [D]
     X:     0.0095      Y:    -6.7902      Z:    -0.9034     Total:     6.8501

*** Psi4 exiting successfully. Buy a developer a beer!
