                               Psi4 1.3.2 release

  ==> Input File <==

--------------------------------------------------------------------------
#psi4
#
memory 32 gb

molecule  {
0 1
  O       -1.4697740     2.5644010     0.0803940
  N        1.9191590    -0.5831280    -0.0556370
  N       -1.9102790     0.3061000     0.0485010
  N       -0.3427170    -1.4672350    -0.0387560
  N        1.5166440     1.6409000    -0.0105650
  N       -2.6294290    -1.9169300     0.1110730
  C        0.5576980    -0.4369160    -0.0295360
  C        0.3337570     0.9396730    -0.0094060
  C       -1.0221650     1.4237120     0.0351730
  C        2.4390620     0.6894910    -0.0699270
  C       -1.5730580    -1.0260450     0.0187980
  C        2.6353690    -1.8453210    -0.0655260
  H        3.5092610     0.8590810    -0.0866130
  H        2.3729340    -2.4304260     0.8177420
  H        2.3794720    -2.4140780    -0.9605130
  H        3.7041390    -1.6305860    -0.0592400
  H       -2.8879820     0.5691470     0.1693100
  H       -2.2958415    -2.9615169    -0.0815470
  H       -3.4596940    -1.6726380    -0.4173570
units angstrom
no_reorient  #important for SAPT in psi4, default
symmetry c1  #important for SAPT in psi4, default
}

set PROPERTIES_ORIGIN ["COM"]
properties('MP2/aug-cc-pvtz', properties = ['dipole'])
--------------------------------------------------------------------------

    Molecular point group: c1
  Charge       = 0
  Multiplicity = 1
  Basis Set: AUG-CC-PVTZ
    Blend: AUG-CC-PVTZ
  Basis Set: (AUG-CC-PVTZ AUX)
    Blend: AUG-CC-PVTZ-JKFIT

    Orbital Energies [Eh]
    ---------------------

    Doubly Occupied:

       1A    -20.520646     2A    -15.632582     3A    -15.629114
       4A    -15.618572     5A    -15.570177     6A    -15.559328
       7A    -11.395630     8A    -11.364039     9A    -11.318732
      10A    -11.306979    11A    -11.289277    12A    -11.246550
      13A     -1.390120    14A     -1.360243    15A     -1.331754
      16A     -1.216312    17A     -1.208398    18A     -1.190330
      19A     -1.027786    20A     -0.986185    21A     -0.900694
      22A     -0.878080    23A     -0.806842    24A     -0.765618
      25A     -0.740397    26A     -0.726175    27A     -0.675741
      28A     -0.668411    29A     -0.645697    30A     -0.641341
      31A     -0.625633    32A     -0.609646    33A     -0.593395
      34A     -0.578318    35A     -0.560361    36A     -0.540956
      37A     -0.493333    38A     -0.457440    39A     -0.439647
      40A     -0.429001    41A     -0.428368    42A     -0.392461
      43A     -0.297911

  @DF-RHF Final Energy:  -578.62069791635963

   => Energetics <=

    Nuclear Repulsion Energy =            692.9414043923461577
    One-Electron Energy =               -2163.0077652816053160
    Two-Electron Energy =                 891.4456629728995267
    Total Energy =                       -578.6206979163596316
  Basis Set: (AUG-CC-PVTZ AUX)
    Blend: AUG-CC-PVTZ-RI
    Molecular point group: c1

    Geometry (in Angstrom), charge = 0, multiplicity = 1:

       Center              X                  Y                   Z               Mass
    ------------   -----------------  -----------------  -----------------  -----------------
         O           -1.469956818533     2.564973989303     0.080499755391    15.994914619570
         N            1.918976181467    -0.582555010697    -0.055531244609    14.003074004430
         N           -1.910461818533     0.306672989303     0.048606755391    14.003074004430
         N           -0.342899818533    -1.466662010697    -0.038650244609    14.003074004430
         N            1.516461181467     1.641472989303    -0.010459244609    14.003074004430
         N           -2.629611818533    -1.916357010697     0.111178755391    14.003074004430
         C            0.557515181467    -0.436343010697    -0.029430244609    12.000000000000
         C            0.333574181467     0.940245989303    -0.009300244609    12.000000000000
         C           -1.022347818533     1.424284989303     0.035278755391    12.000000000000
         C            2.438879181467     0.690063989303    -0.069821244609    12.000000000000
         C           -1.573240818533    -1.025472010697     0.018903755391    12.000000000000
         C            2.635186181467    -1.844748010697    -0.065420244609    12.000000000000
         H            3.509078181467     0.859653989303    -0.086507244609     1.007825032230
         H            2.372751181467    -2.429853010697     0.817847755391     1.007825032230
         H            2.379289181467    -2.413505010697    -0.960407244609     1.007825032230
         H            3.703956181467    -1.630013010697    -0.059134244609     1.007825032230
         H           -2.888164818533     0.569719989303     0.169415755391     1.007825032230
         H           -2.296024318533    -2.960943910697    -0.081441244609     1.007825032230
         H           -3.459876818533    -1.672065010697    -0.417251244609     1.007825032230

  Basis Set: AUG-CC-PVTZ
    Blend: AUG-CC-PVTZ
  Basis Set: (AUG-CC-PVTZ AUX)
    Blend: AUG-CC-PVTZ-JKFIT
	 Reference Energy          =    -578.6206979163596316 [Eh]
	 Singles Energy            =      -0.0000000000000000 [Eh]
	 Same-Spin Energy          =      -0.6166983228506814 [Eh]
	 Opposite-Spin Energy      =      -1.8216167429445989 [Eh]
	 Correlation Energy        =      -2.4383150657952801 [Eh]
	 Total Energy              =    -581.0590129821549681 [Eh]

	 ================> DF-SCS-MP2 Energies <==================
	-----------------------------------------------------------
	 SCS Same-Spin Scale       =       0.3333333333333333 [-]
	 SCS Opposite-Spin Scale   =       1.2000000000000000 [-]
	 SCS Same-Spin Energy      =      -0.2055661076168938 [Eh]
	 SCS Opposite-Spin Energy  =      -2.1859400915335185 [Eh]
	 SCS Correlation Energy    =      -2.3915061991504123 [Eh]
	 SCS Total Energy          =    -581.0122041155100305 [Eh]
	-----------------------------------------------------------

  Dipole Moment: [D]
     X:    -0.0009      Y:    -6.8847      Z:    -0.9439     Total:     6.9491

*** Psi4 exiting successfully. Buy a developer a beer!
