                               Psi4 1.3.2 release

  ==> Input File <==

--------------------------------------------------------------------------
#psi4
#
memory 32 gb

molecule  {
0 1
  O       -1.4697740     2.5644010     0.0803940
  N        1.9191590    -0.5831280    -0.0556370
  N       -1.9102790     0.3061000     0.0485010
  N       -0.3427170    -1.4672350    -0.0387560
  N        1.5166440     1.6409000    -0.0105650
  N       -2.6294290    -1.9169300     0.1110730
  C        0.5576980    -0.4369160    -0.0295360
  C        0.3337570     0.9396730    -0.0094060
  C       -1.0221650     1.4237120     0.0351730
  C        2.4390620     0.6894910    -0.0699270
  C       -1.5730580    -1.0260450     0.0187980
  C        2.6353690    -1.8453210    -0.0655260
  H        3.5092610     0.8590810    -0.0866130
  H        2.3729340    -2.4304260     0.8177420
  H        2.3794720    -2.4140780    -0.9605130
  H        3.7041390    -1.6305860    -0.0592400
  H       -2.8879820     0.5691470     0.1693100
  H       -2.2990369    -2.8626479    -0.0416815
  H       -3.4587100    -1.6403869    -0.4028081
units angstrom
no_reorient  #important for SAPT in psi4, default
symmetry c1  #important for SAPT in psi4, default
}

set PROPERTIES_ORIGIN ["COM"]
properties('MP2/aug-cc-pvtz', properties = ['dipole'])
--------------------------------------------------------------------------

    Molecular point group: c1
  Charge       = 0
  Multiplicity = 1
  Basis Set: AUG-CC-PVTZ
    Blend: AUG-CC-PVTZ
  Basis Set: (AUG-CC-PVTZ AUX)
    Blend: AUG-CC-PVTZ-JKFIT

    Orbital Energies [Eh]
    ---------------------

    Doubly Occupied:

       1A    -20.520895     2A    -15.632792     3A    -15.629211
       4A    -15.610918     5A    -15.570598     6A    -15.559523
       7A    -11.395383     8A    -11.364245     9A    -11.319130
      10A    -11.307150    11A    -11.289371    12A    -11.246786
      13A     -1.390711    14A     -1.360524    15A     -1.334239
      16A     -1.219062    17A     -1.216185    18A     -1.190610
      19A     -1.029060    20A     -0.986427    21A     -0.901745
      22A     -0.880807    23A     -0.808641    24A     -0.767400
      25A     -0.741686    26A     -0.726306    27A     -0.696701
      28A     -0.671245    29A     -0.649766    30A     -0.641451
      31A     -0.626739    32A     -0.610426    33A     -0.593639
      34A     -0.578475    35A     -0.561028    36A     -0.541577
      37A     -0.493676    38A     -0.458572    39A     -0.439890
      40A     -0.429360    41A     -0.428811    42A     -0.392680
      43A     -0.298207

  @DF-RHF Final Energy:  -578.63038432425276

   => Energetics <=

    Nuclear Repulsion Energy =            693.5542315831767155
    One-Electron Energy =               -2164.1459345263278919
    Two-Electron Energy =                 891.9613186188984173
    Total Energy =                       -578.6303843242527591
  Basis Set: (AUG-CC-PVTZ AUX)
    Blend: AUG-CC-PVTZ-RI
    Molecular point group: c1

    Geometry (in Angstrom), charge = 0, multiplicity = 1:

       Center              X                  Y                   Z               Mass
    ------------   -----------------  -----------------  -----------------  -----------------
         O           -1.469943316558     2.564173419399     0.080167521577    15.994914619570
         N            1.918989683442    -0.583355580601    -0.055863478423    14.003074004430
         N           -1.910448316558     0.305872419399     0.048274521577    14.003074004430
         N           -0.342886316558    -1.467462580601    -0.038982478423    14.003074004430
         N            1.516474683442     1.640672419399    -0.010791478423    14.003074004430
         N           -2.629598316558    -1.917157580601     0.110846521577    14.003074004430
         C            0.557528683442    -0.437143580601    -0.029762478423    12.000000000000
         C            0.333587683442     0.939445419399    -0.009632478423    12.000000000000
         C           -1.022334316558     1.423484419399     0.034946521577    12.000000000000
         C            2.438892683442     0.689263419399    -0.070153478423    12.000000000000
         C           -1.573227316558    -1.026272580601     0.018571521577    12.000000000000
         C            2.635199683442    -1.845548580601    -0.065752478423    12.000000000000
         H            3.509091683442     0.858853419399    -0.086839478423     1.007825032230
         H            2.372764683442    -2.430653580601     0.817515521577     1.007825032230
         H            2.379302683442    -2.414305580601    -0.960739478423     1.007825032230
         H            3.703969683442    -1.630813580601    -0.059466478423     1.007825032230
         H           -2.888151316558     0.568919419399     0.169083521577     1.007825032230
         H           -2.299206216558    -2.862875480601    -0.041907978423     1.007825032230
         H           -3.458879316558    -1.640614480601    -0.403034578423     1.007825032230

  Basis Set: AUG-CC-PVTZ
    Blend: AUG-CC-PVTZ
  Basis Set: (AUG-CC-PVTZ AUX)
    Blend: AUG-CC-PVTZ-JKFIT
	 Reference Energy          =    -578.6303843242527591 [Eh]
	 Singles Energy            =      -0.0000000000000000 [Eh]
	 Same-Spin Energy          =      -0.6161097974610150 [Eh]
	 Opposite-Spin Energy      =      -1.8198232727066186 [Eh]
	 Correlation Energy        =      -2.4359330701676338 [Eh]
	 Total Energy              =    -581.0663173944203663 [Eh]

	 ================> DF-SCS-MP2 Energies <==================
	-----------------------------------------------------------
	 SCS Same-Spin Scale       =       0.3333333333333333 [-]
	 SCS Opposite-Spin Scale   =       1.2000000000000000 [-]
	 SCS Same-Spin Energy      =      -0.2053699324870050 [Eh]
	 SCS Opposite-Spin Energy  =      -2.1837879272479421 [Eh]
	 SCS Correlation Energy    =      -2.3891578597349472 [Eh]
	 SCS Total Energy          =    -581.0195421839877099 [Eh]
	-----------------------------------------------------------

  Dipole Moment: [D]
     X:    -0.0203      Y:    -6.7773      Z:    -0.8915     Total:     6.8357

*** Psi4 exiting successfully. Buy a developer a beer!
