                               Psi4 1.4a3.dev225

  ==> Input File <==

--------------------------------------------------------------------------
#psi4
#
memory 32 gb

molecule  {
0 1
  O        1.6617960     2.5152110     0.0229320
  N       -1.9329240    -0.4005880    -0.0147920
  N        1.9545050     0.2323110     0.0113410
  N        0.2669280    -1.4301930    -0.0208730
  N       -1.3834780     1.7915450    -0.0193170
  N        2.5221760    -2.0364130     0.0734370
  C       -0.5634760    -0.3442740    -0.0026930
  C       -0.2488450     1.0144850    -0.0147620
  C        1.1380320     1.4076430     0.0031510
  C       -2.3683130     0.9036150    -0.0164120
  C        1.5275980    -1.0721200    -0.0057920
  C       -2.7322540    -1.6127190     0.0339130
  H       -3.4247340     1.1445090    -0.0228960
  H       -2.2820035    -2.3491751    -0.5991283
  H       -2.7853950    -1.9995380     1.0543320
  H       -3.7366260    -1.3828770    -0.3245450
  H        2.9468270     0.4301980     0.1174830
  H        2.1372730    -2.9631930    -0.0801050
  H        3.3349710    -1.8642740    -0.5097710
units angstrom
no_reorient  #important for SAPT in psi4, default
symmetry c1  #important for SAPT in psi4, default
}

set PROPERTIES_ORIGIN ["COM"]
properties('MP2/aug-cc-pvtz', properties = ['dipole'])
--------------------------------------------------------------------------

    Molecular point group: c1
  Charge       = 0
  Multiplicity = 1
  Basis Set: AUG-CC-PVTZ
    Blend: AUG-CC-PVTZ
  Basis Set: (AUG-CC-PVTZ AUX)
    Blend: AUG-CC-PVTZ-JKFIT

    Orbital Energies [Eh]
    ---------------------

    Doubly Occupied:

       1A    -20.521430     2A    -15.632645     3A    -15.629430
       4A    -15.610754     5A    -15.571137     6A    -15.559926
       7A    -11.396095     8A    -11.364944     9A    -11.319626
      10A    -11.307005    11A    -11.286940    12A    -11.247247
      13A     -1.390832    14A     -1.360611    15A     -1.333821
      16A     -1.218753    17A     -1.216014    18A     -1.190491
      19A     -1.029183    20A     -0.987622    21A     -0.901536
      22A     -0.881973    23A     -0.807324    24A     -0.766817
      25A     -0.741511    26A     -0.728538    27A     -0.691369
      28A     -0.671196    29A     -0.649809    30A     -0.642261
      31A     -0.626277    32A     -0.611076    33A     -0.594444
      34A     -0.579536    35A     -0.561810    36A     -0.541721
      37A     -0.493314    38A     -0.460379    39A     -0.440142
      40A     -0.429721    41A     -0.429053    42A     -0.392883
      43A     -0.298552

  @DF-RHF Final Energy:  -578.63065090182545

   => Energetics <=

    Nuclear Repulsion Energy =            693.2535713532265618
    One-Electron Energy =               -2163.5369515251695702
    Two-Electron Energy =                 891.6527292701175611
    Total Energy =                       -578.6306509018254474
  Basis Set: (AUG-CC-PVTZ AUX)
    Blend: AUG-CC-PVTZ-RI
    Molecular point group: c1

    Geometry (in Angstrom), charge = 0, multiplicity = 1:

       Center              X                  Y                   Z               Mass
    ------------   -----------------  -----------------  -----------------  -----------------
         O            1.639023306910     2.461152958619     0.020597118036    15.994914619570
         N           -1.955696693090    -0.454646041381    -0.017126881964    14.003074004430
         N            1.931732306910     0.178252958619     0.009006118036    14.003074004430
         N            0.244155306910    -1.484251041381    -0.023207881964    14.003074004430
         N           -1.406250693090     1.737486958619    -0.021651881964    14.003074004430
         N            2.499403306910    -2.090471041381     0.071102118036    14.003074004430
         C           -0.586248693090    -0.398332041381    -0.005027881964    12.000000000000
         C           -0.271617693090     0.960426958619    -0.017096881964    12.000000000000
         C            1.115259306910     1.353584958619     0.000816118036    12.000000000000
         C           -2.391085693090     0.849556958619    -0.018746881964    12.000000000000
         C            1.504825306910    -1.126178041381    -0.008126881964    12.000000000000
         C           -2.755026693090    -1.666777041381     0.031578118036    12.000000000000
         H           -3.447506693090     1.090450958619    -0.025230881964     1.007825032230
         H           -2.304776193090    -2.403233141381    -0.601463181964     1.007825032230
         H           -2.808167693090    -2.053596041381     1.051997118036     1.007825032230
         H           -3.759398693090    -1.436935041381    -0.326879881964     1.007825032230
         H            2.924054306910     0.376139958619     0.115148118036     1.007825032230
         H            2.114500306910    -3.017251041381    -0.082439881964     1.007825032230
         H            3.312198306910    -1.918332041381    -0.512105881964     1.007825032230

  Basis Set: AUG-CC-PVTZ
    Blend: AUG-CC-PVTZ
  Basis Set: (AUG-CC-PVTZ AUX)
    Blend: AUG-CC-PVTZ-JKFIT
	 Reference Energy          =    -578.6306509018254474 [Eh]
	 Singles Energy            =      -0.0000000000000000 [Eh]
	 Same-Spin Energy          =      -0.6160522461884532 [Eh]
	 Opposite-Spin Energy      =      -1.8196783113694290 [Eh]
	 Correlation Energy        =      -2.4357305575578820 [Eh]
	 Total Energy              =    -581.0663814593833649 [Eh]

	 ================> DF-SCS-MP2 Energies <==================
	-----------------------------------------------------------
	 SCS Same-Spin Scale       =       0.3333333333333333 [-]
	 SCS Opposite-Spin Scale   =       1.2000000000000000 [-]
	 SCS Same-Spin Energy      =      -0.2053507487294844 [Eh]
	 SCS Opposite-Spin Energy  =      -2.1836139736433147 [Eh]
	 SCS Correlation Energy    =      -2.3889647223727990 [Eh]
	 SCS Total Energy          =    -581.0196156241981953 [Eh]
	-----------------------------------------------------------

  Dipole Moment: [D]
     X:    -0.5282      Y:    -6.7534      Z:    -0.8526     Total:     6.8275

*** Psi4 exiting successfully. Buy a developer a beer!
