                               Psi4 1.3.2 release

  ==> Input File <==

--------------------------------------------------------------------------
#psi4
#
memory 32 gb

molecule  {
0 1
  O       -1.4697740     2.5644010     0.0803940
  N        1.9191590    -0.5831280    -0.0556370
  N       -1.9102790     0.3061000     0.0485010
  N       -0.3427170    -1.4672350    -0.0387560
  N        1.5166440     1.6409000    -0.0105650
  N       -2.6294290    -1.9169300     0.1110730
  C        0.5576980    -0.4369160    -0.0295360
  C        0.3337570     0.9396730    -0.0094060
  C       -1.0221650     1.4237120     0.0351730
  C        2.4390620     0.6894910    -0.0699270
  C       -1.6193876    -0.9724576     0.0342695
  C        2.6353690    -1.8453210    -0.0655260
  H        3.5092610     0.8590810    -0.0866130
  H        2.3729340    -2.4304260     0.8177420
  H        2.3794720    -2.4140780    -0.9605130
  H        3.7041390    -1.6305860    -0.0592400
  H       -2.8879820     0.5691470     0.1693100
  H       -2.3758413    -2.8835960    -0.0566330
  H       -3.4596940    -1.6726380    -0.4173570
units angstrom
no_reorient  #important for SAPT in psi4, default
symmetry c1  #important for SAPT in psi4, default
}

set PROPERTIES_ORIGIN ["COM"]
properties('MP2/aug-cc-pvtz', properties = ['dipole'])
--------------------------------------------------------------------------

    Molecular point group: c1
  Charge       = 0
  Multiplicity = 1
  Basis Set: AUG-CC-PVTZ
    Blend: AUG-CC-PVTZ
  Basis Set: (AUG-CC-PVTZ AUX)
    Blend: AUG-CC-PVTZ-JKFIT

    Orbital Energies [Eh]
    ---------------------

    Doubly Occupied:

       1A    -20.523573     2A    -15.640099     3A    -15.628688
       4A    -15.613243     5A    -15.566667     6A    -15.557136
       7A    -11.399923     8A    -11.367824     9A    -11.316460
      10A    -11.305426    11A    -11.286751    12A    -11.243291
      13A     -1.397348    14A     -1.358396    15A     -1.338778
      16A     -1.228323    17A     -1.206607    18A     -1.185483
      19A     -1.026081    20A     -0.984858    21A     -0.907147
      22A     -0.888872    23A     -0.804077    24A     -0.766520
      25A     -0.750197    26A     -0.732405    27A     -0.694309
      28A     -0.669542    29A     -0.652525    30A     -0.639355
      31A     -0.621799    32A     -0.610284    33A     -0.593195
      34A     -0.575175    35A     -0.559748    36A     -0.538727
      37A     -0.489811    38A     -0.457958    39A     -0.443040
      40A     -0.433058    41A     -0.426432    42A     -0.390529
      43A     -0.291241

  @DF-RHF Final Energy:  -578.62235857215774

   => Energetics <=

    Nuclear Repulsion Energy =            693.3267594418800854
    One-Electron Energy =               -2163.6764326014499602
    Two-Electron Energy =                 891.7273145874121383
    Total Energy =                       -578.6223585721577365
  Basis Set: (AUG-CC-PVTZ AUX)
    Blend: AUG-CC-PVTZ-RI
    Molecular point group: c1

    Geometry (in Angstrom), charge = 0, multiplicity = 1:

       Center              X                  Y                   Z               Mass
    ------------   -----------------  -----------------  -----------------  -----------------
         O           -1.466100272505     2.560602504301     0.079222883393    15.994914619570
         N            1.922832727495    -0.586926495699    -0.056808116607    14.003074004430
         N           -1.906605272505     0.302301504301     0.047329883393    14.003074004430
         N           -0.339043272505    -1.471033495699    -0.039927116607    14.003074004430
         N            1.520317727495     1.637101504301    -0.011736116607    14.003074004430
         N           -2.625755272505    -1.920728495699     0.109901883393    14.003074004430
         C            0.561371727495    -0.440714495699    -0.030707116607    12.000000000000
         C            0.337430727495     0.935874504301    -0.010577116607    12.000000000000
         C           -1.018491272505     1.419913504301     0.034001883393    12.000000000000
         C            2.442735727495     0.685692504301    -0.071098116607    12.000000000000
         C           -1.615713872505    -0.976256095699     0.033098383393    12.000000000000
         C            2.639042727495    -1.849119495699    -0.066697116607    12.000000000000
         H            3.512934727495     0.855282504301    -0.087784116607     1.007825032230
         H            2.376607727495    -2.434224495699     0.816570883393     1.007825032230
         H            2.383145727495    -2.417876495699    -0.961684116607     1.007825032230
         H            3.707812727495    -1.634384495699    -0.060411116607     1.007825032230
         H           -2.884308272505     0.565348504301     0.168138883393     1.007825032230
         H           -2.372167572505    -2.887394495699    -0.057804116607     1.007825032230
         H           -3.456020272505    -1.676436495699    -0.418528116607     1.007825032230

  Basis Set: AUG-CC-PVTZ
    Blend: AUG-CC-PVTZ
  Basis Set: (AUG-CC-PVTZ AUX)
    Blend: AUG-CC-PVTZ-JKFIT
	 Reference Energy          =    -578.6223585721577365 [Eh]
	 Singles Energy            =      -0.0000000000000000 [Eh]
	 Same-Spin Energy          =      -0.6166179786531747 [Eh]
	 Opposite-Spin Energy      =      -1.8204509659238282 [Eh]
	 Correlation Energy        =      -2.4370689445770028 [Eh]
	 Total Energy              =    -581.0594275167347860 [Eh]

	 ================> DF-SCS-MP2 Energies <==================
	-----------------------------------------------------------
	 SCS Same-Spin Scale       =       0.3333333333333333 [-]
	 SCS Opposite-Spin Scale   =       1.2000000000000000 [-]
	 SCS Same-Spin Energy      =      -0.2055393262177249 [Eh]
	 SCS Opposite-Spin Energy  =      -2.1845411591085937 [Eh]
	 SCS Correlation Energy    =      -2.3900804853263184 [Eh]
	 SCS Total Energy          =    -581.0124390574840163 [Eh]
	-----------------------------------------------------------

  Dipole Moment: [D]
     X:    -0.3844      Y:    -6.6417      Z:    -0.8934     Total:     6.7126

*** Psi4 exiting successfully. Buy a developer a beer!
