                               Psi4 1.3.2 release

  ==> Input File <==

--------------------------------------------------------------------------
#psi4
#
memory 32 gb

molecule  {
0 1
  O       -1.4896238     2.5564039     0.0805775
  N        1.9191590    -0.5831280    -0.0556370
  N       -1.9102790     0.3061000     0.0485010
  N       -0.3427170    -1.4672350    -0.0387560
  N        1.5166440     1.6409000    -0.0105650
  N       -2.6294290    -1.9169300     0.1110730
  C        0.5576980    -0.4369160    -0.0295360
  C        0.3250847     0.9160827    -0.0099508
  C       -1.0221650     1.4237120     0.0351730
  C        2.4390620     0.6894910    -0.0699270
  C       -1.5730580    -1.0260450     0.0187980
  C        2.6353690    -1.8453210    -0.0655260
  H        3.5092610     0.8590810    -0.0866130
  H        2.3729340    -2.4304260     0.8177420
  H        2.3794720    -2.4140780    -0.9605130
  H        3.7041390    -1.6305860    -0.0592400
  H       -2.8879820     0.5691470     0.1693100
  H       -2.3258040    -2.8676930    -0.0642460
  H       -3.4596940    -1.6726380    -0.4173570
units angstrom
no_reorient  #important for SAPT in psi4, default
symmetry c1  #important for SAPT in psi4, default
}

set PROPERTIES_ORIGIN ["COM"]
properties('MP2/aug-cc-pvtz', properties = ['dipole'])
--------------------------------------------------------------------------

    Molecular point group: c1
  Charge       = 0
  Multiplicity = 1
  Basis Set: AUG-CC-PVTZ
    Blend: AUG-CC-PVTZ
  Basis Set: (AUG-CC-PVTZ AUX)
    Blend: AUG-CC-PVTZ-JKFIT

    Orbital Energies [Eh]
    ---------------------

    Doubly Occupied:

       1A    -20.522306     2A    -15.631725     3A    -15.627878
       4A    -15.610293     5A    -15.570089     6A    -15.560174
       7A    -11.395572     8A    -11.365268     9A    -11.318192
      10A    -11.308235    11A    -11.289173    12A    -11.246187
      13A     -1.391515    14A     -1.361087    15A     -1.333434
      16A     -1.218844    17A     -1.214786    18A     -1.187957
      19A     -1.032864    20A     -0.985702    21A     -0.901600
      22A     -0.881776    23A     -0.808397    24A     -0.769438
      25A     -0.739195    26A     -0.728274    27A     -0.691954
      28A     -0.671526    29A     -0.651162    30A     -0.641230
      31A     -0.626326    32A     -0.612564    33A     -0.590283
      34A     -0.578357    35A     -0.560557    36A     -0.541950
      37A     -0.492879    38A     -0.458841    39A     -0.438985
      40A     -0.432490    41A     -0.428655    42A     -0.390914
      43A     -0.302823

  @DF-RHF Final Energy:  -578.63058597187319

   => Energetics <=

    Nuclear Repulsion Energy =            693.6741082063530257
    One-Electron Energy =               -2164.3864772133174483
    Two-Electron Energy =                 892.0817830350911208
    Total Energy =                       -578.6305859718731881
  Basis Set: (AUG-CC-PVTZ AUX)
    Blend: AUG-CC-PVTZ-RI
    Molecular point group: c1

    Geometry (in Angstrom), charge = 0, multiplicity = 1:

       Center              X                  Y                   Z               Mass
    ------------   -----------------  -----------------  -----------------  -----------------
         O           -1.487069755783     2.558893942233     0.080599446936    15.994914619570
         N            1.921713044217    -0.580637957767    -0.055615053064    14.003074004430
         N           -1.907724955783     0.308590042233     0.048522946936    14.003074004430
         N           -0.340162955783    -1.464744957767    -0.038734053064    14.003074004430
         N            1.519198044217     1.643390042233    -0.010543053064    14.003074004430
         N           -2.626874955783    -1.914439957767     0.111094946936    14.003074004430
         C            0.560252044217    -0.434425957767    -0.029514053064    12.000000000000
         C            0.327638744217     0.918572742233    -0.009928853064    12.000000000000
         C           -1.019610955783     1.426202042233     0.035194946936    12.000000000000
         C            2.441616044217     0.691981042233    -0.069905053064    12.000000000000
         C           -1.570503955783    -1.023554957767     0.018819946936    12.000000000000
         C            2.637923044217    -1.842830957767    -0.065504053064    12.000000000000
         H            3.511815044217     0.861571042233    -0.086591053064     1.007825032230
         H            2.375488044217    -2.427935957767     0.817763946936     1.007825032230
         H            2.382026044217    -2.411587957767    -0.960491053064     1.007825032230
         H            3.706693044217    -1.628095957767    -0.059218053064     1.007825032230
         H           -2.885427955783     0.571637042233     0.169331946936     1.007825032230
         H           -2.323249955783    -2.865202957767    -0.064224053064     1.007825032230
         H           -3.457139955783    -1.670147957767    -0.417335053064     1.007825032230

  Basis Set: AUG-CC-PVTZ
    Blend: AUG-CC-PVTZ
  Basis Set: (AUG-CC-PVTZ AUX)
    Blend: AUG-CC-PVTZ-JKFIT
	 Reference Energy          =    -578.6305859718731881 [Eh]
	 Singles Energy            =      -0.0000000000000000 [Eh]
	 Same-Spin Energy          =      -0.6156011229123337 [Eh]
	 Opposite-Spin Energy      =      -1.8194838374917883 [Eh]
	 Correlation Energy        =      -2.4350849604041223 [Eh]
	 Total Energy              =    -581.0656709322772713 [Eh]

	 ================> DF-SCS-MP2 Energies <==================
	-----------------------------------------------------------
	 SCS Same-Spin Scale       =       0.3333333333333333 [-]
	 SCS Opposite-Spin Scale   =       1.2000000000000000 [-]
	 SCS Same-Spin Energy      =      -0.2052003743041112 [Eh]
	 SCS Opposite-Spin Energy  =      -2.1833806049901461 [Eh]
	 SCS Correlation Energy    =      -2.3885809792942574 [Eh]
	 SCS Total Energy          =    -581.0191669511674490 [Eh]
	-----------------------------------------------------------

  Dipole Moment: [D]
     X:     0.0043      Y:    -6.7652      Z:    -0.9372     Total:     6.8298

*** Psi4 exiting successfully. Buy a developer a beer!
