                               Psi4 1.3.2 release

  ==> Input File <==

--------------------------------------------------------------------------
#psi4
#
memory 32 gb

molecule  {
0 1
  O       -1.4697740     2.5644010     0.0803940
  N        1.9191590    -0.5831280    -0.0556370
  N       -1.9102790     0.3061000     0.0485010
  N       -0.3427170    -1.4672350    -0.0387560
  N        1.5166440     1.6409000    -0.0105650
  N       -2.6294290    -1.9169300     0.1110730
  C        0.5564749    -0.4488045    -0.0294734
  C        0.3337570     0.9396730    -0.0094060
  C       -1.0221650     1.4237120     0.0351730
  C        2.4501460     0.6849040    -0.0701284
  C       -1.5730580    -1.0260450     0.0187980
  C        2.6353690    -1.8453210    -0.0655260
  H        3.5092610     0.8590810    -0.0866130
  H        2.3729340    -2.4304260     0.8177420
  H        2.3794720    -2.4140780    -0.9605130
  H        3.7041390    -1.6305860    -0.0592400
  H       -2.8879820     0.5691470     0.1693100
  H       -2.3258040    -2.8676930    -0.0642460
  H       -3.4596940    -1.6726380    -0.4173570
units angstrom
no_reorient  #important for SAPT in psi4, default
symmetry c1  #important for SAPT in psi4, default
}

set PROPERTIES_ORIGIN ["COM"]
properties('MP2/aug-cc-pvtz', properties = ['dipole'])
--------------------------------------------------------------------------

    Molecular point group: c1
  Charge       = 0
  Multiplicity = 1
  Basis Set: AUG-CC-PVTZ
    Blend: AUG-CC-PVTZ
  Basis Set: (AUG-CC-PVTZ AUX)
    Blend: AUG-CC-PVTZ-JKFIT

    Orbital Energies [Eh]
    ---------------------

    Doubly Occupied:

       1A    -20.520220     2A    -15.633910     3A    -15.629758
       4A    -15.611204     5A    -15.571125     6A    -15.560637
       7A    -11.396892     8A    -11.363778     9A    -11.320048
      10A    -11.307235    11A    -11.289053    12A    -11.247593
      13A     -1.390425    14A     -1.359492    15A     -1.334013
      16A     -1.219423    17A     -1.217327    18A     -1.189273
      19A     -1.027530    20A     -0.985933    21A     -0.902861
      22A     -0.883149    23A     -0.809230    24A     -0.765310
      25A     -0.741047    26A     -0.730682    27A     -0.692630
      28A     -0.671085    29A     -0.648677    30A     -0.644497
      31A     -0.627197    32A     -0.609783    33A     -0.594254
      34A     -0.578831    35A     -0.559801    36A     -0.541792
      37A     -0.493513    38A     -0.459976    39A     -0.439558
      40A     -0.429414    41A     -0.427779    42A     -0.392107
      43A     -0.295638

  @DF-RHF Final Energy:  -578.62904566307134

   => Energetics <=

    Nuclear Repulsion Energy =            693.1429421580762664
    One-Electron Energy =               -2163.3166090123982030
    Two-Electron Energy =                 891.5446211912505987
    Total Energy =                       -578.6290456630713379
  Basis Set: (AUG-CC-PVTZ AUX)
    Blend: AUG-CC-PVTZ-RI
    Molecular point group: c1

    Geometry (in Angstrom), charge = 0, multiplicity = 1:

       Center              X                  Y                   Z               Mass
    ------------   -----------------  -----------------  -----------------  -----------------
         O           -1.470490752501     2.565598881845     0.080404212574    15.994914619570
         N            1.918442247499    -0.581930118155    -0.055626787426    14.003074004430
         N           -1.910995752501     0.307297881845     0.048511212574    14.003074004430
         N           -0.343433752501    -1.466037118155    -0.038745787426    14.003074004430
         N            1.515927247499     1.642097881845    -0.010554787426    14.003074004430
         N           -2.630145752501    -1.915732118155     0.111083212574    14.003074004430
         C            0.555758147499    -0.447606618155    -0.029463187426    12.000000000000
         C            0.333040247499     0.940870881845    -0.009395787426    12.000000000000
         C           -1.022881752501     1.424909881845     0.035183212574    12.000000000000
         C            2.449429247499     0.686101881845    -0.070118187426    12.000000000000
         C           -1.573774752501    -1.024847118155     0.018808212574    12.000000000000
         C            2.634652247499    -1.844123118155    -0.065515787426    12.000000000000
         H            3.508544247499     0.860278881845    -0.086602787426     1.007825032230
         H            2.372217247499    -2.429228118155     0.817752212574     1.007825032230
         H            2.378755247499    -2.412880118155    -0.960502787426     1.007825032230
         H            3.703422247499    -1.629388118155    -0.059229787426     1.007825032230
         H           -2.888698752501     0.570344881845     0.169320212574     1.007825032230
         H           -2.326520752501    -2.866495118155    -0.064235787426     1.007825032230
         H           -3.460410752501    -1.671440118155    -0.417346787426     1.007825032230

  Basis Set: AUG-CC-PVTZ
    Blend: AUG-CC-PVTZ
  Basis Set: (AUG-CC-PVTZ AUX)
    Blend: AUG-CC-PVTZ-JKFIT
	 Reference Energy          =    -578.6290456630713379 [Eh]
	 Singles Energy            =      -0.0000000000000000 [Eh]
	 Same-Spin Energy          =      -0.6166131073654771 [Eh]
	 Opposite-Spin Energy      =      -1.8205160288921296 [Eh]
	 Correlation Energy        =      -2.4371291362576066 [Eh]
	 Total Energy              =    -581.0661747993289055 [Eh]

	 ================> DF-SCS-MP2 Energies <==================
	-----------------------------------------------------------
	 SCS Same-Spin Scale       =       0.3333333333333333 [-]
	 SCS Opposite-Spin Scale   =       1.2000000000000000 [-]
	 SCS Same-Spin Energy      =      -0.2055377024551590 [Eh]
	 SCS Opposite-Spin Energy  =      -2.1846192346705555 [Eh]
	 SCS Correlation Energy    =      -2.3901569371257145 [Eh]
	 SCS Total Energy          =    -581.0192026001971044 [Eh]
	-----------------------------------------------------------

  Dipole Moment: [D]
     X:    -0.0181      Y:    -6.8286      Z:    -0.9381     Total:     6.8927

*** Psi4 exiting successfully. Buy a developer a beer!
