                               Psi4 1.4a3.dev225

  ==> Input File <==

--------------------------------------------------------------------------
#psi4
#
memory 32 gb

molecule  {
0 1
  O        1.6617960     2.5152110     0.0229320
  N       -1.9329240    -0.4005880    -0.0147920
  N        1.9545050     0.2323110     0.0113410
  N        0.2669280    -1.4301930    -0.0208730
  N       -1.3834780     1.7915450    -0.0193170
  N        2.5221760    -2.0364130     0.0734370
  C       -0.5634760    -0.3442740    -0.0026930
  C       -0.2488450     1.0144850    -0.0147620
  C        1.1380320     1.4076430     0.0031510
  C       -2.3683130     0.9036150    -0.0164120
  C        1.4917589    -1.0373722    -0.0086470
  C       -2.7322540    -1.6127190     0.0339130
  H       -3.4247340     1.1445090    -0.0228960
  H       -2.2735910    -2.3629350    -0.6109560
  H       -2.7853950    -1.9995380     1.0543320
  H       -3.7366260    -1.3828770    -0.3245450
  H        2.9468270     0.4301980     0.1174830
  H        2.1372730    -2.9631930    -0.0801050
  H        3.3349710    -1.8642740    -0.5097710
units angstrom
no_reorient  #important for SAPT in psi4, default
symmetry c1  #important for SAPT in psi4, default
}

set PROPERTIES_ORIGIN ["COM"]
properties('MP2/aug-cc-pvtz', properties = ['dipole'])
--------------------------------------------------------------------------

    Molecular point group: c1
  Charge       = 0
  Multiplicity = 1
  Basis Set: AUG-CC-PVTZ
    Blend: AUG-CC-PVTZ
  Basis Set: (AUG-CC-PVTZ AUX)
    Blend: AUG-CC-PVTZ-JKFIT

    Orbital Energies [Eh]
    ---------------------

    Doubly Occupied:

       1A    -20.523575     2A    -15.635013     3A    -15.632076
       4A    -15.602452     5A    -15.573865     6A    -15.562200
       7A    -11.393121     8A    -11.366507     9A    -11.322033
      10A    -11.309257    11A    -11.290929    12A    -11.250323
      13A     -1.395079    14A     -1.363456    15A     -1.334849
      16A     -1.226018    17A     -1.203256    18A     -1.194690
      19A     -1.031878    20A     -0.988117    21A     -0.904345
      22A     -0.882989    23A     -0.809845    24A     -0.769262
      25A     -0.745453    26A     -0.718054    27A     -0.685585
      28A     -0.673177    29A     -0.652125    30A     -0.638653
      31A     -0.625747    32A     -0.612791    33A     -0.596924
      34A     -0.579799    35A     -0.561308    36A     -0.541508
      37A     -0.499455    38A     -0.457147    39A     -0.442553
      40A     -0.432818    41A     -0.431866    42A     -0.395287
      43A     -0.302703

  @DF-RHF Final Energy:  -578.62807573168516

   => Energetics <=

    Nuclear Repulsion Energy =            693.8515637617002767
    One-Electron Energy =               -2164.6431040743136691
    Two-Electron Energy =                 892.1634645809283484
    Total Energy =                       -578.6280757316851577
  Basis Set: (AUG-CC-PVTZ AUX)
    Blend: AUG-CC-PVTZ-RI
    Molecular point group: c1

    Geometry (in Angstrom), charge = 0, multiplicity = 1:

       Center              X                  Y                   Z               Mass
    ------------   -----------------  -----------------  -----------------  -----------------
         O            1.641577396020     2.458710854707     0.020876888038    15.994914619570
         N           -1.953142603980    -0.457088145293    -0.016847111962    14.003074004430
         N            1.934286396020     0.175810854707     0.009285888038    14.003074004430
         N            0.246709396020    -1.486693145293    -0.022928111962    14.003074004430
         N           -1.403696603980     1.735044854707    -0.021372111962    14.003074004430
         N            2.501957396020    -2.092913145293     0.071381888038    14.003074004430
         C           -0.583694603980    -0.400774145293    -0.004748111962    12.000000000000
         C           -0.269063603980     0.957984854707    -0.016817111962    12.000000000000
         C            1.117813396020     1.351142854707     0.001095888038    12.000000000000
         C           -2.388531603980     0.847114854707    -0.018467111962    12.000000000000
         C            1.471540296020    -1.093872345293    -0.010702111962    12.000000000000
         C           -2.752472603980    -1.669219145293     0.031857888038    12.000000000000
         H           -3.444952603980     1.088008854707    -0.024951111962     1.007825032230
         H           -2.293809603980    -2.419435145293    -0.613011111962     1.007825032230
         H           -2.805613603980    -2.056038145293     1.052276888038     1.007825032230
         H           -3.756844603980    -1.439377145293    -0.326600111962     1.007825032230
         H            2.926608396020     0.373697854707     0.115427888038     1.007825032230
         H            2.117054396020    -3.019693145293    -0.082160111962     1.007825032230
         H            3.314752396020    -1.920774145293    -0.511826111962     1.007825032230

  Basis Set: AUG-CC-PVTZ
    Blend: AUG-CC-PVTZ
  Basis Set: (AUG-CC-PVTZ AUX)
    Blend: AUG-CC-PVTZ-JKFIT
	 Reference Energy          =    -578.6280757316851577 [Eh]
	 Singles Energy            =      -0.0000000000000000 [Eh]
	 Same-Spin Energy          =      -0.6157734245222248 [Eh]
	 Opposite-Spin Energy      =      -1.8197192128947859 [Eh]
	 Correlation Energy        =      -2.4354926374170107 [Eh]
	 Total Energy              =    -581.0635683691021995 [Eh]

	 ================> DF-SCS-MP2 Energies <==================
	-----------------------------------------------------------
	 SCS Same-Spin Scale       =       0.3333333333333333 [-]
	 SCS Opposite-Spin Scale   =       1.2000000000000000 [-]
	 SCS Same-Spin Energy      =      -0.2052578081740749 [Eh]
	 SCS Opposite-Spin Energy  =      -2.1836630554737431 [Eh]
	 SCS Correlation Energy    =      -2.3889208636478179 [Eh]
	 SCS Total Energy          =    -581.0169965953330120 [Eh]
	-----------------------------------------------------------

  Dipole Moment: [D]
     X:    -0.8454      Y:    -6.4580      Z:    -0.8599     Total:     6.5696

*** Psi4 exiting successfully. Buy a developer a beer!
