                               Psi4 1.3.2 release

  ==> Input File <==

--------------------------------------------------------------------------
#psi4
#
memory 32 gb

molecule  {
0 1
  O       -1.4697740     2.5644010     0.0803940
  N        1.9191590    -0.5831280    -0.0556370
  N       -1.9102790     0.3061000     0.0485010
  N       -0.3427170    -1.4672350    -0.0387560
  N        1.5166440     1.6409000    -0.0105650
  N       -2.6294290    -1.9169300     0.1110730
  C        0.5576980    -0.4369160    -0.0295360
  C        0.3337570     0.9396730    -0.0094060
  C       -1.0221650     1.4237120     0.0351730
  C        2.4390620     0.6894910    -0.0699270
  C       -1.6036304    -0.9900396     0.0290868
  C        2.6353690    -1.8453210    -0.0655260
  H        3.5092610     0.8590810    -0.0866130
  H        2.3729340    -2.4304260     0.8177420
  H        2.3794720    -2.4140780    -0.9605130
  H        3.7041390    -1.6305860    -0.0592400
  H       -2.8879820     0.5691470     0.1693100
  H       -2.3590782    -2.8785874    -0.0592228
  H       -3.4596940    -1.6726380    -0.4173570
units angstrom
no_reorient  #important for SAPT in psi4, default
symmetry c1  #important for SAPT in psi4, default
}

set PROPERTIES_ORIGIN ["COM"]
properties('MP2/aug-cc-pvtz', properties = ['dipole'])
--------------------------------------------------------------------------

    Molecular point group: c1
  Charge       = 0
  Multiplicity = 1
  Basis Set: AUG-CC-PVTZ
    Blend: AUG-CC-PVTZ
  Basis Set: (AUG-CC-PVTZ AUX)
    Blend: AUG-CC-PVTZ-JKFIT

    Orbital Energies [Eh]
    ---------------------

    Doubly Occupied:

       1A    -20.522685     2A    -15.636591     3A    -15.630088
       4A    -15.612369     5A    -15.568136     6A    -15.557952
       7A    -11.398757     8A    -11.366678     9A    -11.317339
      10A    -11.306019    11A    -11.287624    12A    -11.244490
      13A     -1.394656    14A     -1.359155    15A     -1.336572
      16A     -1.225386    17A     -1.209729    18A     -1.187589
      19A     -1.027059    20A     -0.985399    21A     -0.904562
      22A     -0.887316    23A     -0.805280    24A     -0.766298
      25A     -0.746734    26A     -0.731734    27A     -0.693848
      28A     -0.669931    29A     -0.651697    30A     -0.639158
      31A     -0.624537    32A     -0.610485    33A     -0.593397
      34A     -0.576324    35A     -0.560130    36A     -0.539742
      37A     -0.491270    38A     -0.458054    39A     -0.441948
      40A     -0.432146    41A     -0.427480    42A     -0.391247
      43A     -0.293620

  @DF-RHF Final Energy:  -578.62689931768011

   => Energetics <=

    Nuclear Repulsion Energy =            693.3647147297626816
    One-Electron Energy =               -2163.7608037618219896
    Two-Electron Energy =                 891.7691897143791948
    Total Energy =                       -578.6268993176801132
  Basis Set: (AUG-CC-PVTZ AUX)
    Blend: AUG-CC-PVTZ-RI
    Molecular point group: c1

    Geometry (in Angstrom), charge = 0, multiplicity = 1:

       Center              X                  Y                   Z               Mass
    ------------   -----------------  -----------------  -----------------  -----------------
         O           -1.467348148173     2.561850110594     0.079615470809    15.994914619570
         N            1.921584851827    -0.585678889406    -0.056415529191    14.003074004430
         N           -1.907853148173     0.303549110594     0.047722470809    14.003074004430
         N           -0.340291148173    -1.469785889406    -0.039534529191    14.003074004430
         N            1.519069851827     1.638349110594    -0.011343529191    14.003074004430
         N           -2.627003148173    -1.919480889406     0.110294470809    14.003074004430
         C            0.560123851827    -0.439466889406    -0.030314529191    12.000000000000
         C            0.336182851827     0.937122110594    -0.010184529191    12.000000000000
         C           -1.019739148173     1.421161110594     0.034394470809    12.000000000000
         C            2.441487851827     0.686940110594    -0.070705529191    12.000000000000
         C           -1.601204548173    -0.992590489406     0.028308270809    12.000000000000
         C            2.637794851827    -1.847871889406    -0.066304529191    12.000000000000
         H            3.511686851827     0.856530110594    -0.087391529191     1.007825032230
         H            2.375359851827    -2.432976889406     0.816963470809     1.007825032230
         H            2.381897851827    -2.416628889406    -0.961291529191     1.007825032230
         H            3.706564851827    -1.633136889406    -0.060018529191     1.007825032230
         H           -2.885556148173     0.566596110594     0.168531470809     1.007825032230
         H           -2.356652348173    -2.881138289406    -0.060001329191     1.007825032230
         H           -3.457268148173    -1.675188889406    -0.418135529191     1.007825032230

  Basis Set: AUG-CC-PVTZ
    Blend: AUG-CC-PVTZ
  Basis Set: (AUG-CC-PVTZ AUX)
    Blend: AUG-CC-PVTZ-JKFIT
	 Reference Energy          =    -578.6268993176801132 [Eh]
	 Singles Energy            =      -0.0000000000000000 [Eh]
	 Same-Spin Energy          =      -0.6164270865078153 [Eh]
	 Opposite-Spin Energy      =      -1.8201799467801050 [Eh]
	 Correlation Energy        =      -2.4366070332879204 [Eh]
	 Total Energy              =    -581.0635063509680549 [Eh]

	 ================> DF-SCS-MP2 Energies <==================
	-----------------------------------------------------------
	 SCS Same-Spin Scale       =       0.3333333333333333 [-]
	 SCS Opposite-Spin Scale   =       1.2000000000000000 [-]
	 SCS Same-Spin Energy      =      -0.2054756955026051 [Eh]
	 SCS Opposite-Spin Energy  =      -2.1842159361361260 [Eh]
	 SCS Correlation Energy    =      -2.3896916316387311 [Eh]
	 SCS Total Energy          =    -581.0165909493188110 [Eh]
	-----------------------------------------------------------

  Dipole Moment: [D]
     X:    -0.2582      Y:    -6.6868      Z:    -0.9080     Total:     6.7531

*** Psi4 exiting successfully. Buy a developer a beer!
