                               Psi4 1.3.2 release

  ==> Input File <==

--------------------------------------------------------------------------
#psi4
#
memory 32 gb

molecule  {
0 1
  O       -1.4697740     2.5644010     0.0803940
  N        1.9191590    -0.5831280    -0.0556370
  N       -1.9102790     0.3061000     0.0485010
  N       -0.3427170    -1.4672350    -0.0387560
  N        1.5166440     1.6409000    -0.0105650
  N       -2.6294290    -1.9169300     0.1110730
  C        0.5519176    -0.5083825    -0.0291906
  C        0.3337570     0.9396730    -0.0094060
  C       -1.0221650     1.4237120     0.0351730
  C        2.5049426     0.6605280    -0.0711188
  C       -1.5730580    -1.0260450     0.0187980
  C        2.6353690    -1.8453210    -0.0655260
  H        3.5092610     0.8590810    -0.0866130
  H        2.3729340    -2.4304260     0.8177420
  H        2.3794720    -2.4140780    -0.9605130
  H        3.7041390    -1.6305860    -0.0592400
  H       -2.8879820     0.5691470     0.1693100
  H       -2.3258040    -2.8676930    -0.0642460
  H       -3.4596940    -1.6726380    -0.4173570
units angstrom
no_reorient  #important for SAPT in psi4, default
symmetry c1  #important for SAPT in psi4, default
}

set PROPERTIES_ORIGIN ["COM"]
properties('MP2/aug-cc-pvtz', properties = ['dipole'])
--------------------------------------------------------------------------

    Molecular point group: c1
  Charge       = 0
  Multiplicity = 1
  Basis Set: AUG-CC-PVTZ
    Blend: AUG-CC-PVTZ
  Basis Set: (AUG-CC-PVTZ AUX)
    Blend: AUG-CC-PVTZ-JKFIT

    Orbital Energies [Eh]
    ---------------------

    Doubly Occupied:

       1A    -20.517564     2A    -15.639071     3A    -15.632391
       4A    -15.613949     5A    -15.572508     6A    -15.565940
       7A    -11.401316     8A    -11.361896     9A    -11.324544
      10A    -11.306702    11A    -11.287265    12A    -11.250813
      13A     -1.390436    14A     -1.356657    15A     -1.333201
      16A     -1.227750    17A     -1.220336    18A     -1.179306
      19A     -1.019918    20A     -0.983311    21A     -0.908574
      22A     -0.889315    23A     -0.816285    24A     -0.757970
      25A     -0.740192    26A     -0.738207    27A     -0.694948
      28A     -0.672087    29A     -0.660182    30A     -0.642953
      31A     -0.629726    32A     -0.608088    33A     -0.592236
      34A     -0.579124    35A     -0.554335    36A     -0.543193
      37A     -0.491113    38A     -0.463992    39A     -0.437752
      40A     -0.431187    41A     -0.421064    42A     -0.388982
      43A     -0.282435

  @DF-RHF Final Energy:  -578.60755016531357

   => Energetics <=

    Nuclear Repulsion Energy =            691.6911860491477455
    One-Electron Energy =               -2160.3398428174682522
    Two-Electron Energy =                 890.0411066030069378
    Total Energy =                       -578.6075501653135689
  Basis Set: (AUG-CC-PVTZ AUX)
    Blend: AUG-CC-PVTZ-RI
    Molecular point group: c1

    Geometry (in Angstrom), charge = 0, multiplicity = 1:

       Center              X                  Y                   Z               Mass
    ------------   -----------------  -----------------  -----------------  -----------------
         O           -1.474143079653     2.571702220740     0.080455654109    15.994914619570
         N            1.914789920347    -0.575826779260    -0.055575345891    14.003074004430
         N           -1.914648079653     0.313401220740     0.048562654109    14.003074004430
         N           -0.347086079653    -1.459933779260    -0.038694345891    14.003074004430
         N            1.512274920347     1.648201220740    -0.010503345891    14.003074004430
         N           -2.633798079653    -1.909628779260     0.111134654109    14.003074004430
         C            0.547548520347    -0.501081279260    -0.029128945891    12.000000000000
         C            0.329387920347     0.946974220740    -0.009344345891    12.000000000000
         C           -1.026534079653     1.431013220740     0.035234654109    12.000000000000
         C            2.500573520347     0.667829220740    -0.071057145891    12.000000000000
         C           -1.577427079653    -1.018743779260     0.018859654109    12.000000000000
         C            2.630999920347    -1.838019779260    -0.065464345891    12.000000000000
         H            3.504891920347     0.866382220740    -0.086551345891     1.007825032230
         H            2.368564920347    -2.423124779260     0.817803654109     1.007825032230
         H            2.375102920347    -2.406776779260    -0.960451345891     1.007825032230
         H            3.699769920347    -1.623284779260    -0.059178345891     1.007825032230
         H           -2.892351079653     0.576448220740     0.169371654109     1.007825032230
         H           -2.330173079653    -2.860391779260    -0.064184345891     1.007825032230
         H           -3.464063079653    -1.665336779260    -0.417295345891     1.007825032230

  Basis Set: AUG-CC-PVTZ
    Blend: AUG-CC-PVTZ
  Basis Set: (AUG-CC-PVTZ AUX)
    Blend: AUG-CC-PVTZ-JKFIT
	 Reference Energy          =    -578.6075501653135689 [Eh]
	 Singles Energy            =      -0.0000000000000000 [Eh]
	 Same-Spin Energy          =      -0.6196609771101613 [Eh]
	 Opposite-Spin Energy      =      -1.8248492773946616 [Eh]
	 Correlation Energy        =      -2.4445102545048227 [Eh]
	 Total Energy              =    -581.0520604198184174 [Eh]

	 ================> DF-SCS-MP2 Energies <==================
	-----------------------------------------------------------
	 SCS Same-Spin Scale       =       0.3333333333333333 [-]
	 SCS Opposite-Spin Scale   =       1.2000000000000000 [-]
	 SCS Same-Spin Energy      =      -0.2065536590367204 [Eh]
	 SCS Opposite-Spin Energy  =      -2.1898191328735939 [Eh]
	 SCS Correlation Energy    =      -2.3963727919103142 [Eh]
	 SCS Total Energy          =    -581.0039229572238355 [Eh]
	-----------------------------------------------------------

  Dipole Moment: [D]
     X:    -0.0696      Y:    -7.0089      Z:    -0.9400     Total:     7.0720

*** Psi4 exiting successfully. Buy a developer a beer!
