                               Psi4 1.3.2 release

  ==> Input File <==

--------------------------------------------------------------------------
#psi4
#
memory 32 gb

molecule  {
0 1
  O       -1.4697740     2.5644010     0.0803940
  N        1.9191590    -0.5831280    -0.0556370
  N       -1.9102790     0.3061000     0.0485010
  N       -0.3427170    -1.4672350    -0.0387560
  N        1.5166440     1.6409000    -0.0105650
  N       -2.6294290    -1.9169300     0.1110730
  C        0.5576980    -0.4369160    -0.0295360
  C        0.3589228     0.8988604    -0.0116052
  C       -1.0221650     1.4237120     0.0351730
  C        2.4052505     0.6578626    -0.0703459
  C       -1.5730580    -1.0260450     0.0187980
  C        2.6353690    -1.8453210    -0.0655260
  H        3.5092610     0.8590810    -0.0866130
  H        2.3729340    -2.4304260     0.8177420
  H        2.3794720    -2.4140780    -0.9605130
  H        3.7041390    -1.6305860    -0.0592400
  H       -2.8879820     0.5691470     0.1693100
  H       -2.3258040    -2.8676930    -0.0642460
  H       -3.4596940    -1.6726380    -0.4173570
units angstrom
no_reorient  #important for SAPT in psi4, default
symmetry c1  #important for SAPT in psi4, default
}

set PROPERTIES_ORIGIN ["COM"]
properties('MP2/aug-cc-pvtz', properties = ['dipole'])
--------------------------------------------------------------------------

    Molecular point group: c1
  Charge       = 0
  Multiplicity = 1
  Basis Set: AUG-CC-PVTZ
    Blend: AUG-CC-PVTZ
  Basis Set: (AUG-CC-PVTZ AUX)
    Blend: AUG-CC-PVTZ-JKFIT

    Orbital Energies [Eh]
    ---------------------

    Doubly Occupied:

       1A    -20.526737     2A    -15.632352     3A    -15.628707
       4A    -15.609191     5A    -15.568960     6A    -15.555022
       7A    -11.393818     8A    -11.368715     9A    -11.309193
      10A    -11.306545    11A    -11.290822    12A    -11.246033
      13A     -1.394175    14A     -1.370936    15A     -1.335803
      16A     -1.218599    17A     -1.215519    18A     -1.193910
      19A     -1.031116    20A     -0.989627    21A     -0.900662
      22A     -0.881188    23A     -0.805834    24A     -0.772251
      25A     -0.740875    26A     -0.724279    27A     -0.691723
      28A     -0.675866    29A     -0.654900    30A     -0.638784
      31A     -0.626181    32A     -0.614955    33A     -0.578689
      34A     -0.573589    35A     -0.564727    36A     -0.542279
      37A     -0.495151    38A     -0.458647    39A     -0.443264
      40A     -0.433052    41A     -0.429412    42A     -0.395246
      43A     -0.300610

  @DF-RHF Final Energy:  -578.62543060846588

   => Energetics <=

    Nuclear Repulsion Energy =            695.0235659341121846
    One-Electron Energy =               -2167.0420962513849190
    Two-Electron Energy =                 893.3930997088068580
    Total Energy =                       -578.6254306084658765
  Basis Set: (AUG-CC-PVTZ AUX)
    Blend: AUG-CC-PVTZ-RI
    Molecular point group: c1

    Geometry (in Angstrom), charge = 0, multiplicity = 1:

       Center              X                  Y                   Z               Mass
    ------------   -----------------  -----------------  -----------------  -----------------
         O           -1.469145348452     2.569667495764     0.080584454232    15.994914619570
         N            1.919787651548    -0.577861504236    -0.055446545768    14.003074004430
         N           -1.909650348452     0.311366495764     0.048691454232    14.003074004430
         N           -0.342088348452    -1.461968504236    -0.038565545768    14.003074004430
         N            1.517272651548     1.646166495764    -0.010374545768    14.003074004430
         N           -2.628800348452    -1.911663504236     0.111263454232    14.003074004430
         C            0.558326651548    -0.431649504236    -0.029345545768    12.000000000000
         C            0.359551451548     0.904126895764    -0.011414745768    12.000000000000
         C           -1.021536348452     1.428978495764     0.035363454232    12.000000000000
         C            2.405879151548     0.663129095764    -0.070155445768    12.000000000000
         C           -1.572429348452    -1.020778504236     0.018988454232    12.000000000000
         C            2.635997651548    -1.840054504236    -0.065335545768    12.000000000000
         H            3.509889651548     0.864347495764    -0.086422545768     1.007825032230
         H            2.373562651548    -2.425159504236     0.817932454232     1.007825032230
         H            2.380100651548    -2.408811504236    -0.960322545768     1.007825032230
         H            3.704767651548    -1.625319504236    -0.059049545768     1.007825032230
         H           -2.887353348452     0.574413495764     0.169500454232     1.007825032230
         H           -2.325175348452    -2.862426504236    -0.064055545768     1.007825032230
         H           -3.459065348452    -1.667371504236    -0.417166545768     1.007825032230

  Basis Set: AUG-CC-PVTZ
    Blend: AUG-CC-PVTZ
  Basis Set: (AUG-CC-PVTZ AUX)
    Blend: AUG-CC-PVTZ-JKFIT
	 Reference Energy          =    -578.6254306084658765 [Eh]
	 Singles Energy            =      -0.0000000000000000 [Eh]
	 Same-Spin Energy          =      -0.6156945887218819 [Eh]
	 Opposite-Spin Energy      =      -1.8192830636720387 [Eh]
	 Correlation Energy        =      -2.4349776523939206 [Eh]
	 Total Energy              =    -581.0604082608598446 [Eh]

	 ================> DF-SCS-MP2 Energies <==================
	-----------------------------------------------------------
	 SCS Same-Spin Scale       =       0.3333333333333333 [-]
	 SCS Opposite-Spin Scale   =       1.2000000000000000 [-]
	 SCS Same-Spin Energy      =      -0.2052315295739606 [Eh]
	 SCS Opposite-Spin Energy  =      -2.1831396764064466 [Eh]
	 SCS Correlation Energy    =      -2.3883712059804072 [Eh]
	 SCS Total Energy          =    -581.0138018144463103 [Eh]
	-----------------------------------------------------------

  Dipole Moment: [D]
     X:    -0.1076      Y:    -6.7706      Z:    -0.9335     Total:     6.8355

*** Psi4 exiting successfully. Buy a developer a beer!
