                               Psi4 1.3.2 release

  ==> Input File <==

--------------------------------------------------------------------------
#psi4
#
memory 32 gb

molecule  {
0 1
  O       -1.4697740     2.5644010     0.0803940
  N        1.9191590    -0.5831280    -0.0556370
  N       -1.9102790     0.3061000     0.0485010
  N       -0.3427170    -1.4672350    -0.0387560
  N        1.5166440     1.6409000    -0.0105650
  N       -2.6294290    -1.9169300     0.1110730
  C        0.5576980    -0.4369160    -0.0295360
  C        0.3337570     0.9396730    -0.0094060
  C       -1.0221650     1.4237120     0.0351730
  C        2.4390620     0.6894910    -0.0699270
  C       -1.5730580    -1.0260450     0.0187980
  C        2.6353690    -1.8453210    -0.0655260
  H        3.5092610     0.8590810    -0.0866130
  H        2.3969774    -2.3768206     0.7368199
  H        2.3794720    -2.4140780    -0.9605130
  H        3.7041390    -1.6305860    -0.0592400
  H       -2.8879820     0.5691470     0.1693100
  H       -2.3258040    -2.8676930    -0.0642460
  H       -3.4596940    -1.6726380    -0.4173570
units angstrom
no_reorient  #important for SAPT in psi4, default
symmetry c1  #important for SAPT in psi4, default
}

set PROPERTIES_ORIGIN ["COM"]
properties('MP2/aug-cc-pvtz', properties = ['dipole'])
--------------------------------------------------------------------------

    Molecular point group: c1
  Charge       = 0
  Multiplicity = 1
  Basis Set: AUG-CC-PVTZ
    Blend: AUG-CC-PVTZ
  Basis Set: (AUG-CC-PVTZ AUX)
    Blend: AUG-CC-PVTZ-JKFIT

    Orbital Energies [Eh]
    ---------------------

    Doubly Occupied:

       1A    -20.520719     2A    -15.632100     3A    -15.629175
       4A    -15.610637     5A    -15.570830     6A    -15.559180
       7A    -11.395974     8A    -11.364088     9A    -11.318900
      10A    -11.306831    11A    -11.277792    12A    -11.246658
      13A     -1.390512    14A     -1.360347    15A     -1.333871
      16A     -1.219012    17A     -1.216137    18A     -1.191151
      19A     -1.029686    20A     -0.995298    21A     -0.902097
      22A     -0.882091    23A     -0.808196    24A     -0.769175
      25A     -0.741559    26A     -0.729324    27A     -0.692339
      28A     -0.676500    29A     -0.651842    30A     -0.644659
      31A     -0.627723    32A     -0.611312    33A     -0.593452
      34A     -0.582744    35A     -0.563808    36A     -0.542563
      37A     -0.493894    38A     -0.459172    39A     -0.439723
      40A     -0.429182    41A     -0.428626    42A     -0.393278
      43A     -0.298180

  @DF-RHF Final Energy:  -578.62472950544588

   => Energetics <=

    Nuclear Repulsion Energy =            693.9232947897596659
    One-Electron Energy =               -2164.8353702476083527
    Two-Electron Energy =                 892.2873459524028021
    Total Energy =                       -578.6247295054458846
  Basis Set: (AUG-CC-PVTZ AUX)
    Blend: AUG-CC-PVTZ-RI
    Molecular point group: c1

    Geometry (in Angstrom), charge = 0, multiplicity = 1:

       Center              X                  Y                   Z               Mass
    ------------   -----------------  -----------------  -----------------  -----------------
         O           -1.469920678740     2.564073841572     0.080888201845    15.994914619570
         N            1.919012321260    -0.583455158428    -0.055142798155    14.003074004430
         N           -1.910425678740     0.305772841572     0.048995201845    14.003074004430
         N           -0.342863678740    -1.467562158428    -0.038261798155    14.003074004430
         N            1.516497321260     1.640572841572    -0.010070798155    14.003074004430
         N           -2.629575678740    -1.917257158428     0.111567201845    14.003074004430
         C            0.557551321260    -0.437243158428    -0.029041798155    12.000000000000
         C            0.333610321260     0.939345841572    -0.008911798155    12.000000000000
         C           -1.022311678740     1.423384841572     0.035667201845    12.000000000000
         C            2.438915321260     0.689163841572    -0.069432798155    12.000000000000
         C           -1.573204678740    -1.026372158428     0.019292201845    12.000000000000
         C            2.635222321260    -1.845648158428    -0.065031798155    12.000000000000
         H            3.509114321260     0.858753841572    -0.086118798155     1.007825032230
         H            2.396830721260    -2.377147758428     0.737314101845     1.007825032230
         H            2.379325321260    -2.414405158428    -0.960018798155     1.007825032230
         H            3.703992321260    -1.630913158428    -0.058745798155     1.007825032230
         H           -2.888128678740     0.568819841572     0.169804201845     1.007825032230
         H           -2.325950678740    -2.868020158428    -0.063751798155     1.007825032230
         H           -3.459840678740    -1.672965158428    -0.416862798155     1.007825032230

  Basis Set: AUG-CC-PVTZ
    Blend: AUG-CC-PVTZ
  Basis Set: (AUG-CC-PVTZ AUX)
    Blend: AUG-CC-PVTZ-JKFIT
	 Reference Energy          =    -578.6247295054458846 [Eh]
	 Singles Energy            =      -0.0000000000000000 [Eh]
	 Same-Spin Energy          =      -0.6160354027513593 [Eh]
	 Opposite-Spin Energy      =      -1.8192824060379431 [Eh]
	 Correlation Energy        =      -2.4353178087893026 [Eh]
	 Total Energy              =    -581.0600473142351348 [Eh]

	 ================> DF-SCS-MP2 Energies <==================
	-----------------------------------------------------------
	 SCS Same-Spin Scale       =       0.3333333333333333 [-]
	 SCS Opposite-Spin Scale   =       1.2000000000000000 [-]
	 SCS Same-Spin Energy      =      -0.2053451342504531 [Eh]
	 SCS Opposite-Spin Energy  =      -2.1831388872455317 [Eh]
	 SCS Correlation Energy    =      -2.3884840214959846 [Eh]
	 SCS Total Energy          =    -581.0132135269418541 [Eh]
	-----------------------------------------------------------

  Dipole Moment: [D]
     X:     0.0072      Y:    -6.8184      Z:    -0.9268     Total:     6.8811

*** Psi4 exiting successfully. Buy a developer a beer!
