                               Psi4 1.3.2 release

  ==> Input File <==

--------------------------------------------------------------------------
#psi4
#
memory 32 gb

molecule  {
0 1
  O       -1.4697740     2.5644010     0.0803940
  N        1.9191590    -0.5831280    -0.0556370
  N       -1.9102790     0.3061000     0.0485010
  N       -0.3427170    -1.4672350    -0.0387560
  N        1.4680419     1.5913042    -0.0115241
  N       -2.6294290    -1.9169300     0.1110730
  C        0.5576980    -0.4369160    -0.0295360
  C        0.3337570     0.9396730    -0.0094060
  C       -1.0221650     1.4237120     0.0351730
  C        2.4390620     0.6894910    -0.0699270
  C       -1.5730580    -1.0260450     0.0187980
  C        2.6353690    -1.8453210    -0.0655260
  H        3.5166246     0.8028800    -0.0890788
  H        2.3729340    -2.4304260     0.8177420
  H        2.3794720    -2.4140780    -0.9605130
  H        3.7041390    -1.6305860    -0.0592400
  H       -2.8879820     0.5691470     0.1693100
  H       -2.3258040    -2.8676930    -0.0642460
  H       -3.4596940    -1.6726380    -0.4173570
units angstrom
no_reorient  #important for SAPT in psi4, default
symmetry c1  #important for SAPT in psi4, default
}

set PROPERTIES_ORIGIN ["COM"]
properties('MP2/aug-cc-pvtz', properties = ['dipole'])
--------------------------------------------------------------------------

    Molecular point group: c1
  Charge       = 0
  Multiplicity = 1
  Basis Set: AUG-CC-PVTZ
    Blend: AUG-CC-PVTZ
  Basis Set: (AUG-CC-PVTZ AUX)
    Blend: AUG-CC-PVTZ-JKFIT

    Orbital Energies [Eh]
    ---------------------

    Doubly Occupied:

       1A    -20.522690     2A    -15.632089     3A    -15.628818
       4A    -15.609268     5A    -15.568714     6A    -15.552382
       7A    -11.393821     8A    -11.364834     9A    -11.313793
      10A    -11.304664    11A    -11.288543    12A    -11.243181
      13A     -1.392387    14A     -1.364257    15A     -1.334728
      16A     -1.220449    17A     -1.217517    18A     -1.196014
      19A     -1.026380    20A     -0.989009    21A     -0.904203
      22A     -0.880415    23A     -0.809530    24A     -0.768113
      25A     -0.744856    26A     -0.728821    27A     -0.691796
      28A     -0.671444    29A     -0.648847    30A     -0.640364
      31A     -0.626038    32A     -0.611814    33A     -0.608358
      34A     -0.577959    35A     -0.564450    36A     -0.541542
      37A     -0.492204    38A     -0.458562    39A     -0.441311
      40A     -0.428708    41A     -0.421317    42A     -0.397959
      43A     -0.292521

  @DF-RHF Final Energy:  -578.62657720603238

   => Energetics <=

    Nuclear Repulsion Energy =            695.5712039387476580
    One-Electron Energy =               -2168.1662229150806525
    Two-Electron Energy =                 893.9684417703006147
    Total Energy =                       -578.6265772060323798
  Basis Set: (AUG-CC-PVTZ AUX)
    Blend: AUG-CC-PVTZ-RI
    Molecular point group: c1

    Geometry (in Angstrom), charge = 0, multiplicity = 1:

       Center              X                  Y                   Z               Mass
    ------------   -----------------  -----------------  -----------------  -----------------
         O           -1.465695743895     2.568951671544     0.080490541221    15.994914619570
         N            1.923237256105    -0.578577328456    -0.055540458779    14.003074004430
         N           -1.906200743895     0.310650671544     0.048597541221    14.003074004430
         N           -0.338638743895    -1.462684328456    -0.038659458779    14.003074004430
         N            1.472120156105     1.595854871544    -0.011427558779    14.003074004430
         N           -2.625350743895    -1.912379328456     0.111169541221    14.003074004430
         C            0.561776256105    -0.432365328456    -0.029439458779    12.000000000000
         C            0.337835256105     0.944223671544    -0.009309458779    12.000000000000
         C           -1.018086743895     1.428262671544     0.035269541221    12.000000000000
         C            2.443140256105     0.694041671544    -0.069830458779    12.000000000000
         C           -1.568979743895    -1.021494328456     0.018894541221    12.000000000000
         C            2.639447256105    -1.840770328456    -0.065429458779    12.000000000000
         H            3.520702856105     0.807430671544    -0.088982258779     1.007825032230
         H            2.377012256105    -2.425875328456     0.817838541221     1.007825032230
         H            2.383550256105    -2.409527328456    -0.960416458779     1.007825032230
         H            3.708217256105    -1.626035328456    -0.059143458779     1.007825032230
         H           -2.883903743895     0.573697671544     0.169406541221     1.007825032230
         H           -2.321725743895    -2.863142328456    -0.064149458779     1.007825032230
         H           -3.455615743895    -1.668087328456    -0.417260458779     1.007825032230

  Basis Set: AUG-CC-PVTZ
    Blend: AUG-CC-PVTZ
  Basis Set: (AUG-CC-PVTZ AUX)
    Blend: AUG-CC-PVTZ-JKFIT
	 Reference Energy          =    -578.6265772060323798 [Eh]
	 Singles Energy            =      -0.0000000000000000 [Eh]
	 Same-Spin Energy          =      -0.6169811268988491 [Eh]
	 Opposite-Spin Energy      =      -1.8196979091783554 [Eh]
	 Correlation Energy        =      -2.4366790360772046 [Eh]
	 Total Energy              =    -581.0632562421095599 [Eh]

	 ================> DF-SCS-MP2 Energies <==================
	-----------------------------------------------------------
	 SCS Same-Spin Scale       =       0.3333333333333333 [-]
	 SCS Opposite-Spin Scale   =       1.2000000000000000 [-]
	 SCS Same-Spin Energy      =      -0.2056603756329497 [Eh]
	 SCS Opposite-Spin Energy  =      -2.1836374910140264 [Eh]
	 SCS Correlation Energy    =      -2.3892978666469760 [Eh]
	 SCS Total Energy          =    -581.0158750726793642 [Eh]
	-----------------------------------------------------------

  Dipole Moment: [D]
     X:     0.0797      Y:    -6.6777      Z:    -0.9389     Total:     6.7439

*** Psi4 exiting successfully. Buy a developer a beer!
