                               Psi4 1.4a3.dev225

  ==> Input File <==

--------------------------------------------------------------------------
#psi4
#
memory 32 gb

molecule  {
0 1
  O        1.6617960     2.5152110     0.0229320
  N       -1.9329240    -0.4005880    -0.0147920
  N        1.9545050     0.2323110     0.0113410
  N        0.2669280    -1.4301930    -0.0208730
  N       -1.3834780     1.7915450    -0.0193170
  N        2.5221760    -2.0364130     0.0734370
  C       -0.5634760    -0.3442740    -0.0026930
  C       -0.2533566     0.9950013    -0.0145889
  C        1.1380320     1.4076430     0.0031510
  C       -2.3683130     0.9036150    -0.0164120
  C        1.5275980    -1.0721200    -0.0057920
  C       -2.7322540    -1.6127190     0.0339130
  H       -3.4247340     1.1445090    -0.0228960
  H       -2.2735910    -2.3629350    -0.6109560
  H       -2.7853950    -1.9995380     1.0543320
  H       -3.7366260    -1.3828770    -0.3245450
  H        2.9468270     0.4301980     0.1174830
  H        2.1372730    -2.9631930    -0.0801050
  H        3.3349710    -1.8642740    -0.5097710
units angstrom
no_reorient  #important for SAPT in psi4, default
symmetry c1  #important for SAPT in psi4, default
}

set PROPERTIES_ORIGIN ["COM"]
properties('MP2/aug-cc-pvtz', properties = ['dipole'])
--------------------------------------------------------------------------

    Molecular point group: c1
  Charge       = 0
  Multiplicity = 1
  Basis Set: AUG-CC-PVTZ
    Blend: AUG-CC-PVTZ
  Basis Set: (AUG-CC-PVTZ AUX)
    Blend: AUG-CC-PVTZ-JKFIT

    Orbital Energies [Eh]
    ---------------------

    Doubly Occupied:

       1A    -20.523633     2A    -15.631352     3A    -15.629188
       4A    -15.610493     5A    -15.570449     6A    -15.559791
       7A    -11.395766     8A    -11.366648     9A    -11.316912
      10A    -11.307257    11A    -11.288514    12A    -11.246345
      13A     -1.391476    14A     -1.361334    15A     -1.333842
      16A     -1.218791    17A     -1.215369    18A     -1.189139
      19A     -1.030970    20A     -0.984741    21A     -0.900194
      22A     -0.881866    23A     -0.807839    24A     -0.768462
      25A     -0.740104    26A     -0.727581    27A     -0.691180
      28A     -0.670802    29A     -0.650214    30A     -0.641351
      31A     -0.625004    32A     -0.612463    33A     -0.591492
      34A     -0.577691    35A     -0.561083    36A     -0.541780
      37A     -0.492694    38A     -0.460115    39A     -0.440499
      40A     -0.431389    41A     -0.429805    42A     -0.391729
      43A     -0.301117

  @DF-RHF Final Energy:  -578.63060313896904

   => Energetics <=

    Nuclear Repulsion Energy =            693.3795698884194962
    One-Electron Energy =               -2163.8034132399670852
    Two-Electron Energy =                 891.7932402125784392
    Total Energy =                       -578.6306031389690361
  Basis Set: (AUG-CC-PVTZ AUX)
    Blend: AUG-CC-PVTZ-RI
    Molecular point group: c1

    Geometry (in Angstrom), charge = 0, multiplicity = 1:

       Center              X                  Y                   Z               Mass
    ------------   -----------------  -----------------  -----------------  -----------------
         O            1.639299930393     2.462653409240     0.020656749384    15.994914619570
         N           -1.955420069607    -0.453145590760    -0.017067250616    14.003074004430
         N            1.932008930393     0.179753409240     0.009065749384    14.003074004430
         N            0.244431930393    -1.482750590760    -0.023148250616    14.003074004430
         N           -1.405974069607     1.738987409240    -0.021592250616    14.003074004430
         N            2.499679930393    -2.088970590760     0.071161749384    14.003074004430
         C           -0.585972069607    -0.396831590760    -0.004968250616    12.000000000000
         C           -0.275852669607     0.942443709240    -0.016864150616    12.000000000000
         C            1.115535930393     1.355085409240     0.000875749384    12.000000000000
         C           -2.390809069607     0.851057409240    -0.018687250616    12.000000000000
         C            1.505101930393    -1.124677590760    -0.008067250616    12.000000000000
         C           -2.754750069607    -1.665276590760     0.031637749384    12.000000000000
         H           -3.447230069607     1.091951409240    -0.025171250616     1.007825032230
         H           -2.296087069607    -2.415492590760    -0.613231250616     1.007825032230
         H           -2.807891069607    -2.052095590760     1.052056749384     1.007825032230
         H           -3.759122069607    -1.435434590760    -0.326820250616     1.007825032230
         H            2.924330930393     0.377640409240     0.115207749384     1.007825032230
         H            2.114776930393    -3.015750590760    -0.082380250616     1.007825032230
         H            3.312474930393    -1.916831590760    -0.512046250616     1.007825032230

  Basis Set: AUG-CC-PVTZ
    Blend: AUG-CC-PVTZ
  Basis Set: (AUG-CC-PVTZ AUX)
    Blend: AUG-CC-PVTZ-JKFIT
	 Reference Energy          =    -578.6306031389690361 [Eh]
	 Singles Energy            =      -0.0000000000000000 [Eh]
	 Same-Spin Energy          =      -0.6157339898722014 [Eh]
	 Opposite-Spin Energy      =      -1.8195638276441271 [Eh]
	 Correlation Energy        =      -2.4352978175163287 [Eh]
	 Total Energy              =    -581.0659009564853932 [Eh]

	 ================> DF-SCS-MP2 Energies <==================
	-----------------------------------------------------------
	 SCS Same-Spin Scale       =       0.3333333333333333 [-]
	 SCS Opposite-Spin Scale   =       1.2000000000000000 [-]
	 SCS Same-Spin Energy      =      -0.2052446632907338 [Eh]
	 SCS Opposite-Spin Energy  =      -2.1834765931729523 [Eh]
	 SCS Correlation Energy    =      -2.3887212564636862 [Eh]
	 SCS Total Energy          =    -581.0193243954327045 [Eh]
	-----------------------------------------------------------

  Dipole Moment: [D]
     X:    -0.4791      Y:    -6.7123      Z:    -0.8510     Total:     6.7830

*** Psi4 exiting successfully. Buy a developer a beer!
