                               Psi4 1.3.2 release

  ==> Input File <==

--------------------------------------------------------------------------
#psi4
#
memory 32 gb

molecule  {
0 1
  O       -1.4697740     2.5644010     0.0803940
  N        1.8532721    -0.5541666    -0.0548144
  N       -1.9102790     0.3061000     0.0485010
  N       -0.3427170    -1.4672350    -0.0387560
  N        1.5166440     1.6409000    -0.0105650
  N       -2.6294290    -1.9169300     0.1110730
  C        0.5576980    -0.4369160    -0.0295360
  C        0.3337570     0.9396730    -0.0094060
  C       -1.0221650     1.4237120     0.0351730
  C        2.4390620     0.6894910    -0.0699270
  C       -1.5730580    -1.0260450     0.0187980
  C        2.6353690    -1.8453210    -0.0655260
  H        3.4989152     0.9148645    -0.0867500
  H        2.3729340    -2.4304260     0.8177420
  H        2.3794720    -2.4140780    -0.9605130
  H        3.7041390    -1.6305860    -0.0592400
  H       -2.8879820     0.5691470     0.1693100
  H       -2.3258040    -2.8676930    -0.0642460
  H       -3.4596940    -1.6726380    -0.4173570
units angstrom
no_reorient  #important for SAPT in psi4, default
symmetry c1  #important for SAPT in psi4, default
}

set PROPERTIES_ORIGIN ["COM"]
properties('MP2/aug-cc-pvtz', properties = ['dipole'])
--------------------------------------------------------------------------

    Molecular point group: c1
  Charge       = 0
  Multiplicity = 1
  Basis Set: AUG-CC-PVTZ
    Blend: AUG-CC-PVTZ
  Basis Set: (AUG-CC-PVTZ AUX)
    Blend: AUG-CC-PVTZ-JKFIT

    Orbital Energies [Eh]
    ---------------------

    Doubly Occupied:

       1A    -20.517997     2A    -15.634355     3A    -15.626862
       4A    -15.610122     5A    -15.568840     6A    -15.559363
       7A    -11.395372     8A    -11.361107     9A    -11.312209
      10A    -11.301943    11A    -11.295659    12A    -11.240835
      13A     -1.392551    14A     -1.367998    15A     -1.333836
      16A     -1.217651    17A     -1.216167    18A     -1.183714
      19A     -1.033295    20A     -0.984465    21A     -0.902026
      22A     -0.881658    23A     -0.807276    24A     -0.767526
      25A     -0.743669    26A     -0.729493    27A     -0.691225
      28A     -0.673559    29A     -0.644740    30A     -0.639424
      31A     -0.624311    32A     -0.604369    33A     -0.593926
      34A     -0.585345    35A     -0.566390    36A     -0.541904
      37A     -0.489515    38A     -0.458310    39A     -0.438127
      40A     -0.427850    41A     -0.427360    42A     -0.392594
      43A     -0.298024

  @DF-RHF Final Energy:  -578.62484210053435

   => Energetics <=

    Nuclear Repulsion Energy =            694.8296140495397140
    One-Electron Energy =               -2166.7429893780313250
    Two-Electron Energy =                 893.2885332279572594
    Total Energy =                       -578.6248421005343516
  Basis Set: (AUG-CC-PVTZ AUX)
    Blend: AUG-CC-PVTZ-RI
    Molecular point group: c1

    Geometry (in Angstrom), charge = 0, multiplicity = 1:

       Center              X                  Y                   Z               Mass
    ------------   -----------------  -----------------  -----------------  -----------------
         O           -1.464121284040     2.561603641207     0.080325174305    15.994914619570
         N            1.858924815960    -0.556963958793    -0.054883225695    14.003074004430
         N           -1.904626284040     0.303302641207     0.048432174305    14.003074004430
         N           -0.337064284040    -1.470032358793    -0.038824825695    14.003074004430
         N            1.522296715960     1.638102641207    -0.010633825695    14.003074004430
         N           -2.623776284040    -1.919727358793     0.111004174305    14.003074004430
         C            0.563350715960    -0.439713358793    -0.029604825695    12.000000000000
         C            0.339409715960     0.936875641207    -0.009474825695    12.000000000000
         C           -1.016512284040     1.420914641207     0.035104174305    12.000000000000
         C            2.444714715960     0.686693641207    -0.069995825695    12.000000000000
         C           -1.567405284040    -1.028842358793     0.018729174305    12.000000000000
         C            2.641021715960    -1.848118358793    -0.065594825695    12.000000000000
         H            3.504567915960     0.912067141207    -0.086818825695     1.007825032230
         H            2.378586715960    -2.433223358793     0.817673174305     1.007825032230
         H            2.385124715960    -2.416875358793    -0.960581825695     1.007825032230
         H            3.709791715960    -1.633383358793    -0.059308825695     1.007825032230
         H           -2.882329284040     0.566349641207     0.169241174305     1.007825032230
         H           -2.320151284040    -2.870490358793    -0.064314825695     1.007825032230
         H           -3.454041284040    -1.675435358793    -0.417425825695     1.007825032230

  Basis Set: AUG-CC-PVTZ
    Blend: AUG-CC-PVTZ
  Basis Set: (AUG-CC-PVTZ AUX)
    Blend: AUG-CC-PVTZ-JKFIT
	 Reference Energy          =    -578.6248421005343516 [Eh]
	 Singles Energy            =      -0.0000000000000000 [Eh]
	 Same-Spin Energy          =      -0.6157307384036110 [Eh]
	 Opposite-Spin Energy      =      -1.8189176677063801 [Eh]
	 Correlation Energy        =      -2.4346484061099911 [Eh]
	 Total Energy              =    -581.0594905066443516 [Eh]

	 ================> DF-SCS-MP2 Energies <==================
	-----------------------------------------------------------
	 SCS Same-Spin Scale       =       0.3333333333333333 [-]
	 SCS Opposite-Spin Scale   =       1.2000000000000000 [-]
	 SCS Same-Spin Energy      =      -0.2052435794678703 [Eh]
	 SCS Opposite-Spin Energy  =      -2.1827012012476561 [Eh]
	 SCS Correlation Energy    =      -2.3879447807155265 [Eh]
	 SCS Total Energy          =    -581.0127868812498946 [Eh]
	-----------------------------------------------------------

  Dipole Moment: [D]
     X:     0.1948      Y:    -6.9063      Z:    -0.9427     Total:     6.9730

*** Psi4 exiting successfully. Buy a developer a beer!
