                               Psi4 1.3.2 release

  ==> Input File <==

--------------------------------------------------------------------------
#psi4
#
memory 32 gb

molecule  {
0 1
  O       -1.4697740     2.5644010     0.0803940
  N        1.9191590    -0.5831280    -0.0556370
  N       -1.9102790     0.3061000     0.0485010
  N       -0.3427170    -1.4672350    -0.0387560
  N        1.5166440     1.6409000    -0.0105650
  N       -2.6294290    -1.9169300     0.1110730
  C        0.4260923    -0.5875086    -0.0308836
  C        0.3337570     0.9396730    -0.0094060
  C       -1.0221650     1.4237120     0.0351730
  C        2.4390620     0.6894910    -0.0699270
  C       -1.5730580    -1.0260450     0.0187980
  C        2.6353690    -1.8453210    -0.0655260
  H        3.5092610     0.8590810    -0.0866130
  H        2.3729340    -2.4304260     0.8177420
  H        2.3794720    -2.4140780    -0.9605130
  H        3.7041390    -1.6305860    -0.0592400
  H       -2.8879820     0.5691470     0.1693100
  H       -2.3258040    -2.8676930    -0.0642460
  H       -3.4596940    -1.6726380    -0.4173570
units angstrom
no_reorient  #important for SAPT in psi4, default
symmetry c1  #important for SAPT in psi4, default
}

set PROPERTIES_ORIGIN ["COM"]
properties('MP2/aug-cc-pvtz', properties = ['dipole'])
--------------------------------------------------------------------------

    Molecular point group: c1
  Charge       = 0
  Multiplicity = 1
  Basis Set: AUG-CC-PVTZ
    Blend: AUG-CC-PVTZ
  Basis Set: (AUG-CC-PVTZ AUX)
    Blend: AUG-CC-PVTZ-JKFIT

    Orbital Energies [Eh]
    ---------------------

    Doubly Occupied:

       1A    -20.505184     2A    -15.642986     3A    -15.625431
       4A    -15.617987     5A    -15.580903     6A    -15.554093
       7A    -11.418258     8A    -11.351284     9A    -11.332310
      10A    -11.305636    11A    -11.278027    12A    -11.250251
      13A     -1.412670    14A     -1.359243    15A     -1.318633
      16A     -1.272155    17A     -1.227955    18A     -1.177910
      19A     -1.010404    20A     -0.966879    21A     -0.926063
      22A     -0.889961    23A     -0.819072    24A     -0.752406
      25A     -0.740033    26A     -0.732815    27A     -0.703159
      28A     -0.675091    29A     -0.662609    30A     -0.633379
      31A     -0.629146    32A     -0.605819    33A     -0.586003
      34A     -0.568968    35A     -0.552937    36A     -0.546085
      37A     -0.494204    38A     -0.491302    39A     -0.439191
      40A     -0.433711    41A     -0.408671    42A     -0.380711
      43A     -0.269109

  @DF-RHF Final Energy:  -578.55246678088963

   => Energetics <=

    Nuclear Repulsion Energy =            693.2395871386122508
    One-Electron Energy =               -2163.2868241295218468
    Two-Electron Energy =                 891.4947702100199649
    Total Energy =                       -578.5524667808896311
  Basis Set: (AUG-CC-PVTZ AUX)
    Blend: AUG-CC-PVTZ-RI
    Molecular point group: c1

    Geometry (in Angstrom), charge = 0, multiplicity = 1:

       Center              X                  Y                   Z               Mass
    ------------   -----------------  -----------------  -----------------  -----------------
         O           -1.460206327673     2.575349008258     0.080492090651    15.994914619570
         N            1.928726672327    -0.572179991742    -0.055538909349    14.003074004430
         N           -1.900711327673     0.317048008258     0.048599090651    14.003074004430
         N           -0.333149327673    -1.456286991742    -0.038657909349    14.003074004430
         N            1.526211672327     1.651848008258    -0.010466909349    14.003074004430
         N           -2.619861327673    -1.905981991742     0.111171090651    14.003074004430
         C            0.435659972327    -0.576560591742    -0.030785509349    12.000000000000
         C            0.343324672327     0.950621008258    -0.009307909349    12.000000000000
         C           -1.012597327673     1.434660008258     0.035271090651    12.000000000000
         C            2.448629672327     0.700439008258    -0.069828909349    12.000000000000
         C           -1.563490327673    -1.015096991742     0.018896090651    12.000000000000
         C            2.644936672327    -1.834372991742    -0.065427909349    12.000000000000
         H            3.518828672327     0.870029008258    -0.086514909349     1.007825032230
         H            2.382501672327    -2.419477991742     0.817840090651     1.007825032230
         H            2.389039672327    -2.403129991742    -0.960414909349     1.007825032230
         H            3.713706672327    -1.619637991742    -0.059141909349     1.007825032230
         H           -2.878414327673     0.580095008258     0.169408090651     1.007825032230
         H           -2.316236327673    -2.856744991742    -0.064147909349     1.007825032230
         H           -3.450126327673    -1.661689991742    -0.417258909349     1.007825032230

  Basis Set: AUG-CC-PVTZ
    Blend: AUG-CC-PVTZ
  Basis Set: (AUG-CC-PVTZ AUX)
    Blend: AUG-CC-PVTZ-JKFIT
	 Reference Energy          =    -578.5524667808896311 [Eh]
	 Singles Energy            =      -0.0000000000000000 [Eh]
	 Same-Spin Energy          =      -0.6211600582193639 [Eh]
	 Opposite-Spin Energy      =      -1.8251306069845521 [Eh]
	 Correlation Energy        =      -2.4462906652039162 [Eh]
	 Total Energy              =    -580.9987574460935775 [Eh]

	 ================> DF-SCS-MP2 Energies <==================
	-----------------------------------------------------------
	 SCS Same-Spin Scale       =       0.3333333333333333 [-]
	 SCS Opposite-Spin Scale   =       1.2000000000000000 [-]
	 SCS Same-Spin Energy      =      -0.2070533527397880 [Eh]
	 SCS Opposite-Spin Energy  =      -2.1901567283814622 [Eh]
	 SCS Correlation Energy    =      -2.3972100811212504 [Eh]
	 SCS Total Energy          =    -580.9496768620108469 [Eh]
	-----------------------------------------------------------

  Dipole Moment: [D]
     X:    -0.6351      Y:    -7.2841      Z:    -0.9391     Total:     7.3718

*** Psi4 exiting successfully. Buy a developer a beer!
