                               Psi4 1.3.2 release

  ==> Input File <==

--------------------------------------------------------------------------
#psi4
#
memory 32 gb

molecule  {
0 1
  O       -1.4697740     2.5644010     0.0803940
  N        1.9191590    -0.5831280    -0.0556370
  N       -1.9102790     0.3061000     0.0485010
  N       -0.3427170    -1.4672350    -0.0387560
  N        1.5166440     1.6409000    -0.0105650
  N       -2.6294290    -1.9169300     0.1110730
  C        0.5576980    -0.4369160    -0.0295360
  C        0.3337570     0.9396730    -0.0094060
  C       -1.0221650     1.4237120     0.0351730
  C        2.4390620     0.6894910    -0.0699270
  C       -1.5730580    -1.0260450     0.0187980
  C        2.6353690    -1.8453210    -0.0655260
  H        3.5092610     0.8590810    -0.0866130
  H        2.3248472    -2.5376367     0.9795861
  H        2.3794720    -2.4140780    -0.9605130
  H        3.7041390    -1.6305860    -0.0592400
  H       -2.8879820     0.5691470     0.1693100
  H       -2.3258040    -2.8676930    -0.0642460
  H       -3.4596940    -1.6726380    -0.4173570
units angstrom
no_reorient  #important for SAPT in psi4, default
symmetry c1  #important for SAPT in psi4, default
}

set PROPERTIES_ORIGIN ["COM"]
properties('MP2/aug-cc-pvtz', properties = ['dipole'])
--------------------------------------------------------------------------

    Molecular point group: c1
  Charge       = 0
  Multiplicity = 1
  Basis Set: AUG-CC-PVTZ
    Blend: AUG-CC-PVTZ
  Basis Set: (AUG-CC-PVTZ AUX)
    Blend: AUG-CC-PVTZ-JKFIT

    Orbital Energies [Eh]
    ---------------------

    Doubly Occupied:

       1A    -20.521432     2A    -15.635249     3A    -15.629729
       4A    -15.610889     5A    -15.571078     6A    -15.560937
       7A    -11.396347     8A    -11.364866     9A    -11.320018
      10A    -11.310453    11A    -11.308651    12A    -11.247911
      13A     -1.391263    14A     -1.361564    15A     -1.334547
      16A     -1.219389    17A     -1.216643    18A     -1.190908
      19A     -1.029910    20A     -0.976567    21A     -0.901390
      22A     -0.882577    23A     -0.808060    24A     -0.764952
      25A     -0.741215    26A     -0.729676    27A     -0.692427
      28A     -0.667444    29A     -0.649417    30A     -0.637283
      31A     -0.623928    32A     -0.608824    33A     -0.594721
      34A     -0.574463    35A     -0.550740    36A     -0.532122
      37A     -0.492973    38A     -0.459582    39A     -0.440598
      40A     -0.429855    41A     -0.429403    42A     -0.391324
      43A     -0.299136

  @DF-RHF Final Energy:  -578.61013741757642

   => Energetics <=

    Nuclear Repulsion Energy =            692.6515741644627724
    One-Electron Energy =               -2162.3224982890092178
    Two-Electron Energy =                 891.0607867069700205
    Total Energy =                       -578.6101374175764249
  Basis Set: (AUG-CC-PVTZ AUX)
    Blend: AUG-CC-PVTZ-RI
    Molecular point group: c1

    Geometry (in Angstrom), charge = 0, multiplicity = 1:

       Center              X                  Y                   Z               Mass
    ------------   -----------------  -----------------  -----------------  -----------------
         O           -1.469480278929     2.565055724057     0.079405962942    15.994914619570
         N            1.919452721071    -0.582473275943    -0.056625037058    14.003074004430
         N           -1.909985278929     0.306754724057     0.047512962942    14.003074004430
         N           -0.342423278929    -1.466580275943    -0.039744037058    14.003074004430
         N            1.516937721071     1.641554724057    -0.011553037058    14.003074004430
         N           -2.629135278929    -1.916275275943     0.110084962942    14.003074004430
         C            0.557991721071    -0.436261275943    -0.030524037058    12.000000000000
         C            0.334050721071     0.940327724057    -0.010394037058    12.000000000000
         C           -1.021871278929     1.424366724057     0.034184962942    12.000000000000
         C            2.439355721071     0.690145724057    -0.070915037058    12.000000000000
         C           -1.572764278929    -1.025390275943     0.017809962942    12.000000000000
         C            2.635662721071    -1.844666275943    -0.066514037058    12.000000000000
         H            3.509554721071     0.859735724057    -0.087601037058     1.007825032230
         H            2.325140921071    -2.536981975943     0.978598062942     1.007825032230
         H            2.379765721071    -2.413423275943    -0.961501037058     1.007825032230
         H            3.704432721071    -1.629931275943    -0.060228037058     1.007825032230
         H           -2.887688278929     0.569801724057     0.168321962942     1.007825032230
         H           -2.325510278929    -2.867038275943    -0.065234037058     1.007825032230
         H           -3.459400278929    -1.671983275943    -0.418345037058     1.007825032230

  Basis Set: AUG-CC-PVTZ
    Blend: AUG-CC-PVTZ
  Basis Set: (AUG-CC-PVTZ AUX)
    Blend: AUG-CC-PVTZ-JKFIT
	 Reference Energy          =    -578.6101374175764249 [Eh]
	 Singles Energy            =      -0.0000000000000000 [Eh]
	 Same-Spin Energy          =      -0.6162487234855727 [Eh]
	 Opposite-Spin Energy      =      -1.8215468043210374 [Eh]
	 Correlation Energy        =      -2.4377955278066104 [Eh]
	 Total Energy              =    -581.0479329453830815 [Eh]

	 ================> DF-SCS-MP2 Energies <==================
	-----------------------------------------------------------
	 SCS Same-Spin Scale       =       0.3333333333333333 [-]
	 SCS Opposite-Spin Scale   =       1.2000000000000000 [-]
	 SCS Same-Spin Energy      =      -0.2054162411618576 [Eh]
	 SCS Opposite-Spin Energy  =      -2.1858561651852448 [Eh]
	 SCS Correlation Energy    =      -2.3912724063471025 [Eh]
	 SCS Total Energy          =    -581.0014098239234954 [Eh]
	-----------------------------------------------------------

  Dipole Moment: [D]
     X:    -0.0685      Y:    -6.6941      Z:    -0.9883     Total:     6.7670

*** Psi4 exiting successfully. Buy a developer a beer!
