                               Psi4 1.3.2 release

  ==> Input File <==

--------------------------------------------------------------------------
#psi4
#
memory 32 gb

molecule  {
0 1
  O       -1.4697740     2.5644010     0.0803940
  N        1.9638185    -0.6004969    -0.0582070
  N       -1.9102790     0.3061000     0.0485010
  N       -0.3427170    -1.4672350    -0.0387560
  N        1.5503824     1.6725752    -0.0120318
  N       -2.6294290    -1.9169300     0.1110730
  C        0.5576980    -0.4369160    -0.0295360
  C        0.3337570     0.9396730    -0.0094060
  C       -1.0221650     1.4237120     0.0351730
  C        2.4390620     0.6894910    -0.0699270
  C       -1.5730580    -1.0260450     0.0187980
  C        2.6353690    -1.8453210    -0.0655260
  H        3.5092610     0.8590810    -0.0866130
  H        2.3729340    -2.4304260     0.8177420
  H        2.3794720    -2.4140780    -0.9605130
  H        3.7041390    -1.6305860    -0.0592400
  H       -2.8879820     0.5691470     0.1693100
  H       -2.3258040    -2.8676930    -0.0642460
  H       -3.4596940    -1.6726380    -0.4173570
units angstrom
no_reorient  #important for SAPT in psi4, default
symmetry c1  #important for SAPT in psi4, default
}

set PROPERTIES_ORIGIN ["COM"]
properties('MP2/aug-cc-pvtz', properties = ['dipole'])
--------------------------------------------------------------------------

    Molecular point group: c1
  Charge       = 0
  Multiplicity = 1
  Basis Set: AUG-CC-PVTZ
    Blend: AUG-CC-PVTZ
  Basis Set: (AUG-CC-PVTZ AUX)
    Blend: AUG-CC-PVTZ-JKFIT

    Orbital Energies [Eh]
    ---------------------

    Doubly Occupied:

       1A    -20.521861     2A    -15.632191     3A    -15.631301
       4A    -15.612115     5A    -15.573673     6A    -15.564377
       7A    -11.398115     8A    -11.366070     9A    -11.326594
      10A    -11.312354    11A    -11.285842    12A    -11.253221
      13A     -1.390477    14A     -1.355000    15A     -1.332945
      16A     -1.220774    17A     -1.215677    18A     -1.191843
      19A     -1.029621    20A     -0.986213    21A     -0.900167
      22A     -0.883559    23A     -0.806916    24A     -0.766404
      25A     -0.738668    26A     -0.728508    27A     -0.693176
      28A     -0.670519    29A     -0.657708    30A     -0.642373
      31A     -0.628754    32A     -0.613786    33A     -0.584218
      34A     -0.568486    35A     -0.556304    36A     -0.540844
      37A     -0.497204    38A     -0.460706    39A     -0.441002
      40A     -0.433199    41A     -0.430772    42A     -0.389271
      43A     -0.302405

  @DF-RHF Final Energy:  -578.62326591233489

   => Energetics <=

    Nuclear Repulsion Energy =            691.2601216434981097
    One-Electron Energy =               -2159.4963440006822566
    Two-Electron Energy =                 889.6129564448491465
    Total Energy =                       -578.6232659123348867
  Basis Set: (AUG-CC-PVTZ AUX)
    Blend: AUG-CC-PVTZ-RI
    Molecular point group: c1

    Geometry (in Angstrom), charge = 0, multiplicity = 1:

       Center              X                  Y                   Z               Mass
    ------------   -----------------  -----------------  -----------------  -----------------
         O           -1.476424659994     2.563187480075     0.080736578546    15.994914619570
         N            1.957167840006    -0.601710419925    -0.057864421454    14.003074004430
         N           -1.916929659994     0.304886480075     0.048843578546    14.003074004430
         N           -0.349367659994    -1.468448519925    -0.038413421454    14.003074004430
         N            1.543731740006     1.671361680075    -0.011689221454    14.003074004430
         N           -2.636079659994    -1.918143519925     0.111415578546    14.003074004430
         C            0.551047340006    -0.438129519925    -0.029193421454    12.000000000000
         C            0.327106340006     0.938459480075    -0.009063421454    12.000000000000
         C           -1.028815659994     1.422498480075     0.035515578546    12.000000000000
         C            2.432411340006     0.688277480075    -0.069584421454    12.000000000000
         C           -1.579708659994    -1.027258519925     0.019140578546    12.000000000000
         C            2.628718340006    -1.846534519925    -0.065183421454    12.000000000000
         H            3.502610340006     0.857867480075    -0.086270421454     1.007825032230
         H            2.366283340006    -2.431639519925     0.818084578546     1.007825032230
         H            2.372821340006    -2.415291519925    -0.960170421454     1.007825032230
         H            3.697488340006    -1.631799519925    -0.058897421454     1.007825032230
         H           -2.894632659994     0.567933480075     0.169652578546     1.007825032230
         H           -2.332454659994    -2.868906519925    -0.063903421454     1.007825032230
         H           -3.466344659994    -1.673851519925    -0.417014421454     1.007825032230

  Basis Set: AUG-CC-PVTZ
    Blend: AUG-CC-PVTZ
  Basis Set: (AUG-CC-PVTZ AUX)
    Blend: AUG-CC-PVTZ-JKFIT
	 Reference Energy          =    -578.6232659123348867 [Eh]
	 Singles Energy            =      -0.0000000000000000 [Eh]
	 Same-Spin Energy          =      -0.6160761104918913 [Eh]
	 Opposite-Spin Energy      =      -1.8213252392425039 [Eh]
	 Correlation Energy        =      -2.4374013497343952 [Eh]
	 Total Energy              =    -581.0606672620692734 [Eh]

	 ================> DF-SCS-MP2 Energies <==================
	-----------------------------------------------------------
	 SCS Same-Spin Scale       =       0.3333333333333333 [-]
	 SCS Opposite-Spin Scale   =       1.2000000000000000 [-]
	 SCS Same-Spin Energy      =      -0.2053587034972971 [Eh]
	 SCS Opposite-Spin Energy  =      -2.1855902870910047 [Eh]
	 SCS Correlation Energy    =      -2.3909489905883019 [Eh]
	 SCS Total Energy          =    -581.0142149029231859 [Eh]
	-----------------------------------------------------------

  Dipole Moment: [D]
     X:    -0.2334      Y:    -6.7792      Z:    -0.9300     Total:     6.8466

*** Psi4 exiting successfully. Buy a developer a beer!
