                               Psi4 1.3.2 release

  ==> Input File <==

--------------------------------------------------------------------------
#psi4
#
memory 32 gb

molecule  {
0 1
  O       -1.4697740     2.5644010     0.0803940
  N        1.9191590    -0.5831280    -0.0556370
  N       -1.8986853     0.3090034     0.0474872
  N       -0.3427170    -1.4672350    -0.0387560
  N        1.5166440     1.6409000    -0.0105650
  N       -2.6216441    -1.9261496     0.1103906
  C        0.5576980    -0.4369160    -0.0295360
  C        0.3337570     0.9396730    -0.0094060
  C       -1.0221650     1.4237120     0.0351730
  C        2.4390620     0.6894910    -0.0699270
  C       -1.5730580    -1.0260450     0.0187980
  C        2.6353690    -1.8453210    -0.0655260
  H        3.5092610     0.8590810    -0.0866130
  H        2.3729340    -2.4304260     0.8177420
  H        2.3794720    -2.4140780    -0.9605130
  H        3.7041390    -1.6305860    -0.0592400
  H       -2.8879820     0.5691470     0.1693100
  H       -2.3258040    -2.8676930    -0.0642460
  H       -3.4596940    -1.6726380    -0.4173570
units angstrom
no_reorient  #important for SAPT in psi4, default
symmetry c1  #important for SAPT in psi4, default
}

set PROPERTIES_ORIGIN ["COM"]
properties('MP2/aug-cc-pvtz', properties = ['dipole'])
--------------------------------------------------------------------------

    Molecular point group: c1
  Charge       = 0
  Multiplicity = 1
  Basis Set: AUG-CC-PVTZ
    Blend: AUG-CC-PVTZ
  Basis Set: (AUG-CC-PVTZ AUX)
    Blend: AUG-CC-PVTZ-JKFIT

    Orbital Energies [Eh]
    ---------------------

    Doubly Occupied:

       1A    -20.520136     2A    -15.632540     3A    -15.630884
       4A    -15.611224     5A    -15.570407     6A    -15.559216
       7A    -11.396176     8A    -11.363524     9A    -11.318541
      10A    -11.307007    11A    -11.289174    12A    -11.246528
      13A     -1.391232    14A     -1.360296    15A     -1.334022
      16A     -1.221087    17A     -1.215523    18A     -1.190184
      19A     -1.029555    20A     -0.986257    21A     -0.902162
      22A     -0.882768    23A     -0.807840    24A     -0.766276
      25A     -0.739328    26A     -0.729747    27A     -0.694616
      28A     -0.671197    29A     -0.650168    30A     -0.641362
      31A     -0.626760    32A     -0.610565    33A     -0.592911
      34A     -0.578230    35A     -0.560788    36A     -0.542095
      37A     -0.493182    38A     -0.459252    39A     -0.439819
      40A     -0.429079    41A     -0.428557    42A     -0.392374
      43A     -0.298142

  @DF-RHF Final Energy:  -578.63016935844053

   => Energetics <=

    Nuclear Repulsion Energy =            693.6935027350436940
    One-Electron Energy =               -2164.4258878423024726
    Two-Electron Energy =                 892.1022157488182529
    Total Energy =                       -578.6301693584405257
  Basis Set: (AUG-CC-PVTZ AUX)
    Blend: AUG-CC-PVTZ-RI
    Molecular point group: c1

    Geometry (in Angstrom), charge = 0, multiplicity = 1:

       Center              X                  Y                   Z               Mass
    ------------   -----------------  -----------------  -----------------  -----------------
         O           -1.471417836465     2.564936962333     0.080538016870    15.994914619570
         N            1.917515163535    -0.582592037667    -0.055492983130    14.003074004430
         N           -1.900329136465     0.309539362333     0.047631216870    14.003074004430
         N           -0.344360836465    -1.466699037667    -0.038611983130    14.003074004430
         N            1.515000163535     1.641435962333    -0.010420983130    14.003074004430
         N           -2.623287936465    -1.925613637667     0.110534616870    14.003074004430
         C            0.556054163535    -0.436380037667    -0.029391983130    12.000000000000
         C            0.332113163535     0.940208962333    -0.009261983130    12.000000000000
         C           -1.023808836465     1.424247962333     0.035317016870    12.000000000000
         C            2.437418163535     0.690026962333    -0.069782983130    12.000000000000
         C           -1.574701836465    -1.025509037667     0.018942016870    12.000000000000
         C            2.633725163535    -1.844785037667    -0.065381983130    12.000000000000
         H            3.507617163535     0.859616962333    -0.086468983130     1.007825032230
         H            2.371290163535    -2.429890037667     0.817886016870     1.007825032230
         H            2.377828163535    -2.413542037667    -0.960368983130     1.007825032230
         H            3.702495163535    -1.630050037667    -0.059095983130     1.007825032230
         H           -2.889625836465     0.569682962333     0.169454016870     1.007825032230
         H           -2.327447836465    -2.867157037667    -0.064101983130     1.007825032230
         H           -3.461337836465    -1.672102037667    -0.417212983130     1.007825032230

  Basis Set: AUG-CC-PVTZ
    Blend: AUG-CC-PVTZ
  Basis Set: (AUG-CC-PVTZ AUX)
    Blend: AUG-CC-PVTZ-JKFIT
	 Reference Energy          =    -578.6301693584405257 [Eh]
	 Singles Energy            =      -0.0000000000000000 [Eh]
	 Same-Spin Energy          =      -0.6161862816983168 [Eh]
	 Opposite-Spin Energy      =      -1.8198700914758823 [Eh]
	 Correlation Energy        =      -2.4360563731741989 [Eh]
	 Total Energy              =    -581.0662257316147361 [Eh]

	 ================> DF-SCS-MP2 Energies <==================
	-----------------------------------------------------------
	 SCS Same-Spin Scale       =       0.3333333333333333 [-]
	 SCS Opposite-Spin Scale   =       1.2000000000000000 [-]
	 SCS Same-Spin Energy      =      -0.2053954272327723 [Eh]
	 SCS Opposite-Spin Energy  =      -2.1838441097710586 [Eh]
	 SCS Correlation Energy    =      -2.3892395370038306 [Eh]
	 SCS Total Energy          =    -581.0194088954443714 [Eh]
	-----------------------------------------------------------

  Dipole Moment: [D]
     X:    -0.0543      Y:    -6.8169      Z:    -0.9335     Total:     6.8808

*** Psi4 exiting successfully. Buy a developer a beer!
