                               Psi4 1.3.2 release

  ==> Input File <==

--------------------------------------------------------------------------
#psi4
#
memory 32 gb

molecule  {
0 1
  O       -1.4697740     2.5644010     0.0803940
  N        1.9191590    -0.5831280    -0.0556370
  N       -1.9102790     0.3061000     0.0485010
  N       -0.3427170    -1.4672350    -0.0387560
  N        1.5166440     1.6409000    -0.0105650
  N       -2.6294290    -1.9169300     0.1110730
  C        0.6571082    -0.4475920    -0.0314418
  C        0.3337570     0.9396730    -0.0094060
  C       -1.0221650     1.4237120     0.0351730
  C        2.4390620     0.6894910    -0.0699270
  C       -1.5730580    -1.0260450     0.0187980
  C        2.6353690    -1.8453210    -0.0655260
  H        3.5092610     0.8590810    -0.0866130
  H        2.3729340    -2.4304260     0.8177420
  H        2.3794720    -2.4140780    -0.9605130
  H        3.7041390    -1.6305860    -0.0592400
  H       -2.8879820     0.5691470     0.1693100
  H       -2.3258040    -2.8676930    -0.0642460
  H       -3.4596940    -1.6726380    -0.4173570
units angstrom
no_reorient  #important for SAPT in psi4, default
symmetry c1  #important for SAPT in psi4, default
}

set PROPERTIES_ORIGIN ["COM"]
properties('MP2/aug-cc-pvtz', properties = ['dipole'])
--------------------------------------------------------------------------

    Molecular point group: c1
  Charge       = 0
  Multiplicity = 1
  Basis Set: AUG-CC-PVTZ
    Blend: AUG-CC-PVTZ
  Basis Set: (AUG-CC-PVTZ AUX)
    Blend: AUG-CC-PVTZ-JKFIT

    Orbital Energies [Eh]
    ---------------------

    Doubly Occupied:

       1A    -20.519773     2A    -15.642727     3A    -15.624033
       4A    -15.607303     5A    -15.566853     6A    -15.566468
       7A    -11.391680     8A    -11.364066     9A    -11.319392
      10A    -11.303865    11A    -11.297023    12A    -11.245505
      13A     -1.397616    14A     -1.376551    15A     -1.329433
      16A     -1.217322    17A     -1.210977    18A     -1.187044
      19A     -1.030687    20A     -0.997533    21A     -0.907856
      22A     -0.873847    23A     -0.805637    24A     -0.770488
      25A     -0.748536    26A     -0.726392    27A     -0.691055
      28A     -0.683236    29A     -0.654247    30A     -0.636121
      31A     -0.623499    32A     -0.607572    33A     -0.596139
      34A     -0.590933    35A     -0.567952    36A     -0.540891
      37A     -0.485765    38A     -0.452852    39A     -0.436168
      40A     -0.426416    41A     -0.424546    42A     -0.397947
      43A     -0.297126

  @DF-RHF Final Energy:  -578.61696946208349

   => Energetics <=

    Nuclear Repulsion Energy =            693.3822896914820149
    One-Electron Energy =               -2163.7163741188214772
    Two-Electron Energy =                 891.7171149652558597
    Total Energy =                       -578.6169694620834889
  Basis Set: (AUG-CC-PVTZ AUX)
    Blend: AUG-CC-PVTZ-RI
    Molecular point group: c1

    Geometry (in Angstrom), charge = 0, multiplicity = 1:

       Center              X                  Y                   Z               Mass
    ------------   -----------------  -----------------  -----------------  -----------------
         O           -1.477000861914     2.565177266271     0.080532671013    15.994914619570
         N            1.911932138086    -0.582351733729    -0.055498328987    14.003074004430
         N           -1.917505861914     0.306876266271     0.048639671013    14.003074004430
         N           -0.349943861914    -1.466458733729    -0.038617328987    14.003074004430
         N            1.509417138086     1.641676266271    -0.010426328987    14.003074004430
         N           -2.636655861914    -1.916153733729     0.111211671013    14.003074004430
         C            0.649881338086    -0.446815733729    -0.031303128987    12.000000000000
         C            0.326530138086     0.940449266271    -0.009267328987    12.000000000000
         C           -1.029391861914     1.424488266271     0.035311671013    12.000000000000
         C            2.431835138086     0.690267266271    -0.069788328987    12.000000000000
         C           -1.580284861914    -1.025268733729     0.018936671013    12.000000000000
         C            2.628142138086    -1.844544733729    -0.065387328987    12.000000000000
         H            3.502034138086     0.859857266271    -0.086474328987     1.007825032230
         H            2.365707138086    -2.429649733729     0.817880671013     1.007825032230
         H            2.372245138086    -2.413301733729    -0.960374328987     1.007825032230
         H            3.696912138086    -1.629809733729    -0.059101328987     1.007825032230
         H           -2.895208861914     0.569923266271     0.169448671013     1.007825032230
         H           -2.333030861914    -2.866916733729    -0.064107328987     1.007825032230
         H           -3.466920861914    -1.671861733729    -0.417218328987     1.007825032230

  Basis Set: AUG-CC-PVTZ
    Blend: AUG-CC-PVTZ
  Basis Set: (AUG-CC-PVTZ AUX)
    Blend: AUG-CC-PVTZ-JKFIT
	 Reference Energy          =    -578.6169694620834889 [Eh]
	 Singles Energy            =      -0.0000000000000000 [Eh]
	 Same-Spin Energy          =      -0.6159519549569867 [Eh]
	 Opposite-Spin Energy      =      -1.8196438001725694 [Eh]
	 Correlation Energy        =      -2.4355957551295564 [Eh]
	 Total Energy              =    -581.0525652172131004 [Eh]

	 ================> DF-SCS-MP2 Energies <==================
	-----------------------------------------------------------
	 SCS Same-Spin Scale       =       0.3333333333333333 [-]
	 SCS Opposite-Spin Scale   =       1.2000000000000000 [-]
	 SCS Same-Spin Energy      =      -0.2053173183189956 [Eh]
	 SCS Opposite-Spin Energy  =      -2.1835725602070832 [Eh]
	 SCS Correlation Energy    =      -2.3888898785260788 [Eh]
	 SCS Total Energy          =    -581.0058593406096179 [Eh]
	-----------------------------------------------------------

  Dipole Moment: [D]
     X:     0.4473      Y:    -6.8091      Z:    -0.9438     Total:     6.8887

*** Psi4 exiting successfully. Buy a developer a beer!
