                               Psi4 1.3.2 release

  ==> Input File <==

--------------------------------------------------------------------------
#psi4
#
memory 32 gb

molecule  {
0 1
  O       -1.4697740     2.5644010     0.0803940
  N        1.9191590    -0.5831280    -0.0556370
  N       -1.9102790     0.3061000     0.0485010
  N       -0.3427170    -1.4672350    -0.0387560
  N        1.5166440     1.6409000    -0.0105650
  N       -2.6294290    -1.9169300     0.1110730
  C        0.5576980    -0.4369160    -0.0295360
  C        0.3337570     0.9396730    -0.0094060
  C       -1.0221650     1.4237120     0.0351730
  C        2.4390620     0.6894910    -0.0699270
  C       -1.5805819    -1.0169401     0.0213602
  C        2.6353690    -1.8453210    -0.0655260
  H        3.5092610     0.8590810    -0.0866130
  H        2.3729340    -2.4304260     0.8177420
  H        2.3794720    -2.4140780    -0.9605130
  H        3.7041390    -1.6305860    -0.0592400
  H       -2.8879820     0.5691470     0.1693100
  H       -2.3340894    -2.8705257    -0.0630100
  H       -3.4596940    -1.6726380    -0.4173570
units angstrom
no_reorient  #important for SAPT in psi4, default
symmetry c1  #important for SAPT in psi4, default
}

set PROPERTIES_ORIGIN ["COM"]
properties('MP2/aug-cc-pvtz', properties = ['dipole'])
--------------------------------------------------------------------------

    Molecular point group: c1
  Charge       = 0
  Multiplicity = 1
  Basis Set: AUG-CC-PVTZ
    Blend: AUG-CC-PVTZ
  Basis Set: (AUG-CC-PVTZ AUX)
    Blend: AUG-CC-PVTZ-JKFIT

    Orbital Energies [Eh]
    ---------------------

    Doubly Occupied:

       1A    -20.521335     2A    -15.632179     3A    -15.631156
       4A    -15.611096     5A    -15.570212     6A    -15.559180
       7A    -11.396761     8A    -11.364883     9A    -11.318675
      10A    -11.306951    11A    -11.288941    12A    -11.246330
      13A     -1.391499    14A     -1.360236    15A     -1.334387
      16A     -1.220630    17A     -1.214649    18A     -1.190022
      19A     -1.028781    20A     -0.986201    21A     -0.902076
      22A     -0.883698    23A     -0.807247    24A     -0.766611
      25A     -0.742192    26A     -0.730156    27A     -0.692702
      28A     -0.670792    29A     -0.650188    30A     -0.641066
      31A     -0.626449    32A     -0.610505    33A     -0.593637
      34A     -0.577984    35A     -0.560782    36A     -0.541161
      37A     -0.493173    38A     -0.458843    39A     -0.440390
      40A     -0.430057    41A     -0.428675    42A     -0.392346
      43A     -0.297204

  @DF-RHF Final Energy:  -578.63044327505770

   => Energetics <=

    Nuclear Repulsion Energy =            693.4283857810780773
    One-Electron Energy =               -2163.8935826219808405
    Two-Electron Energy =                 891.8347535658450624
    Total Energy =                       -578.6304432750577007
  Basis Set: (AUG-CC-PVTZ AUX)
    Blend: AUG-CC-PVTZ-RI
    Molecular point group: c1

    Geometry (in Angstrom), charge = 0, multiplicity = 1:

       Center              X                  Y                   Z               Mass
    ------------   -----------------  -----------------  -----------------  -----------------
         O           -1.469176314221     2.563756517784     0.080200307085    15.994914619570
         N            1.919756685779    -0.583772482216    -0.055830692915    14.003074004430
         N           -1.909681314221     0.305455517784     0.048307307085    14.003074004430
         N           -0.342119314221    -1.467879482216    -0.038949692915    14.003074004430
         N            1.517241685779     1.640255517784    -0.010758692915    14.003074004430
         N           -2.628831314221    -1.917574482216     0.110879307085    14.003074004430
         C            0.558295685779    -0.437560482216    -0.029729692915    12.000000000000
         C            0.334354685779     0.939028517784    -0.009599692915    12.000000000000
         C           -1.021567314221     1.423067517784     0.034979307085    12.000000000000
         C            2.439659685779     0.688846517784    -0.070120692915    12.000000000000
         C           -1.579984214221    -1.017584582216     0.021166507085    12.000000000000
         C            2.635966685779    -1.845965482216    -0.065719692915    12.000000000000
         H            3.509858685779     0.858436517784    -0.086806692915     1.007825032230
         H            2.373531685779    -2.431070482216     0.817548307085     1.007825032230
         H            2.380069685779    -2.414722482216    -0.960706692915     1.007825032230
         H            3.704736685779    -1.631230482216    -0.059433692915     1.007825032230
         H           -2.887384314221     0.568502517784     0.169116307085     1.007825032230
         H           -2.333491714221    -2.871170182216    -0.063203692915     1.007825032230
         H           -3.459096314221    -1.673282482216    -0.417550692915     1.007825032230

  Basis Set: AUG-CC-PVTZ
    Blend: AUG-CC-PVTZ
  Basis Set: (AUG-CC-PVTZ AUX)
    Blend: AUG-CC-PVTZ-JKFIT
	 Reference Energy          =    -578.6304432750577007 [Eh]
	 Singles Energy            =      -0.0000000000000000 [Eh]
	 Same-Spin Energy          =      -0.6161567897389586 [Eh]
	 Opposite-Spin Energy      =      -1.8198835369954791 [Eh]
	 Correlation Energy        =      -2.4360403267344379 [Eh]
	 Total Energy              =    -581.0664836017921289 [Eh]

	 ================> DF-SCS-MP2 Energies <==================
	-----------------------------------------------------------
	 SCS Same-Spin Scale       =       0.3333333333333333 [-]
	 SCS Opposite-Spin Scale   =       1.2000000000000000 [-]
	 SCS Same-Spin Energy      =      -0.2053855965796529 [Eh]
	 SCS Opposite-Spin Energy  =      -2.1838602443945749 [Eh]
	 SCS Correlation Energy    =      -2.3892458409742279 [Eh]
	 SCS Total Energy          =    -581.0196891160319410 [Eh]
	-----------------------------------------------------------

  Dipole Moment: [D]
     X:    -0.0734      Y:    -6.7632      Z:    -0.9302     Total:     6.8272

*** Psi4 exiting successfully. Buy a developer a beer!
