                               Psi4 1.3.2 release

  ==> Input File <==

--------------------------------------------------------------------------
#psi4
#
memory 32 gb

molecule  {
0 1
  O       -1.4597976     2.5682694     0.0802971
  N        1.9191590    -0.5831280    -0.0556370
  N       -1.9102790     0.3061000     0.0485010
  N       -0.3427170    -1.4672350    -0.0387560
  N        1.5166440     1.6409000    -0.0105650
  N       -2.6294290    -1.9169300     0.1110730
  C        0.5576980    -0.4369160    -0.0295360
  C        0.3379384     0.9515239    -0.0091285
  C       -1.0221650     1.4237120     0.0351730
  C        2.4390620     0.6894910    -0.0699270
  C       -1.5730580    -1.0260450     0.0187980
  C        2.6353690    -1.8453210    -0.0655260
  H        3.5092610     0.8590810    -0.0866130
  H        2.3729340    -2.4304260     0.8177420
  H        2.3794720    -2.4140780    -0.9605130
  H        3.7041390    -1.6305860    -0.0592400
  H       -2.8879820     0.5691470     0.1693100
  H       -2.3258040    -2.8676930    -0.0642460
  H       -3.4596940    -1.6726380    -0.4173570
units angstrom
no_reorient  #important for SAPT in psi4, default
symmetry c1  #important for SAPT in psi4, default
}

set PROPERTIES_ORIGIN ["COM"]
properties('MP2/aug-cc-pvtz', properties = ['dipole'])
--------------------------------------------------------------------------

    Molecular point group: c1
  Charge       = 0
  Multiplicity = 1
  Basis Set: AUG-CC-PVTZ
    Blend: AUG-CC-PVTZ
  Basis Set: (AUG-CC-PVTZ AUX)
    Blend: AUG-CC-PVTZ-JKFIT

    Orbital Energies [Eh]
    ---------------------

    Doubly Occupied:

       1A    -20.520200     2A    -15.633434     3A    -15.630014
       4A    -15.610875     5A    -15.571228     6A    -15.559280
       7A    -11.396261     8A    -11.363824     9A    -11.319502
      10A    -11.306762    11A    -11.289474    12A    -11.247359
      13A     -1.390293    14A     -1.360318    15A     -1.334292
      16A     -1.219243    17A     -1.216946    18A     -1.191932
      19A     -1.027702    20A     -0.986857    21A     -0.901649
      22A     -0.882392    23A     -0.807733    24A     -0.765477
      25A     -0.742135    26A     -0.729862    27A     -0.692278
      28A     -0.670948    29A     -0.648898    30A     -0.642583
      31A     -0.626719    32A     -0.609477    33A     -0.595278
      34A     -0.578558    35A     -0.561291    36A     -0.541434
      37A     -0.494133    38A     -0.459489    39A     -0.440310
      40A     -0.429344    41A     -0.427177    42A     -0.393614
      43A     -0.296179

  @DF-RHF Final Energy:  -578.63012837600172

   => Energetics <=

    Nuclear Repulsion Energy =            693.3453081246010470
    One-Electron Energy =               -2163.7253641943179900
    Two-Electron Energy =                 891.7499276937151080
    Total Energy =                       -578.6301283760017213
  Basis Set: (AUG-CC-PVTZ AUX)
    Blend: AUG-CC-PVTZ-RI
    Molecular point group: c1

    Geometry (in Angstrom), charge = 0, multiplicity = 1:

       Center              X                  Y                   Z               Mass
    ------------   -----------------  -----------------  -----------------  -----------------
         O           -1.461068180588     2.567033141464     0.080286437818    15.994914619570
         N            1.917888419412    -0.584364258536    -0.055647662182    14.003074004430
         N           -1.911549580588     0.304863741464     0.048490337818    14.003074004430
         N           -0.343987580588    -1.468471258536    -0.038766662182    14.003074004430
         N            1.515373419412     1.639663741464    -0.010575662182    14.003074004430
         N           -2.630699580588    -1.918166258536     0.111062337818    14.003074004430
         C            0.556427419412    -0.438152258536    -0.029546662182    12.000000000000
         C            0.336667819412     0.950287641464    -0.009139162182    12.000000000000
         C           -1.023435580588     1.422475741464     0.035162337818    12.000000000000
         C            2.437791419412     0.688254741464    -0.069937662182    12.000000000000
         C           -1.574328580588    -1.027281258536     0.018787337818    12.000000000000
         C            2.634098419412    -1.846557258536    -0.065536662182    12.000000000000
         H            3.507990419412     0.857844741464    -0.086623662182     1.007825032230
         H            2.371663419412    -2.431662258536     0.817731337818     1.007825032230
         H            2.378201419412    -2.415314258536    -0.960523662182     1.007825032230
         H            3.702868419412    -1.631822258536    -0.059250662182     1.007825032230
         H           -2.889252580588     0.567910741464     0.169299337818     1.007825032230
         H           -2.327074580588    -2.868929258536    -0.064256662182     1.007825032230
         H           -3.460964580588    -1.673874258536    -0.417367662182     1.007825032230

  Basis Set: AUG-CC-PVTZ
    Blend: AUG-CC-PVTZ
  Basis Set: (AUG-CC-PVTZ AUX)
    Blend: AUG-CC-PVTZ-JKFIT
	 Reference Energy          =    -578.6301283760017213 [Eh]
	 Singles Energy            =      -0.0000000000000000 [Eh]
	 Same-Spin Energy          =      -0.6163343034193296 [Eh]
	 Opposite-Spin Energy      =      -1.8200245309769030 [Eh]
	 Correlation Energy        =      -2.4363588343962324 [Eh]
	 Total Energy              =    -581.0664872103980088 [Eh]

	 ================> DF-SCS-MP2 Energies <==================
	-----------------------------------------------------------
	 SCS Same-Spin Scale       =       0.3333333333333333 [-]
	 SCS Opposite-Spin Scale   =       1.2000000000000000 [-]
	 SCS Same-Spin Energy      =      -0.2054447678064432 [Eh]
	 SCS Opposite-Spin Energy  =      -2.1840294371722835 [Eh]
	 SCS Correlation Energy    =      -2.3894742049787268 [Eh]
	 SCS Total Energy          =    -581.0196025809804041 [Eh]
	-----------------------------------------------------------

  Dipole Moment: [D]
     X:    -0.0213      Y:    -6.8016      Z:    -0.9377     Total:     6.8660

*** Psi4 exiting successfully. Buy a developer a beer!
