                               Psi4 1.4a3.dev225

  ==> Input File <==

--------------------------------------------------------------------------
#psi4
#
memory 32 gb

molecule  {
0 1
  O        1.6617960     2.5152110     0.0229320
  N       -1.9329240    -0.4005880    -0.0147920
  N        1.9545050     0.2323110     0.0113410
  N        0.2669280    -1.4301930    -0.0208730
  N       -1.3834780     1.7915450    -0.0193170
  N        2.5221760    -2.0364130     0.0734370
  C       -0.5834583    -0.3450957    -0.0028695
  C       -0.2488450     1.0144850    -0.0147620
  C        1.1380320     1.4076430     0.0031510
  C       -2.3683130     0.9036150    -0.0164120
  C        1.5275980    -1.0721200    -0.0057920
  C       -2.7322540    -1.6127190     0.0339130
  H       -3.4247340     1.1445090    -0.0228960
  H       -2.2735910    -2.3629350    -0.6109560
  H       -2.7853950    -1.9995380     1.0543320
  H       -3.7366260    -1.3828770    -0.3245450
  H        2.9468270     0.4301980     0.1174830
  H        2.1372730    -2.9631930    -0.0801050
  H        3.3349710    -1.8642740    -0.5097710
units angstrom
no_reorient  #important for SAPT in psi4, default
symmetry c1  #important for SAPT in psi4, default
}

set PROPERTIES_ORIGIN ["COM"]
properties('MP2/aug-cc-pvtz', properties = ['dipole'])
--------------------------------------------------------------------------

    Molecular point group: c1
  Charge       = 0
  Multiplicity = 1
  Basis Set: AUG-CC-PVTZ
    Blend: AUG-CC-PVTZ
  Basis Set: (AUG-CC-PVTZ AUX)
    Blend: AUG-CC-PVTZ-JKFIT

    Orbital Energies [Eh]
    ---------------------

    Doubly Occupied:

       1A    -20.521309     2A    -15.634913     3A    -15.628398
       4A    -15.610052     5A    -15.570269     6A    -15.561322
       7A    -11.395148     8A    -11.364985     9A    -11.319631
      10A    -11.306508    11A    -11.290645    12A    -11.246986
      13A     -1.390694    14A     -1.364070    15A     -1.333344
      16A     -1.218037    17A     -1.213606    18A     -1.191305
      19A     -1.028797    20A     -0.988605    21A     -0.902534
      22A     -0.880279    23A     -0.806748    24A     -0.766991
      25A     -0.742834    26A     -0.728095    27A     -0.690930
      28A     -0.672657    29A     -0.649731    30A     -0.641954
      31A     -0.624914    32A     -0.610509    33A     -0.594587
      34A     -0.581359    35A     -0.562428    36A     -0.541478
      37A     -0.491401    38A     -0.458933    39A     -0.439484
      40A     -0.428969    41A     -0.428509    42A     -0.394140
      43A     -0.298459

  @DF-RHF Final Energy:  -578.63030787263517

   => Energetics <=

    Nuclear Repulsion Energy =            693.1349993077341196
    One-Electron Energy =               -2163.2975286333389704
    Two-Electron Energy =                 891.5322214529695657
    Total Energy =                       -578.6303078726351714
  Basis Set: (AUG-CC-PVTZ AUX)
    Blend: AUG-CC-PVTZ-RI
    Molecular point group: c1

    Geometry (in Angstrom), charge = 0, multiplicity = 1:

       Center              X                  Y                   Z               Mass
    ------------   -----------------  -----------------  -----------------  -----------------
         O            1.640424628741     2.461296707827     0.020682164817    15.994914619570
         N           -1.954295371259    -0.454502292173    -0.017041835183    14.003074004430
         N            1.933133628741     0.178396707827     0.009091164817    14.003074004430
         N            0.245556628741    -1.484107292173    -0.023122835183    14.003074004430
         N           -1.404849371259     1.737630707827    -0.021566835183    14.003074004430
         N            2.500804628741    -2.090327292173     0.071187164817    14.003074004430
         C           -0.604829671259    -0.399009992173    -0.005119335183    12.000000000000
         C           -0.270216371259     0.960570707827    -0.017011835183    12.000000000000
         C            1.116660628741     1.353728707827     0.000901164817    12.000000000000
         C           -2.389684371259     0.849700707827    -0.018661835183    12.000000000000
         C            1.506226628741    -1.126034292173    -0.008041835183    12.000000000000
         C           -2.753625371259    -1.666633292173     0.031663164817    12.000000000000
         H           -3.446105371259     1.090594707827    -0.025145835183     1.007825032230
         H           -2.294962371259    -2.416849292173    -0.613205835183     1.007825032230
         H           -2.806766371259    -2.053452292173     1.052082164817     1.007825032230
         H           -3.757997371259    -1.436791292173    -0.326794835183     1.007825032230
         H            2.925455628741     0.376283707827     0.115233164817     1.007825032230
         H            2.115901628741    -3.017107292173    -0.082354835183     1.007825032230
         H            3.313599628741    -1.918188292173    -0.512020835183     1.007825032230

  Basis Set: AUG-CC-PVTZ
    Blend: AUG-CC-PVTZ
  Basis Set: (AUG-CC-PVTZ AUX)
    Blend: AUG-CC-PVTZ-JKFIT
	 Reference Energy          =    -578.6303078726351714 [Eh]
	 Singles Energy            =      -0.0000000000000000 [Eh]
	 Same-Spin Energy          =      -0.6160179354555966 [Eh]
	 Opposite-Spin Energy      =      -1.8197152424789742 [Eh]
	 Correlation Energy        =      -2.4357331779345710 [Eh]
	 Total Energy              =    -581.0660410505697655 [Eh]

	 ================> DF-SCS-MP2 Energies <==================
	-----------------------------------------------------------
	 SCS Same-Spin Scale       =       0.3333333333333333 [-]
	 SCS Opposite-Spin Scale   =       1.2000000000000000 [-]
	 SCS Same-Spin Energy      =      -0.2053393118185322 [Eh]
	 SCS Opposite-Spin Energy  =      -2.1836582909747690 [Eh]
	 SCS Correlation Energy    =      -2.3889976027933013 [Eh]
	 SCS Total Energy          =    -581.0193054754284958 [Eh]
	-----------------------------------------------------------

  Dipole Moment: [D]
     X:    -0.6177      Y:    -6.7414      Z:    -0.8502     Total:     6.8228

*** Psi4 exiting successfully. Buy a developer a beer!
