                               Psi4 1.3.2 release

  ==> Input File <==

--------------------------------------------------------------------------
#psi4
#
memory 32 gb

molecule  {
0 1
  O       -1.4697740     2.5644010     0.0803940
  N        1.9191590    -0.5831280    -0.0556370
  N       -1.9102790     0.3061000     0.0485010
  N       -0.3389395    -1.4564767    -0.0393416
  N        1.5166440     1.6409000    -0.0105650
  N       -2.6371724    -1.9076515     0.1112158
  C        0.5576980    -0.4369160    -0.0295360
  C        0.3337570     0.9396730    -0.0094060
  C       -1.0221650     1.4237120     0.0351730
  C        2.4390620     0.6894910    -0.0699270
  C       -1.5730580    -1.0260450     0.0187980
  C        2.6353690    -1.8453210    -0.0655260
  H        3.5092610     0.8590810    -0.0866130
  H        2.3729340    -2.4304260     0.8177420
  H        2.3794720    -2.4140780    -0.9605130
  H        3.7041390    -1.6305860    -0.0592400
  H       -2.8879820     0.5691470     0.1693100
  H       -2.3258040    -2.8676930    -0.0642460
  H       -3.4596940    -1.6726380    -0.4173570
units angstrom
no_reorient  #important for SAPT in psi4, default
symmetry c1  #important for SAPT in psi4, default
}

set PROPERTIES_ORIGIN ["COM"]
properties('MP2/aug-cc-pvtz', properties = ['dipole'])
--------------------------------------------------------------------------

    Molecular point group: c1
  Charge       = 0
  Multiplicity = 1
  Basis Set: AUG-CC-PVTZ
    Blend: AUG-CC-PVTZ
  Basis Set: (AUG-CC-PVTZ AUX)
    Blend: AUG-CC-PVTZ-JKFIT

    Orbital Energies [Eh]
    ---------------------

    Doubly Occupied:

       1A    -20.520090     2A    -15.632466     3A    -15.628768
       4A    -15.611721     5A    -15.570359     6A    -15.559249
       7A    -11.396606     8A    -11.363573     9A    -11.318480
      10A    -11.307060    11A    -11.289311    12A    -11.246327
      13A     -1.390692    14A     -1.360509    15A     -1.334176
      16A     -1.219652    17A     -1.217381    18A     -1.190718
      19A     -1.029240    20A     -0.986274    21A     -0.901617
      22A     -0.883337    23A     -0.808690    24A     -0.766929
      25A     -0.741095    26A     -0.730683    27A     -0.690608
      28A     -0.671344    29A     -0.648964    30A     -0.643678
      31A     -0.627300    32A     -0.609993    33A     -0.593417
      34A     -0.578682    35A     -0.560980    36A     -0.541595
      37A     -0.493222    38A     -0.460680    39A     -0.439215
      40A     -0.429183    41A     -0.428164    42A     -0.392535
      43A     -0.297538

  @DF-RHF Final Energy:  -578.63059418490377

   => Energetics <=

    Nuclear Repulsion Energy =            693.7276042284569257
    One-Electron Energy =               -2164.4922031707860697
    Two-Electron Energy =                 892.1340047574252594
    Total Energy =                       -578.6305941849037708
  Basis Set: (AUG-CC-PVTZ AUX)
    Blend: AUG-CC-PVTZ-RI
    Molecular point group: c1

    Geometry (in Angstrom), charge = 0, multiplicity = 1:

       Center              X                  Y                   Z               Mass
    ------------   -----------------  -----------------  -----------------  -----------------
         O           -1.469437436970     2.562701340757     0.080431686354    15.994914619570
         N            1.919495563030    -0.584827659243    -0.055599313646    14.003074004430
         N           -1.909942436970     0.304400340757     0.048538686354    14.003074004430
         N           -0.338602936970    -1.458176359243    -0.039303913646    14.003074004430
         N            1.516980563030     1.639200340757    -0.010527313646    14.003074004430
         N           -2.636835836970    -1.909351159243     0.111253486354    14.003074004430
         C            0.558034563030    -0.438615659243    -0.029498313646    12.000000000000
         C            0.334093563030     0.937973340757    -0.009368313646    12.000000000000
         C           -1.021828436970     1.422012340757     0.035210686354    12.000000000000
         C            2.439398563030     0.687791340757    -0.069889313646    12.000000000000
         C           -1.572721436970    -1.027744659243     0.018835686354    12.000000000000
         C            2.635705563030    -1.847020659243    -0.065488313646    12.000000000000
         H            3.509597563030     0.857381340757    -0.086575313646     1.007825032230
         H            2.373270563030    -2.432125659243     0.817779686354     1.007825032230
         H            2.379808563030    -2.415777659243    -0.960475313646     1.007825032230
         H            3.704475563030    -1.632285659243    -0.059202313646     1.007825032230
         H           -2.887645436970     0.567447340757     0.169347686354     1.007825032230
         H           -2.325467436970    -2.869392659243    -0.064208313646     1.007825032230
         H           -3.459357436970    -1.674337659243    -0.417319313646     1.007825032230

  Basis Set: AUG-CC-PVTZ
    Blend: AUG-CC-PVTZ
  Basis Set: (AUG-CC-PVTZ AUX)
    Blend: AUG-CC-PVTZ-JKFIT
	 Reference Energy          =    -578.6305941849037708 [Eh]
	 Singles Energy            =      -0.0000000000000000 [Eh]
	 Same-Spin Energy          =      -0.6161787871489265 [Eh]
	 Opposite-Spin Energy      =      -1.8197448187615557 [Eh]
	 Correlation Energy        =      -2.4359236059104821 [Eh]
	 Total Energy              =    -581.0665177908142596 [Eh]

	 ================> DF-SCS-MP2 Energies <==================
	-----------------------------------------------------------
	 SCS Same-Spin Scale       =       0.3333333333333333 [-]
	 SCS Opposite-Spin Scale   =       1.2000000000000000 [-]
	 SCS Same-Spin Energy      =      -0.2053929290496422 [Eh]
	 SCS Opposite-Spin Energy  =      -2.1836937825138669 [Eh]
	 SCS Correlation Energy    =      -2.3890867115635093 [Eh]
	 SCS Total Energy          =    -581.0196808964673210 [Eh]
	-----------------------------------------------------------

  Dipole Moment: [D]
     X:    -0.0172      Y:    -6.8413      Z:    -0.9407     Total:     6.9057

*** Psi4 exiting successfully. Buy a developer a beer!
