                               Psi4 1.3.2 release

  ==> Input File <==

--------------------------------------------------------------------------
#psi4
#
memory 32 gb

molecule  {
0 1
  O       -1.4697740     2.5644010     0.0803940
  N        1.9191590    -0.5831280    -0.0556370
  N       -1.9792709     0.2865572     0.0545334
  N       -0.3427170    -1.4672350    -0.0387560
  N        1.5166440     1.6409000    -0.0105650
  N       -2.6744285    -1.8602124     0.1150182
  C        0.5576980    -0.4369160    -0.0295360
  C        0.3337570     0.9396730    -0.0094060
  C       -1.0221650     1.4237120     0.0351730
  C        2.4390620     0.6894910    -0.0699270
  C       -1.5730580    -1.0260450     0.0187980
  C        2.6353690    -1.8453210    -0.0655260
  H        3.5092610     0.8590810    -0.0866130
  H        2.3729340    -2.4304260     0.8177420
  H        2.3794720    -2.4140780    -0.9605130
  H        3.7041390    -1.6305860    -0.0592400
  H       -2.8879820     0.5691470     0.1693100
  H       -2.3258040    -2.8676930    -0.0642460
  H       -3.4596940    -1.6726380    -0.4173570
units angstrom
no_reorient  #important for SAPT in psi4, default
symmetry c1  #important for SAPT in psi4, default
}

set PROPERTIES_ORIGIN ["COM"]
properties('MP2/aug-cc-pvtz', properties = ['dipole'])
--------------------------------------------------------------------------

    Molecular point group: c1
  Charge       = 0
  Multiplicity = 1
  Basis Set: AUG-CC-PVTZ
    Blend: AUG-CC-PVTZ
  Basis Set: (AUG-CC-PVTZ AUX)
    Blend: AUG-CC-PVTZ-JKFIT

    Orbital Energies [Eh]
    ---------------------

    Doubly Occupied:

       1A    -20.525454     2A    -15.635033     3A    -15.619820
       4A    -15.607487     5A    -15.574156     6A    -15.561965
       7A    -11.396428     8A    -11.368641     9A    -11.322709
      10A    -11.309038    11A    -11.290749    12A    -11.249789
      13A     -1.388270    14A     -1.362361    15A     -1.334593
      16A     -1.221290    17A     -1.208416    18A     -1.193267
      19A     -1.029559    20A     -0.987971    21A     -0.903176
      22A     -0.878273    23A     -0.808496    24A     -0.771426
      25A     -0.748568    26A     -0.734803    27A     -0.676432
      28A     -0.670196    29A     -0.650944    30A     -0.637312
      31A     -0.624358    32A     -0.608303    33A     -0.597587
      34A     -0.580316    35A     -0.562695    36A     -0.538953
      37A     -0.496974    38A     -0.459805    39A     -0.440244
      40A     -0.430402    41A     -0.429803    42A     -0.394880
      43A     -0.300206

  @DF-RHF Final Energy:  -578.61583963403950

   => Energetics <=

    Nuclear Repulsion Energy =            692.1109773174842985
    One-Electron Energy =               -2161.1913391857747229
    Two-Electron Energy =                 890.4645222342508077
    Total Energy =                       -578.6158396340395029
  Basis Set: (AUG-CC-PVTZ AUX)
    Blend: AUG-CC-PVTZ-RI
    Molecular point group: c1

    Geometry (in Angstrom), charge = 0, multiplicity = 1:

       Center              X                  Y                   Z               Mass
    ------------   -----------------  -----------------  -----------------  -----------------
         O           -1.460103570554     2.561247461405     0.079547685631    15.994914619570
         N            1.928829429446    -0.586281538595    -0.056483314369    14.003074004430
         N           -1.969600470554     0.283403661405     0.053687085631    14.003074004430
         N           -0.333046570554    -1.470388538595    -0.039602314369    14.003074004430
         N            1.526314429446     1.637746461405    -0.011411314369    14.003074004430
         N           -2.664758070554    -1.863365938595     0.114171885631    14.003074004430
         C            0.567368429446    -0.440069538595    -0.030382314369    12.000000000000
         C            0.343427429446     0.936519461405    -0.010252314369    12.000000000000
         C           -1.012494570554     1.420558461405     0.034326685631    12.000000000000
         C            2.448732429446     0.686337461405    -0.070773314369    12.000000000000
         C           -1.563387570554    -1.029198538595     0.017951685631    12.000000000000
         C            2.645039429446    -1.848474538595    -0.066372314369    12.000000000000
         H            3.518931429446     0.855927461405    -0.087459314369     1.007825032230
         H            2.382604429446    -2.433579538595     0.816895685631     1.007825032230
         H            2.389142429446    -2.417231538595    -0.961359314369     1.007825032230
         H            3.713809429446    -1.633739538595    -0.060086314369     1.007825032230
         H           -2.878311570554     0.565993461405     0.168463685631     1.007825032230
         H           -2.316133570554    -2.870846538595    -0.065092314369     1.007825032230
         H           -3.450023570554    -1.675791538595    -0.418203314369     1.007825032230

  Basis Set: AUG-CC-PVTZ
    Blend: AUG-CC-PVTZ
  Basis Set: (AUG-CC-PVTZ AUX)
    Blend: AUG-CC-PVTZ-JKFIT
	 Reference Energy          =    -578.6158396340395029 [Eh]
	 Singles Energy            =      -0.0000000000000000 [Eh]
	 Same-Spin Energy          =      -0.6158805283490533 [Eh]
	 Opposite-Spin Energy      =      -1.8207011534694364 [Eh]
	 Correlation Energy        =      -2.4365816818184896 [Eh]
	 Total Energy              =    -581.0524213158579414 [Eh]

	 ================> DF-SCS-MP2 Energies <==================
	-----------------------------------------------------------
	 SCS Same-Spin Scale       =       0.3333333333333333 [-]
	 SCS Opposite-Spin Scale   =       1.2000000000000000 [-]
	 SCS Same-Spin Energy      =      -0.2052935094496844 [Eh]
	 SCS Opposite-Spin Energy  =      -2.1848413841633234 [Eh]
	 SCS Correlation Energy    =      -2.3901348936130078 [Eh]
	 SCS Total Energy          =    -581.0059745276524836 [Eh]
	-----------------------------------------------------------

  Dipole Moment: [D]
     X:     0.2689      Y:    -6.6183      Z:    -0.9619     Total:     6.6933

*** Psi4 exiting successfully. Buy a developer a beer!
