                               Psi4 1.3.2 release

  ==> Input File <==

--------------------------------------------------------------------------
#psi4
#
memory 32 gb

molecule  {
0 1
  O       -1.4697740     2.5644010     0.0803940
  N        1.9191590    -0.5831280    -0.0556370
  N       -1.9102790     0.3061000     0.0485010
  N       -0.3427170    -1.4672350    -0.0387560
  N        1.5166440     1.6409000    -0.0105650
  N       -2.6294290    -1.9169300     0.1110730
  C        0.5636261    -0.3894823    -0.0298055
  C        0.3337570     0.9396730    -0.0094060
  C       -1.0221650     1.4237120     0.0351730
  C        2.4390620     0.6894910    -0.0699270
  C       -1.5730580    -1.0260450     0.0187980
  C        2.6789729    -1.8195549    -0.0664606
  H        3.5092610     0.8590810    -0.0866130
  H        2.3729340    -2.4304260     0.8177420
  H        2.3794720    -2.4140780    -0.9605130
  H        3.7041390    -1.6305860    -0.0592400
  H       -2.8879820     0.5691470     0.1693100
  H       -2.3258040    -2.8676930    -0.0642460
  H       -3.4596940    -1.6726380    -0.4173570
units angstrom
no_reorient  #important for SAPT in psi4, default
symmetry c1  #important for SAPT in psi4, default
}

set PROPERTIES_ORIGIN ["COM"]
properties('MP2/aug-cc-pvtz', properties = ['dipole'])
--------------------------------------------------------------------------

    Molecular point group: c1
  Charge       = 0
  Multiplicity = 1
  Basis Set: AUG-CC-PVTZ
    Blend: AUG-CC-PVTZ
  Basis Set: (AUG-CC-PVTZ AUX)
    Blend: AUG-CC-PVTZ-JKFIT

    Orbital Energies [Eh]
    ---------------------

    Doubly Occupied:

       1A    -20.524983     2A    -15.632120     3A    -15.628027
       4A    -15.608560     5A    -15.569987     6A    -15.557919
       7A    -11.392527     8A    -11.367547     9A    -11.315652
      10A    -11.307398    11A    -11.290451    12A    -11.245240
      13A     -1.391912    14A     -1.362647    15A     -1.332594
      16A     -1.218496    17A     -1.208151    18A     -1.188958
      19A     -1.036265    20A     -0.988433    21A     -0.900240
      22A     -0.877188    23A     -0.807750    24A     -0.772279
      25A     -0.739378    26A     -0.727115    27A     -0.691222
      28A     -0.668031    29A     -0.654352    30A     -0.637580
      31A     -0.623443    32A     -0.612687    33A     -0.594783
      34A     -0.588162    35A     -0.557993    36A     -0.539274
      37A     -0.491976    38A     -0.455308    39A     -0.440842
      40A     -0.432195    41A     -0.426519    42A     -0.391554
      43A     -0.306613

  @DF-RHF Final Energy:  -578.62564022284232

   => Energetics <=

    Nuclear Repulsion Energy =            693.5535097419556223
    One-Electron Energy =               -2164.1495980991085162
    Two-Electron Energy =                 891.9704481343105726
    Total Energy =                       -578.6256402228423212
  Basis Set: (AUG-CC-PVTZ AUX)
    Blend: AUG-CC-PVTZ-RI
    Molecular point group: c1

    Geometry (in Angstrom), charge = 0, multiplicity = 1:

       Center              X                  Y                   Z               Mass
    ------------   -----------------  -----------------  -----------------  -----------------
         O           -1.473374786230     2.559079612408     0.080481658401    15.994914619570
         N            1.915558213770    -0.588449387592    -0.055549341599    14.003074004430
         N           -1.913879786230     0.300778612408     0.048588658401    14.003074004430
         N           -0.346317786230    -1.472556387592    -0.038668341599    14.003074004430
         N            1.513043213770     1.635578612408    -0.010477341599    14.003074004430
         N           -2.633029786230    -1.922251387592     0.111160658401    14.003074004430
         C            0.560025313770    -0.394803687592    -0.029717841599    12.000000000000
         C            0.330156213770     0.934351612408    -0.009318341599    12.000000000000
         C           -1.025765786230     1.418390612408     0.035260658401    12.000000000000
         C            2.435461213770     0.684169612408    -0.069839341599    12.000000000000
         C           -1.576658786230    -1.031366387592     0.018885658401    12.000000000000
         C            2.675372113770    -1.824876287592    -0.066372941599    12.000000000000
         H            3.505660213770     0.853759612408    -0.086525341599     1.007825032230
         H            2.369333213770    -2.435747387592     0.817829658401     1.007825032230
         H            2.375871213770    -2.419399387592    -0.960425341599     1.007825032230
         H            3.700538213770    -1.635907387592    -0.059152341599     1.007825032230
         H           -2.891582786230     0.563825612408     0.169397658401     1.007825032230
         H           -2.329404786230    -2.873014387592    -0.064158341599     1.007825032230
         H           -3.463294786230    -1.677959387592    -0.417269341599     1.007825032230

  Basis Set: AUG-CC-PVTZ
    Blend: AUG-CC-PVTZ
  Basis Set: (AUG-CC-PVTZ AUX)
    Blend: AUG-CC-PVTZ-JKFIT
	 Reference Energy          =    -578.6256402228423212 [Eh]
	 Singles Energy            =      -0.0000000000000000 [Eh]
	 Same-Spin Energy          =      -0.6151352570232356 [Eh]
	 Opposite-Spin Energy      =      -1.8195119473137691 [Eh]
	 Correlation Energy        =      -2.4346472043370047 [Eh]
	 Total Energy              =    -581.0602874271793326 [Eh]

	 ================> DF-SCS-MP2 Energies <==================
	-----------------------------------------------------------
	 SCS Same-Spin Scale       =       0.3333333333333333 [-]
	 SCS Opposite-Spin Scale   =       1.2000000000000000 [-]
	 SCS Same-Spin Energy      =      -0.2050450856744118 [Eh]
	 SCS Opposite-Spin Energy  =      -2.1834143367765226 [Eh]
	 SCS Correlation Energy    =      -2.3884594224509343 [Eh]
	 SCS Total Energy          =    -581.0140996452932995 [Eh]
	-----------------------------------------------------------

  Dipole Moment: [D]
     X:     0.0280      Y:    -6.6580      Z:    -0.9362     Total:     6.7236

*** Psi4 exiting successfully. Buy a developer a beer!
