                               Psi4 1.3.2 release

  ==> Input File <==

--------------------------------------------------------------------------
#psi4
#
memory 32 gb

molecule  {
0 1
  O       -1.4697740     2.5644010     0.0803940
  N        1.9203879    -0.5712427    -0.0553782
  N       -1.9102790     0.3061000     0.0485010
  N       -0.3516720    -1.4593429    -0.0384215
  N        1.5166440     1.6409000    -0.0105650
  N       -2.6294290    -1.9169300     0.1110730
  C        0.5576980    -0.4369160    -0.0295360
  C        0.3337570     0.9396730    -0.0094060
  C       -1.0221650     1.4237120     0.0351730
  C        2.4390620     0.6894910    -0.0699270
  C       -1.5730580    -1.0260450     0.0187980
  C        2.6353690    -1.8453210    -0.0655260
  H        3.5092610     0.8590810    -0.0866130
  H        2.3729340    -2.4304260     0.8177420
  H        2.3794720    -2.4140780    -0.9605130
  H        3.7041390    -1.6305860    -0.0592400
  H       -2.8879820     0.5691470     0.1693100
  H       -2.3258040    -2.8676930    -0.0642460
  H       -3.4596940    -1.6726380    -0.4173570
units angstrom
no_reorient  #important for SAPT in psi4, default
symmetry c1  #important for SAPT in psi4, default
}

set PROPERTIES_ORIGIN ["COM"]
properties('MP2/aug-cc-pvtz', properties = ['dipole'])
--------------------------------------------------------------------------

    Molecular point group: c1
  Charge       = 0
  Multiplicity = 1
  Basis Set: AUG-CC-PVTZ
    Blend: AUG-CC-PVTZ
  Basis Set: (AUG-CC-PVTZ AUX)
    Blend: AUG-CC-PVTZ-JKFIT

    Orbital Energies [Eh]
    ---------------------

    Doubly Occupied:

       1A    -20.520697     2A    -15.633994     3A    -15.627889
       4A    -15.609442     5A    -15.569714     6A    -15.558329
       7A    -11.393573     8A    -11.363966     9A    -11.318697
      10A    -11.306421    11A    -11.290995    12A    -11.247019
      13A     -1.391057    14A     -1.361924    15A     -1.335261
      16A     -1.218287    17A     -1.216425    18A     -1.189960
      19A     -1.030400    20A     -0.986827    21A     -0.903435
      22A     -0.881408    23A     -0.808779    24A     -0.766309
      25A     -0.741286    26A     -0.729463    27A     -0.691814
      28A     -0.671575    29A     -0.649209    30A     -0.643391
      31A     -0.627099    32A     -0.610399    33A     -0.593142
      34A     -0.579637    35A     -0.562284    36A     -0.542019
      37A     -0.492435    38A     -0.459143    39A     -0.439185
      40A     -0.428808    41A     -0.428226    42A     -0.393367
      43A     -0.298930

  @DF-RHF Final Energy:  -578.63130977660228

   => Energetics <=

    Nuclear Repulsion Energy =            693.7946250776390116
    One-Electron Energy =               -2164.6274327092392014
    Two-Electron Energy =                 892.2014978549979105
    Total Energy =                       -578.6313097766022793
  Basis Set: (AUG-CC-PVTZ AUX)
    Blend: AUG-CC-PVTZ-RI
    Molecular point group: c1

    Geometry (in Angstrom), charge = 0, multiplicity = 1:

       Center              X                  Y                   Z               Mass
    ------------   -----------------  -----------------  -----------------  -----------------
         O           -1.469118445423     2.562723346610     0.080343790194    15.994914619570
         N            1.921043454577    -0.572920353390    -0.055428409806    14.003074004430
         N           -1.909623445423     0.304422346610     0.048450790194    14.003074004430
         N           -0.351016445423    -1.461020553390    -0.038471709806    14.003074004430
         N            1.517299554577     1.639222346610    -0.010615209806    14.003074004430
         N           -2.628773445423    -1.918607653390     0.111022790194    14.003074004430
         C            0.558353554577    -0.438593653390    -0.029586209806    12.000000000000
         C            0.334412554577     0.937995346610    -0.009456209806    12.000000000000
         C           -1.021509445423     1.422034346610     0.035122790194    12.000000000000
         C            2.439717554577     0.687813346610    -0.069977209806    12.000000000000
         C           -1.572402445423    -1.027722653390     0.018747790194    12.000000000000
         C            2.636024554577    -1.846998653390    -0.065576209806    12.000000000000
         H            3.509916554577     0.857403346610    -0.086663209806     1.007825032230
         H            2.373589554577    -2.432103653390     0.817691790194     1.007825032230
         H            2.380127554577    -2.415755653390    -0.960563209806     1.007825032230
         H            3.704794554577    -1.632263653390    -0.059290209806     1.007825032230
         H           -2.887326445423     0.567469346610     0.169259790194     1.007825032230
         H           -2.325148445423    -2.869370653390    -0.064296209806     1.007825032230
         H           -3.459038445423    -1.674315653390    -0.417407209806     1.007825032230

  Basis Set: AUG-CC-PVTZ
    Blend: AUG-CC-PVTZ
  Basis Set: (AUG-CC-PVTZ AUX)
    Blend: AUG-CC-PVTZ-JKFIT
	 Reference Energy          =    -578.6313097766022793 [Eh]
	 Singles Energy            =      -0.0000000000000000 [Eh]
	 Same-Spin Energy          =      -0.6159284998516175 [Eh]
	 Opposite-Spin Energy      =      -1.8193432365344118 [Eh]
	 Correlation Energy        =      -2.4352717363860292 [Eh]
	 Total Energy              =    -581.0665815129883640 [Eh]

	 ================> DF-SCS-MP2 Energies <==================
	-----------------------------------------------------------
	 SCS Same-Spin Scale       =       0.3333333333333333 [-]
	 SCS Opposite-Spin Scale   =       1.2000000000000000 [-]
	 SCS Same-Spin Energy      =      -0.2053094999505392 [Eh]
	 SCS Opposite-Spin Energy  =      -2.1832118838412939 [Eh]
	 SCS Correlation Energy    =      -2.3885213837918329 [Eh]
	 SCS Total Energy          =    -581.0198311603941193 [Eh]
	-----------------------------------------------------------

  Dipole Moment: [D]
     X:     0.0540      Y:    -6.8298      Z:    -0.9411     Total:     6.8946

*** Psi4 exiting successfully. Buy a developer a beer!
