                               Psi4 1.3.2 release

  ==> Input File <==

--------------------------------------------------------------------------
#psi4
#
memory 32 gb

molecule  {
0 1
  O       -1.4697740     2.5644010     0.0803940
  N        1.9191590    -0.5831280    -0.0556370
  N       -1.9102790     0.3061000     0.0485010
  N       -0.3427170    -1.4672350    -0.0387560
  N        1.5166440     1.6409000    -0.0105650
  N       -2.6294290    -1.9169300     0.1110730
  C        0.5576980    -0.4369160    -0.0295360
  C        0.3337570     0.9396730    -0.0094060
  C       -1.0221650     1.4237120     0.0351730
  C        2.5086006     0.6177668    -0.0744021
  C       -1.5730580    -1.0260450     0.0187980
  C        2.6353690    -1.8453210    -0.0655260
  H        3.5092610     0.8590810    -0.0866130
  H        2.3729340    -2.4304260     0.8177420
  H        2.3794720    -2.4140780    -0.9605130
  H        3.7041390    -1.6305860    -0.0592400
  H       -2.8879820     0.5691470     0.1693100
  H       -2.3258040    -2.8676930    -0.0642460
  H       -3.4596940    -1.6726380    -0.4173570
units angstrom
no_reorient  #important for SAPT in psi4, default
symmetry c1  #important for SAPT in psi4, default
}

set PROPERTIES_ORIGIN ["COM"]
properties('MP2/aug-cc-pvtz', properties = ['dipole'])
--------------------------------------------------------------------------

    Molecular point group: c1
  Charge       = 0
  Multiplicity = 1
  Basis Set: AUG-CC-PVTZ
    Blend: AUG-CC-PVTZ
  Basis Set: (AUG-CC-PVTZ AUX)
    Blend: AUG-CC-PVTZ-JKFIT

    Orbital Energies [Eh]
    ---------------------

    Doubly Occupied:

       1A    -20.524103     2A    -15.642872     3A    -15.629979
       4A    -15.609658     5A    -15.570983     6A    -15.561912
       7A    -11.394328     8A    -11.366707     9A    -11.316030
      10A    -11.308598    11A    -11.290815    12A    -11.249947
      13A     -1.391680    14A     -1.362634    15A     -1.333975
      16A     -1.219229    17A     -1.210888    18A     -1.177447
      19A     -1.025212    20A     -0.989942    21A     -0.912065
      22A     -0.878944    23A     -0.813255    24A     -0.766556
      25A     -0.738971    26A     -0.734749    27A     -0.693373
      28A     -0.673942    29A     -0.656088    30A     -0.647883
      31A     -0.628190    32A     -0.613521    33A     -0.586772
      34A     -0.579128    35A     -0.557557    36A     -0.542865
      37A     -0.490086    38A     -0.456643    39A     -0.440139
      40A     -0.427310    41A     -0.425750    42A     -0.391727
      43A     -0.289380

  @DF-RHF Final Energy:  -578.61087118125124

   => Energetics <=

    Nuclear Repulsion Energy =            692.3640929380369471
    One-Electron Energy =               -2161.7062577211795542
    Two-Electron Energy =                 890.7312936018913661
    Total Energy =                       -578.6108711812512411
  Basis Set: (AUG-CC-PVTZ AUX)
    Blend: AUG-CC-PVTZ-RI
    Molecular point group: c1

    Geometry (in Angstrom), charge = 0, multiplicity = 1:

       Center              X                  Y                   Z               Mass
    ------------   -----------------  -----------------  -----------------  -----------------
         O           -1.474829238191     2.569615385402     0.080719455546    15.994914619570
         N            1.914103761809    -0.577913614598    -0.055311544454    14.003074004430
         N           -1.915334238191     0.311314385402     0.048826455546    14.003074004430
         N           -0.347772238191    -1.462020614598    -0.038430544454    14.003074004430
         N            1.511588761809     1.646114385402    -0.010239544454    14.003074004430
         N           -2.634484238191    -1.911715614598     0.111398455546    14.003074004430
         C            0.552642761809    -0.431701614598    -0.029210544454    12.000000000000
         C            0.328701761809     0.944887385402    -0.009080544454    12.000000000000
         C           -1.027220238191     1.428926385402     0.035498455546    12.000000000000
         C            2.503545361809     0.622981185402    -0.074076644454    12.000000000000
         C           -1.578113238191    -1.020830614598     0.019123455546    12.000000000000
         C            2.630313761809    -1.840106614598    -0.065200544454    12.000000000000
         H            3.504205761809     0.864295385402    -0.086287544454     1.007825032230
         H            2.367878761809    -2.425211614598     0.818067455546     1.007825032230
         H            2.374416761809    -2.408863614598    -0.960187544454     1.007825032230
         H            3.699083761809    -1.625371614598    -0.058914544454     1.007825032230
         H           -2.893037238191     0.574361385402     0.169635455546     1.007825032230
         H           -2.330859238191    -2.862478614598    -0.063920544454     1.007825032230
         H           -3.464749238191    -1.667423614598    -0.417031544454     1.007825032230

  Basis Set: AUG-CC-PVTZ
    Blend: AUG-CC-PVTZ
  Basis Set: (AUG-CC-PVTZ AUX)
    Blend: AUG-CC-PVTZ-JKFIT
	 Reference Energy          =    -578.6108711812512411 [Eh]
	 Singles Energy            =      -0.0000000000000000 [Eh]
	 Same-Spin Energy          =      -0.6189528283943092 [Eh]
	 Opposite-Spin Energy      =      -1.8252127204191568 [Eh]
	 Correlation Energy        =      -2.4441655488134661 [Eh]
	 Total Energy              =    -581.0550367300646712 [Eh]

	 ================> DF-SCS-MP2 Energies <==================
	-----------------------------------------------------------
	 SCS Same-Spin Scale       =       0.3333333333333333 [-]
	 SCS Opposite-Spin Scale   =       1.2000000000000000 [-]
	 SCS Same-Spin Energy      =      -0.2063176094647697 [Eh]
	 SCS Opposite-Spin Energy  =      -2.1902552645029880 [Eh]
	 SCS Correlation Energy    =      -2.3965728739677576 [Eh]
	 SCS Total Energy          =    -581.0074440552190254 [Eh]
	-----------------------------------------------------------

  Dipole Moment: [D]
     X:    -0.0298      Y:    -6.9419      Z:    -0.9373     Total:     7.0049

*** Psi4 exiting successfully. Buy a developer a beer!
