                               Psi4 1.3.2 release

  ==> Input File <==

--------------------------------------------------------------------------
#psi4
#
memory 32 gb

molecule  {
0 1
  O       -1.4697740     2.5644010     0.0803940
  N        1.9191590    -0.5831280    -0.0556370
  N       -1.8637591     0.3171029     0.0444331
  N       -0.3427170    -1.4672350    -0.0387560
  N        1.5166440     1.6409000    -0.0105650
  N       -2.5978128    -1.9533945     0.1083017
  C        0.5576980    -0.4369160    -0.0295360
  C        0.3337570     0.9396730    -0.0094060
  C       -1.0221650     1.4237120     0.0351730
  C        2.4390620     0.6894910    -0.0699270
  C       -1.5730580    -1.0260450     0.0187980
  C        2.6353690    -1.8453210    -0.0655260
  H        3.5092610     0.8590810    -0.0866130
  H        2.3729340    -2.4304260     0.8177420
  H        2.3794720    -2.4140780    -0.9605130
  H        3.7041390    -1.6305860    -0.0592400
  H       -2.8879820     0.5691470     0.1693100
  H       -2.3258040    -2.8676930    -0.0642460
  H       -3.4596940    -1.6726380    -0.4173570
units angstrom
no_reorient  #important for SAPT in psi4, default
symmetry c1  #important for SAPT in psi4, default
}

set PROPERTIES_ORIGIN ["COM"]
properties('MP2/aug-cc-pvtz', properties = ['dipole'])
--------------------------------------------------------------------------

    Molecular point group: c1
  Charge       = 0
  Multiplicity = 1
  Basis Set: AUG-CC-PVTZ
    Blend: AUG-CC-PVTZ
  Basis Set: (AUG-CC-PVTZ AUX)
    Blend: AUG-CC-PVTZ-JKFIT

    Orbital Energies [Eh]
    ---------------------

    Doubly Occupied:

       1A    -20.517952     2A    -15.635622     3A    -15.631613
       4A    -15.612800     5A    -15.569188     6A    -15.558150
       7A    -11.396897     8A    -11.361316     9A    -11.316829
      10A    -11.306278    11A    -11.288598    12A    -11.245366
      13A     -1.393222    14A     -1.359549    15A     -1.334242
      16A     -1.227454    17A     -1.213762    18A     -1.188832
      19A     -1.030335    20A     -0.985707    21A     -0.905433
      22A     -0.883806    23A     -0.807674    24A     -0.764975
      25A     -0.735745    26A     -0.733291    27A     -0.697853
      28A     -0.671450    29A     -0.651313    30A     -0.639326
      31A     -0.626366    32A     -0.610679    33A     -0.590299
      34A     -0.577363    35A     -0.560101    36A     -0.543687
      37A     -0.491573    38A     -0.459339    39A     -0.439424
      40A     -0.428323    41A     -0.427695    42A     -0.391394
      43A     -0.297471

  @DF-RHF Final Energy:  -578.62308710532227

   => Energetics <=

    Nuclear Repulsion Energy =            694.4509503052311175
    One-Electron Energy =               -2165.9314934201111100
    Two-Electron Energy =                 892.8574560095577226
    Total Energy =                       -578.6230871053222700
  Basis Set: (AUG-CC-PVTZ AUX)
    Blend: AUG-CC-PVTZ-RI
    Molecular point group: c1

    Geometry (in Angstrom), charge = 0, multiplicity = 1:

       Center              X                  Y                   Z               Mass
    ------------   -----------------  -----------------  -----------------  -----------------
         O           -1.476402450540     2.566561136784     0.080974316409    15.994914619570
         N            1.912530549460    -0.580967863216    -0.055056683591    14.003074004430
         N           -1.870387550540     0.319263036784     0.045013416409    14.003074004430
         N           -0.349345450540    -1.465074863216    -0.038175683591    14.003074004430
         N            1.510015549460     1.643060136784    -0.009984683591    14.003074004430
         N           -2.604441250540    -1.951234363216     0.108882016409    14.003074004430
         C            0.551069549460    -0.434755863216    -0.028955683591    12.000000000000
         C            0.327128549460     0.941833136784    -0.008825683591    12.000000000000
         C           -1.028793450540     1.425872136784     0.035753316409    12.000000000000
         C            2.432433549460     0.691651136784    -0.069346683591    12.000000000000
         C           -1.579686450540    -1.023884863216     0.019378316409    12.000000000000
         C            2.628740549460    -1.843160863216    -0.064945683591    12.000000000000
         H            3.502632549460     0.861241136784    -0.086032683591     1.007825032230
         H            2.366305549460    -2.428265863216     0.818322316409     1.007825032230
         H            2.372843549460    -2.411917863216    -0.959932683591     1.007825032230
         H            3.697510549460    -1.628425863216    -0.058659683591     1.007825032230
         H           -2.894610450540     0.571307136784     0.169890316409     1.007825032230
         H           -2.332432450540    -2.865532863216    -0.063665683591     1.007825032230
         H           -3.466322450540    -1.670477863216    -0.416776683591     1.007825032230

  Basis Set: AUG-CC-PVTZ
    Blend: AUG-CC-PVTZ
  Basis Set: (AUG-CC-PVTZ AUX)
    Blend: AUG-CC-PVTZ-JKFIT
	 Reference Energy          =    -578.6230871053222700 [Eh]
	 Singles Energy            =      -0.0000000000000000 [Eh]
	 Same-Spin Energy          =      -0.6166582440812125 [Eh]
	 Opposite-Spin Energy      =      -1.8203762656389133 [Eh]
	 Correlation Energy        =      -2.4370345097201258 [Eh]
	 Total Energy              =    -581.0601216150423625 [Eh]

	 ================> DF-SCS-MP2 Energies <==================
	-----------------------------------------------------------
	 SCS Same-Spin Scale       =       0.3333333333333333 [-]
	 SCS Opposite-Spin Scale   =       1.2000000000000000 [-]
	 SCS Same-Spin Energy      =      -0.2055527480270708 [Eh]
	 SCS Opposite-Spin Energy  =      -2.1844515187666960 [Eh]
	 SCS Correlation Energy    =      -2.3900042667937669 [Eh]
	 SCS Total Energy          =    -581.0130913721160368 [Eh]
	-----------------------------------------------------------

  Dipole Moment: [D]
     X:    -0.1685      Y:    -6.8898      Z:    -0.9214     Total:     6.9532

*** Psi4 exiting successfully. Buy a developer a beer!
