                               Psi4 1.3.2 release

  ==> Input File <==

--------------------------------------------------------------------------
#psi4
#
memory 32 gb

molecule  {
0 1
  O       -1.4697740     2.5644010     0.0803940
  N        1.9191590    -0.5831280    -0.0556370
  N       -1.9102790     0.3061000     0.0485010
  N       -0.3427170    -1.4672350    -0.0387560
  N        1.5166440     1.6409000    -0.0105650
  N       -2.6294290    -1.9169300     0.1110730
  C        0.5576980    -0.4369160    -0.0295360
  C        0.3337570     0.9396730    -0.0094060
  C       -1.0813630     1.4683664     0.0445294
  C        2.4390620     0.6894910    -0.0699270
  C       -1.5730580    -1.0260450     0.0187980
  C        2.6353690    -1.8453210    -0.0655260
  H        3.5092610     0.8590810    -0.0866130
  H        2.3729340    -2.4304260     0.8177420
  H        2.3794720    -2.4140780    -0.9605130
  H        3.7041390    -1.6305860    -0.0592400
  H       -2.8725380     0.6202072     0.1713259
  H       -2.3258040    -2.8676930    -0.0642460
  H       -3.4596940    -1.6726380    -0.4173570
units angstrom
no_reorient  #important for SAPT in psi4, default
symmetry c1  #important for SAPT in psi4, default
}

set PROPERTIES_ORIGIN ["COM"]
properties('MP2/aug-cc-pvtz', properties = ['dipole'])
--------------------------------------------------------------------------

    Molecular point group: c1
  Charge       = 0
  Multiplicity = 1
  Basis Set: AUG-CC-PVTZ
    Blend: AUG-CC-PVTZ
  Basis Set: (AUG-CC-PVTZ AUX)
    Blend: AUG-CC-PVTZ-JKFIT

    Orbital Energies [Eh]
    ---------------------

    Doubly Occupied:

       1A    -20.536905     2A    -15.627423     3A    -15.625654
       4A    -15.607966     5A    -15.566558     6A    -15.554508
       7A    -11.394370     8A    -11.365991     9A    -11.309566
      10A    -11.300787    11A    -11.285481    12A    -11.245015
      13A     -1.427809    14A     -1.364391    15A     -1.334277
      16A     -1.220192    17A     -1.212067    18A     -1.185328
      19A     -1.017599    20A     -0.978267    21A     -0.892531
      22A     -0.880974    23A     -0.806155    24A     -0.762180
      25A     -0.733142    26A     -0.724504    27A     -0.691227
      28A     -0.666664    29A     -0.659134    30A     -0.637706
      31A     -0.626882    32A     -0.626306    33A     -0.589250
      34A     -0.575588    35A     -0.561998    36A     -0.553877
      37A     -0.489870    38A     -0.458220    39A     -0.445362
      40A     -0.434099    41A     -0.424697    42A     -0.387713
      43A     -0.291763

  @DF-RHF Final Energy:  -578.62471867212446

   => Energetics <=

    Nuclear Repulsion Energy =            692.9896745855400013
    One-Electron Energy =               -2163.0687938071255303
    Two-Electron Energy =                 891.4544005494611838
    Total Energy =                       -578.6247186721244589
  Basis Set: (AUG-CC-PVTZ AUX)
    Blend: AUG-CC-PVTZ-RI
    Molecular point group: c1

    Geometry (in Angstrom), charge = 0, multiplicity = 1:

       Center              X                  Y                   Z               Mass
    ------------   -----------------  -----------------  -----------------  -----------------
         O           -1.465564561878     2.560843068905     0.079701616431    15.994914619570
         N            1.923368438122    -0.586685931095    -0.056329383569    14.003074004430
         N           -1.906069561878     0.302542068905     0.047808616431    14.003074004430
         N           -0.338507561878    -1.470792931095    -0.039448383569    14.003074004430
         N            1.520853438122     1.637342068905    -0.011257383569    14.003074004430
         N           -2.625219561878    -1.920487931095     0.110380616431    14.003074004430
         C            0.561907438122    -0.440473931095    -0.030228383569    12.000000000000
         C            0.337966438122     0.936115068905    -0.010098383569    12.000000000000
         C           -1.077153561878     1.464808468905     0.043837016431    12.000000000000
         C            2.443271438122     0.685933068905    -0.070619383569    12.000000000000
         C           -1.568848561878    -1.029602931095     0.018105616431    12.000000000000
         C            2.639578438122    -1.848878931095    -0.066218383569    12.000000000000
         H            3.513470438122     0.855523068905    -0.087305383569     1.007825032230
         H            2.377143438122    -2.433983931095     0.817049616431     1.007825032230
         H            2.383681438122    -2.417635931095    -0.961205383569     1.007825032230
         H            3.708348438122    -1.634143931095    -0.059932383569     1.007825032230
         H           -2.868328561878     0.616649268905     0.170633516431     1.007825032230
         H           -2.321594561878    -2.871250931095    -0.064938383569     1.007825032230
         H           -3.455484561878    -1.676195931095    -0.418049383569     1.007825032230

  Basis Set: AUG-CC-PVTZ
    Blend: AUG-CC-PVTZ
  Basis Set: (AUG-CC-PVTZ AUX)
    Blend: AUG-CC-PVTZ-JKFIT
	 Reference Energy          =    -578.6247186721244589 [Eh]
	 Singles Energy            =      -0.0000000000000000 [Eh]
	 Same-Spin Energy          =      -0.6149353594025591 [Eh]
	 Opposite-Spin Energy      =      -1.8177577219600640 [Eh]
	 Correlation Energy        =      -2.4326930813626229 [Eh]
	 Total Energy              =    -581.0574117534870311 [Eh]

	 ================> DF-SCS-MP2 Energies <==================
	-----------------------------------------------------------
	 SCS Same-Spin Scale       =       0.3333333333333333 [-]
	 SCS Opposite-Spin Scale   =       1.2000000000000000 [-]
	 SCS Same-Spin Energy      =      -0.2049784531341863 [Eh]
	 SCS Opposite-Spin Energy  =      -2.1813092663520766 [Eh]
	 SCS Correlation Energy    =      -2.3862877194862628 [Eh]
	 SCS Total Energy          =    -581.0110063916107492 [Eh]
	-----------------------------------------------------------

  Dipole Moment: [D]
     X:    -0.4239      Y:    -6.2011      Z:    -0.9058     Total:     6.2813

*** Psi4 exiting successfully. Buy a developer a beer!
