                               Psi4 1.3.2 release

  ==> Input File <==

--------------------------------------------------------------------------
#psi4
#
memory 32 gb

molecule  {
0 1
  O       -1.4697740     2.5644010     0.0803940
  N        1.9191590    -0.5831280    -0.0556370
  N       -1.9102790     0.3061000     0.0485010
  N       -0.3427170    -1.4672350    -0.0387560
  N        1.5166440     1.6409000    -0.0105650
  N       -2.6294290    -1.9169300     0.1110730
  C        0.5576980    -0.4369160    -0.0295360
  C        0.3337570     0.9396730    -0.0094060
  C       -1.0221650     1.4237120     0.0351730
  C        2.4831520     0.6705652    -0.0707267
  C       -1.5730580    -1.0260450     0.0187980
  C        2.6789729    -1.8195549    -0.0664614
  H        3.5092610     0.8590810    -0.0866130
  H        2.3729340    -2.4304260     0.8177420
  H        2.3794720    -2.4140780    -0.9605130
  H        3.7041390    -1.6305860    -0.0592400
  H       -2.8879820     0.5691470     0.1693100
  H       -2.3258040    -2.8676930    -0.0642460
  H       -3.4596940    -1.6726380    -0.4173570
units angstrom
no_reorient  #important for SAPT in psi4, default
symmetry c1  #important for SAPT in psi4, default
}

set PROPERTIES_ORIGIN ["COM"]
properties('MP2/aug-cc-pvtz', properties = ['dipole'])
--------------------------------------------------------------------------

    Molecular point group: c1
  Charge       = 0
  Multiplicity = 1
  Basis Set: AUG-CC-PVTZ
    Blend: AUG-CC-PVTZ
  Basis Set: (AUG-CC-PVTZ AUX)
    Blend: AUG-CC-PVTZ-JKFIT

    Orbital Energies [Eh]
    ---------------------

    Doubly Occupied:

       1A    -20.522425     2A    -15.636545     3A    -15.629805
       4A    -15.610564     5A    -15.571094     6A    -15.562078
       7A    -11.395829     8A    -11.365680     9A    -11.319541
      10A    -11.307357    11A    -11.289220    12A    -11.248385
      13A     -1.390748    14A     -1.358257    15A     -1.332901
      16A     -1.219365    17A     -1.212854    18A     -1.184042
      19A     -1.028573    20A     -0.986343    21A     -0.905029
      22A     -0.880876    23A     -0.812496    24A     -0.767249
      25A     -0.739051    26A     -0.732801    27A     -0.692867
      28A     -0.667782    29A     -0.651795    30A     -0.645068
      31A     -0.624981    32A     -0.610379    33A     -0.598153
      34A     -0.589142    35A     -0.553973    36A     -0.539253
      37A     -0.491420    38A     -0.457884    39A     -0.439777
      40A     -0.428257    41A     -0.427449    42A     -0.389294
      43A     -0.295403

  @DF-RHF Final Energy:  -578.62045507775065

   => Energetics <=

    Nuclear Repulsion Energy =            692.3220110935150160
    One-Electron Energy =               -2161.6609676397874864
    Two-Electron Energy =                 890.7185014685219357
    Total Energy =                       -578.6204550777506483
  Basis Set: (AUG-CC-PVTZ AUX)
    Blend: AUG-CC-PVTZ-RI
    Molecular point group: c1

    Geometry (in Angstrom), charge = 0, multiplicity = 1:

       Center              X                  Y                   Z               Mass
    ------------   -----------------  -----------------  -----------------  -----------------
         O           -1.476149103219     2.563903855652     0.080520261361    15.994914619570
         N            1.912783896781    -0.583625144348    -0.055510738639    14.003074004430
         N           -1.916654103219     0.305602855652     0.048627261361    14.003074004430
         N           -0.349092103219    -1.467732144348    -0.038629738639    14.003074004430
         N            1.510268896781     1.640402855652    -0.010438738639    14.003074004430
         N           -2.635804103219    -1.917427144348     0.111199261361    14.003074004430
         C            0.551322896781    -0.437413144348    -0.029409738639    12.000000000000
         C            0.327381896781     0.939175855652    -0.009279738639    12.000000000000
         C           -1.028540103219     1.423214855652     0.035299261361    12.000000000000
         C            2.476776896781     0.670068055652    -0.070600438639    12.000000000000
         C           -1.579433103219    -1.026542144348     0.018924261361    12.000000000000
         C            2.672597796781    -1.820052044348    -0.066335138639    12.000000000000
         H            3.502885896781     0.858583855652    -0.086486738639     1.007825032230
         H            2.366558896781    -2.430923144348     0.817868261361     1.007825032230
         H            2.373096896781    -2.414575144348    -0.960386738639     1.007825032230
         H            3.697763896781    -1.631083144348    -0.059113738639     1.007825032230
         H           -2.894357103219     0.568649855652     0.169436261361     1.007825032230
         H           -2.332179103219    -2.868190144348    -0.064119738639     1.007825032230
         H           -3.466069103219    -1.673135144348    -0.417230738639     1.007825032230

  Basis Set: AUG-CC-PVTZ
    Blend: AUG-CC-PVTZ
  Basis Set: (AUG-CC-PVTZ AUX)
    Blend: AUG-CC-PVTZ-JKFIT
	 Reference Energy          =    -578.6204550777506483 [Eh]
	 Singles Energy            =      -0.0000000000000000 [Eh]
	 Same-Spin Energy          =      -0.6172610931536949 [Eh]
	 Opposite-Spin Energy      =      -1.8222758503114898 [Eh]
	 Correlation Energy        =      -2.4395369434651846 [Eh]
	 Total Energy              =    -581.0599920212158622 [Eh]

	 ================> DF-SCS-MP2 Energies <==================
	-----------------------------------------------------------
	 SCS Same-Spin Scale       =       0.3333333333333333 [-]
	 SCS Opposite-Spin Scale   =       1.2000000000000000 [-]
	 SCS Same-Spin Energy      =      -0.2057536977178983 [Eh]
	 SCS Opposite-Spin Energy  =      -2.1867310203737875 [Eh]
	 SCS Correlation Energy    =      -2.3924847180916857 [Eh]
	 SCS Total Energy          =    -581.0129397958423851 [Eh]
	-----------------------------------------------------------

  Dipole Moment: [D]
     X:    -0.0041      Y:    -6.8105      Z:    -0.9379     Total:     6.8747

*** Psi4 exiting successfully. Buy a developer a beer!
