                               Psi4 1.4a3.dev225

  ==> Input File <==

--------------------------------------------------------------------------
#psi4
#
memory 32 gb

molecule  {
0 1
  O        1.6617960     2.5152110     0.0229320
  N       -1.9329240    -0.4005880    -0.0147920
  N        1.9545050     0.2323110     0.0113410
  N        0.2669280    -1.4301930    -0.0208730
  N       -1.3834780     1.7915450    -0.0193170
  N        2.5221760    -2.0364130     0.0734370
  C       -0.5634760    -0.3442740    -0.0026930
  C       -0.2488450     1.0144850    -0.0147620
  C        1.1380320     1.4076430     0.0031510
  C       -2.3831670     0.8902226    -0.0163682
  C        1.5275980    -1.0721200    -0.0057920
  C       -2.7322540    -1.6127190     0.0339130
  H       -3.4247340     1.1445090    -0.0228960
  H       -2.2735910    -2.3629350    -0.6109560
  H       -2.7853950    -1.9995380     1.0543320
  H       -3.7366260    -1.3828770    -0.3245450
  H        2.9468270     0.4301980     0.1174830
  H        2.1372730    -2.9631930    -0.0801050
  H        3.3349710    -1.8642740    -0.5097710
units angstrom
no_reorient  #important for SAPT in psi4, default
symmetry c1  #important for SAPT in psi4, default
}

set PROPERTIES_ORIGIN ["COM"]
properties('MP2/aug-cc-pvtz', properties = ['dipole'])
--------------------------------------------------------------------------

    Molecular point group: c1
  Charge       = 0
  Multiplicity = 1
  Basis Set: AUG-CC-PVTZ
    Blend: AUG-CC-PVTZ
  Basis Set: (AUG-CC-PVTZ AUX)
    Blend: AUG-CC-PVTZ-JKFIT

    Orbital Energies [Eh]
    ---------------------

    Doubly Occupied:

       1A    -20.522075     2A    -15.634783     3A    -15.629572
       4A    -15.610553     5A    -15.571153     6A    -15.560623
       7A    -11.395755     8A    -11.365430     9A    -11.319059
      10A    -11.307365    11A    -11.289470    12A    -11.247812
      13A     -1.390996    14A     -1.360803    15A     -1.333686
      16A     -1.218770    17A     -1.214180    18A     -1.188188
      19A     -1.028177    20A     -0.986827    21A     -0.903612
      22A     -0.881284    23A     -0.808277    24A     -0.766434
      25A     -0.740683    26A     -0.729396    27A     -0.691494
      28A     -0.671256    29A     -0.650413    30A     -0.643595
      31A     -0.625679    32A     -0.611167    33A     -0.593256
      34A     -0.579120    35A     -0.560322    36A     -0.541827
      37A     -0.492672    38A     -0.459685    39A     -0.440169
      40A     -0.429139    41A     -0.428710    42A     -0.392681
      43A     -0.296857

  @DF-RHF Final Energy:  -578.62849537188822

   => Energetics <=

    Nuclear Repulsion Energy =            692.9390433506748650
    One-Electron Energy =               -2162.9090732205927452
    Two-Electron Energy =                 891.3415344980296595
    Total Energy =                       -578.6284953718882207
  Basis Set: (AUG-CC-PVTZ AUX)
    Blend: AUG-CC-PVTZ-RI
    Molecular point group: c1

    Geometry (in Angstrom), charge = 0, multiplicity = 1:

       Center              X                  Y                   Z               Mass
    ------------   -----------------  -----------------  -----------------  -----------------
         O            1.640051808472     2.462210580212     0.020666149314    15.994914619570
         N           -1.954668191528    -0.453588419788    -0.017057850686    14.003074004430
         N            1.932760808472     0.179310580212     0.009075149314    14.003074004430
         N            0.245183808472    -1.483193419788    -0.023138850686    14.003074004430
         N           -1.405222191528     1.738544580212    -0.021582850686    14.003074004430
         N            2.500431808472    -2.089413419788     0.071171149314    14.003074004430
         C           -0.585220191528    -0.397274419788    -0.004958850686    12.000000000000
         C           -0.270589191528     0.961484580212    -0.017027850686    12.000000000000
         C            1.116287808472     1.354642580212     0.000885149314    12.000000000000
         C           -2.404911191528     0.837222180212    -0.018634050686    12.000000000000
         C            1.505853808472    -1.125120419788    -0.008057850686    12.000000000000
         C           -2.753998191528    -1.665719419788     0.031647149314    12.000000000000
         H           -3.446478191528     1.091508580212    -0.025161850686     1.007825032230
         H           -2.295335191528    -2.415935419788    -0.613221850686     1.007825032230
         H           -2.807139191528    -2.052538419788     1.052066149314     1.007825032230
         H           -3.758370191528    -1.435877419788    -0.326810850686     1.007825032230
         H            2.925082808472     0.377197580212     0.115217149314     1.007825032230
         H            2.115528808472    -3.016193419788    -0.082370850686     1.007825032230
         H            3.313226808472    -1.917274419788    -0.512036850686     1.007825032230

  Basis Set: AUG-CC-PVTZ
    Blend: AUG-CC-PVTZ
  Basis Set: (AUG-CC-PVTZ AUX)
    Blend: AUG-CC-PVTZ-JKFIT
	 Reference Energy          =    -578.6284953718882207 [Eh]
	 Singles Energy            =      -0.0000000000000000 [Eh]
	 Same-Spin Energy          =      -0.6166214529467482 [Eh]
	 Opposite-Spin Energy      =      -1.8208106203911756 [Eh]
	 Correlation Energy        =      -2.4374320733379236 [Eh]
	 Total Energy              =    -581.0659274452261798 [Eh]

	 ================> DF-SCS-MP2 Energies <==================
	-----------------------------------------------------------
	 SCS Same-Spin Scale       =       0.3333333333333333 [-]
	 SCS Opposite-Spin Scale   =       1.2000000000000000 [-]
	 SCS Same-Spin Energy      =      -0.2055404843155827 [Eh]
	 SCS Opposite-Spin Energy  =      -2.1849727444694107 [Eh]
	 SCS Correlation Energy    =      -2.3905132287849935 [Eh]
	 SCS Total Energy          =    -581.0190086006732599 [Eh]
	-----------------------------------------------------------

  Dipole Moment: [D]
     X:    -0.5276      Y:    -6.7823      Z:    -0.8510     Total:     6.8558

*** Psi4 exiting successfully. Buy a developer a beer!
