                               Psi4 1.3.2 release

  ==> Input File <==

--------------------------------------------------------------------------
#psi4
#
memory 32 gb

molecule  {
0 1
  O       -1.4697740     2.5644010     0.0803940
  N        1.9191590    -0.5831280    -0.0556370
  N       -1.9102790     0.3061000     0.0485010
  N       -0.3427170    -1.4672350    -0.0387560
  N        1.5166440     1.6409000    -0.0105650
  N       -2.6294290    -1.9169300     0.1110730
  C        0.5576980    -0.4369160    -0.0295360
  C        0.3337570     0.9396730    -0.0094060
  C       -1.0221650     1.4237120     0.0351730
  C        2.4390620     0.6894910    -0.0699270
  C       -1.5730580    -1.0260450     0.0187980
  C        2.6353690    -1.8453210    -0.0655260
  H        3.5092610     0.8590810    -0.0866130
  H        2.3547779    -2.4306711     0.8119797
  H        2.3794720    -2.4140780    -0.9605130
  H        3.7021657    -1.6211276    -0.0756305
  H       -2.8879820     0.5691470     0.1693100
  H       -2.3258040    -2.8676930    -0.0642460
  H       -3.4596940    -1.6726380    -0.4173570
units angstrom
no_reorient  #important for SAPT in psi4, default
symmetry c1  #important for SAPT in psi4, default
}

set PROPERTIES_ORIGIN ["COM"]
properties('MP2/aug-cc-pvtz', properties = ['dipole'])
--------------------------------------------------------------------------

    Molecular point group: c1
  Charge       = 0
  Multiplicity = 1
  Basis Set: AUG-CC-PVTZ
    Blend: AUG-CC-PVTZ
  Basis Set: (AUG-CC-PVTZ AUX)
    Blend: AUG-CC-PVTZ-JKFIT

    Orbital Energies [Eh]
    ---------------------

    Doubly Occupied:

       1A    -20.520871     2A    -15.632637     3A    -15.629314
       4A    -15.610720     5A    -15.570908     6A    -15.559532
       7A    -11.396081     8A    -11.364251     9A    -11.319013
      10A    -11.307225    11A    -11.289451    12A    -11.246917
      13A     -1.390667    14A     -1.360545    15A     -1.334014
      16A     -1.219101    17A     -1.216215    18A     -1.190700
      19A     -1.029405    20A     -0.986475    21A     -0.901667
      22A     -0.882200    23A     -0.807833    24A     -0.766351
      25A     -0.741311    26A     -0.729381    27A     -0.692170
      28A     -0.670845    29A     -0.649345    30A     -0.642847
      31A     -0.625996    32A     -0.610660    33A     -0.593703
      34A     -0.580180    35A     -0.560311    36A     -0.541498
      37A     -0.493738    38A     -0.459283    39A     -0.439914
      40A     -0.429320    41A     -0.428811    42A     -0.392462
      43A     -0.298380

  @DF-RHF Final Energy:  -578.63058446626803

   => Energetics <=

    Nuclear Repulsion Energy =            693.5003062822349875
    One-Electron Energy =               -2164.0372883717022887
    Two-Electron Energy =                 891.9063976231992683
    Total Energy =                       -578.6305844662680329
  Basis Set: (AUG-CC-PVTZ AUX)
    Blend: AUG-CC-PVTZ-RI
    Molecular point group: c1

    Geometry (in Angstrom), charge = 0, multiplicity = 1:

       Center              X                  Y                   Z               Mass
    ------------   -----------------  -----------------  -----------------  -----------------
         O           -1.469650976274     2.564344883001     0.080529378653    15.994914619570
         N            1.919282023726    -0.583184116999    -0.055501621347    14.003074004430
         N           -1.910155976274     0.306043883001     0.048636378653    14.003074004430
         N           -0.342593976274    -1.467291116999    -0.038620621347    14.003074004430
         N            1.516767023726     1.640843883001    -0.010429621347    14.003074004430
         N           -2.629305976274    -1.916986116999     0.111208378653    14.003074004430
         C            0.557821023726    -0.436972116999    -0.029400621347    12.000000000000
         C            0.333880023726     0.939616883001    -0.009270621347    12.000000000000
         C           -1.022041976274     1.423655883001     0.035308378653    12.000000000000
         C            2.439185023726     0.689434883001    -0.069791621347    12.000000000000
         C           -1.572934976274    -1.026101116999     0.018933378653    12.000000000000
         C            2.635492023726    -1.845377116999    -0.065390621347    12.000000000000
         H            3.509384023726     0.859024883001    -0.086477621347     1.007825032230
         H            2.354900923726    -2.430727216999     0.812115078653     1.007825032230
         H            2.379595023726    -2.414134116999    -0.960377621347     1.007825032230
         H            3.702288723726    -1.621183716999    -0.075495121347     1.007825032230
         H           -2.887858976274     0.569090883001     0.169445378653     1.007825032230
         H           -2.325680976274    -2.867749116999    -0.064110621347     1.007825032230
         H           -3.459570976274    -1.672694116999    -0.417221621347     1.007825032230

  Basis Set: AUG-CC-PVTZ
    Blend: AUG-CC-PVTZ
  Basis Set: (AUG-CC-PVTZ AUX)
    Blend: AUG-CC-PVTZ-JKFIT
	 Reference Energy          =    -578.6305844662680329 [Eh]
	 Singles Energy            =      -0.0000000000000000 [Eh]
	 Same-Spin Energy          =      -0.6161014886838806 [Eh]
	 Opposite-Spin Energy      =      -1.8198596667204976 [Eh]
	 Correlation Energy        =      -2.4359611554043781 [Eh]
	 Total Energy              =    -581.0665456216723896 [Eh]

	 ================> DF-SCS-MP2 Energies <==================
	-----------------------------------------------------------
	 SCS Same-Spin Scale       =       0.3333333333333333 [-]
	 SCS Opposite-Spin Scale   =       1.2000000000000000 [-]
	 SCS Same-Spin Energy      =      -0.2053671628946269 [Eh]
	 SCS Opposite-Spin Energy  =      -2.1838316000645972 [Eh]
	 SCS Correlation Energy    =      -2.3891987629592242 [Eh]
	 SCS Total Energy          =    -581.0197832292273006 [Eh]
	-----------------------------------------------------------

  Dipole Moment: [D]
     X:    -0.0204      Y:    -6.7913      Z:    -0.9489     Total:     6.8573

*** Psi4 exiting successfully. Buy a developer a beer!
