                               Psi4 1.3.2 release

  ==> Input File <==

--------------------------------------------------------------------------
#psi4
#
memory 32 gb

molecule  {
0 1
  O       -1.4697740     2.5644010     0.0803940
  N        1.9191590    -0.5831280    -0.0556370
  N       -1.9102790     0.3061000     0.0485010
  N       -0.3427170    -1.4672350    -0.0387560
  N        1.5166440     1.6409000    -0.0105650
  N       -2.6294290    -1.9169300     0.1110730
  C        0.5576980    -0.4369160    -0.0295360
  C        0.3337570     0.9396730    -0.0094060
  C       -0.9280311     1.3901079     0.0320781
  C        2.4390620     0.6894910    -0.0699270
  C       -1.5730580    -1.0260450     0.0187980
  C        2.6353690    -1.8453210    -0.0655260
  H        3.5092610     0.8590810    -0.0866130
  H        2.3729340    -2.4304260     0.8177420
  H        2.3794720    -2.4140780    -0.9605130
  H        3.7041390    -1.6305860    -0.0592400
  H       -2.8879820     0.5691470     0.1693100
  H       -2.3258040    -2.8676930    -0.0642460
  H       -3.4596940    -1.6726380    -0.4173570
units angstrom
no_reorient  #important for SAPT in psi4, default
symmetry c1  #important for SAPT in psi4, default
}

set PROPERTIES_ORIGIN ["COM"]
properties('MP2/aug-cc-pvtz', properties = ['dipole'])
--------------------------------------------------------------------------

    Molecular point group: c1
  Charge       = 0
  Multiplicity = 1
  Basis Set: AUG-CC-PVTZ
    Blend: AUG-CC-PVTZ
  Basis Set: (AUG-CC-PVTZ AUX)
    Blend: AUG-CC-PVTZ-JKFIT

    Orbital Energies [Eh]
    ---------------------

    Doubly Occupied:

       1A    -20.502774     2A    -15.640871     3A    -15.628231
       4A    -15.611819     5A    -15.575467     6A    -15.565926
       7A    -11.397416     8A    -11.358816     9A    -11.334299
      10A    -11.316500    11A    -11.294940    12A    -11.245323
      13A     -1.385382    14A     -1.349453    15A     -1.311328
      16A     -1.221408    17A     -1.210755    18A     -1.194038
      19A     -1.049149    20A     -0.997795    21A     -0.915442
      22A     -0.876370    23A     -0.808361    24A     -0.775474
      25A     -0.745437    26A     -0.734561    27A     -0.691147
      28A     -0.677540    29A     -0.651926    30A     -0.646925
      31A     -0.626240    32A     -0.602126    33A     -0.588656
      34A     -0.575940    35A     -0.566922    36A     -0.525918
      37A     -0.498517    38A     -0.461875    39A     -0.439633
      40A     -0.420019    41A     -0.418970    42A     -0.397820
      43A     -0.307210

  @DF-RHF Final Energy:  -578.61043505229622

   => Energetics <=

    Nuclear Repulsion Energy =            694.1194286258355532
    One-Electron Energy =               -2165.1702943388231688
    Two-Electron Energy =                 892.4404306606913906
    Total Energy =                       -578.6104350522962250
  Basis Set: (AUG-CC-PVTZ AUX)
    Blend: AUG-CC-PVTZ-RI
    Molecular point group: c1

    Geometry (in Angstrom), charge = 0, multiplicity = 1:

       Center              X                  Y                   Z               Mass
    ------------   -----------------  -----------------  -----------------  -----------------
         O           -1.476617282252     2.566844107214     0.080619116928    15.994914619570
         N            1.912315717748    -0.580684892786    -0.055411883072    14.003074004430
         N           -1.917122282252     0.308543107214     0.048726116928    14.003074004430
         N           -0.349560282252    -1.464791892786    -0.038530883072    14.003074004430
         N            1.509800717748     1.643343107214    -0.010339883072    14.003074004430
         N           -2.636272282252    -1.914486892786     0.111298116928    14.003074004430
         C            0.550854717748    -0.434472892786    -0.029310883072    12.000000000000
         C            0.326913717748     0.942116107214    -0.009180883072    12.000000000000
         C           -0.934874382252     1.392551007214     0.032303216928    12.000000000000
         C            2.432218717748     0.691934107214    -0.069701883072    12.000000000000
         C           -1.579901282252    -1.023601892786     0.019023116928    12.000000000000
         C            2.628525717748    -1.842877892786    -0.065300883072    12.000000000000
         H            3.502417717748     0.861524107214    -0.086387883072     1.007825032230
         H            2.366090717748    -2.427982892786     0.817967116928     1.007825032230
         H            2.372628717748    -2.411634892786    -0.960287883072     1.007825032230
         H            3.697295717748    -1.628142892786    -0.059014883072     1.007825032230
         H           -2.894825282252     0.571590107214     0.169535116928     1.007825032230
         H           -2.332647282252    -2.865249892786    -0.064020883072     1.007825032230
         H           -3.466537282252    -1.670194892786    -0.417131883072     1.007825032230

  Basis Set: AUG-CC-PVTZ
    Blend: AUG-CC-PVTZ
  Basis Set: (AUG-CC-PVTZ AUX)
    Blend: AUG-CC-PVTZ-JKFIT
	 Reference Energy          =    -578.6104350522962250 [Eh]
	 Singles Energy            =      -0.0000000000000000 [Eh]
	 Same-Spin Energy          =      -0.6176551246500283 [Eh]
	 Opposite-Spin Energy      =      -1.8229342633672858 [Eh]
	 Correlation Energy        =      -2.4405893880173140 [Eh]
	 Total Energy              =    -581.0510244403135403 [Eh]

	 ================> DF-SCS-MP2 Energies <==================
	-----------------------------------------------------------
	 SCS Same-Spin Scale       =       0.3333333333333333 [-]
	 SCS Opposite-Spin Scale   =       1.2000000000000000 [-]
	 SCS Same-Spin Energy      =      -0.2058850415500094 [Eh]
	 SCS Opposite-Spin Energy  =      -2.1875211160407431 [Eh]
	 SCS Correlation Energy    =      -2.3934061575907526 [Eh]
	 SCS Total Energy          =    -581.0038412098870140 [Eh]
	-----------------------------------------------------------

  Dipole Moment: [D]
     X:     0.5693      Y:    -7.2949      Z:    -0.9585     Total:     7.3796

*** Psi4 exiting successfully. Buy a developer a beer!
