                               Psi4 1.3.2 release

  ==> Input File <==

--------------------------------------------------------------------------
#psi4
#
memory 32 gb

molecule  {
0 1
  O       -1.4697740     2.5644010     0.0803940
  N        1.9136708    -0.5863914    -0.0446997
  N       -1.9102790     0.3061000     0.0485010
  N       -0.3427170    -1.4672350    -0.0387560
  N        1.5166440     1.6409000    -0.0105650
  N       -2.6294290    -1.9169300     0.1110730
  C        0.5576980    -0.4369160    -0.0295360
  C        0.3337570     0.9396730    -0.0094060
  C       -1.0221650     1.4237120     0.0351730
  C        2.4390620     0.6894910    -0.0699270
  C       -1.5730580    -1.0260450     0.0187980
  C        2.6353690    -1.8453210    -0.0655260
  H        3.5092610     0.8590810    -0.0866130
  H        2.3671080    -2.4234465     0.8205831
  H        2.3794720    -2.4140780    -0.9605130
  H        3.7041390    -1.6305860    -0.0592400
  H       -2.8879820     0.5691470     0.1693100
  H       -2.3258040    -2.8676930    -0.0642460
  H       -3.4596940    -1.6726380    -0.4173570
units angstrom
no_reorient  #important for SAPT in psi4, default
symmetry c1  #important for SAPT in psi4, default
}

set PROPERTIES_ORIGIN ["COM"]
properties('MP2/aug-cc-pvtz', properties = ['dipole'])
--------------------------------------------------------------------------

    Molecular point group: c1
  Charge       = 0
  Multiplicity = 1
  Basis Set: AUG-CC-PVTZ
    Blend: AUG-CC-PVTZ
  Basis Set: (AUG-CC-PVTZ AUX)
    Blend: AUG-CC-PVTZ-JKFIT

    Orbital Energies [Eh]
    ---------------------

    Doubly Occupied:

       1A    -20.520668     2A    -15.632643     3A    -15.629142
       4A    -15.610689     5A    -15.570636     6A    -15.560285
       7A    -11.396045     8A    -11.364094     9A    -11.318920
      10A    -11.307372    11A    -11.289344    12A    -11.246599
      13A     -1.390619    14A     -1.360601    15A     -1.333835
      16A     -1.219004    17A     -1.216375    18A     -1.190665
      19A     -1.029639    20A     -0.986329    21A     -0.901009
      22A     -0.882167    23A     -0.807952    24A     -0.766873
      25A     -0.741060    26A     -0.729383    27A     -0.692077
      28A     -0.671423    29A     -0.648857    30A     -0.642162
      31A     -0.626484    32A     -0.609909    33A     -0.594062
      34A     -0.579528    35A     -0.560961    36A     -0.541629
      37A     -0.493611    38A     -0.459129    39A     -0.439941
      40A     -0.429450    41A     -0.428657    42A     -0.392527
      43A     -0.298489

  @DF-RHF Final Energy:  -578.63067866801885

   => Energetics <=

    Nuclear Repulsion Energy =            693.5315133472120124
    One-Electron Energy =               -2164.1026981676418472
    Two-Electron Energy =                 891.9405061524109897
    Total Energy =                       -578.6306786680188452
  Basis Set: (AUG-CC-PVTZ AUX)
    Blend: AUG-CC-PVTZ-RI
    Molecular point group: c1

    Geometry (in Angstrom), charge = 0, multiplicity = 1:

       Center              X                  Y                   Z               Mass
    ------------   -----------------  -----------------  -----------------  -----------------
         O           -1.469272723322     2.564635367924     0.079448924077    15.994914619570
         N            1.914172076678    -0.586157032076    -0.045644775923    14.003074004430
         N           -1.909777723322     0.306334367924     0.047555924077    14.003074004430
         N           -0.342215723322    -1.467000632076    -0.039701075923    14.003074004430
         N            1.517145276678     1.641134367924    -0.011510075923    14.003074004430
         N           -2.628927723322    -1.916695632076     0.110127924077    14.003074004430
         C            0.558199276678    -0.436681632076    -0.030481075923    12.000000000000
         C            0.334258276678     0.939907367924    -0.010351075923    12.000000000000
         C           -1.021663723322     1.423946367924     0.034227924077    12.000000000000
         C            2.439563276678     0.689725367924    -0.070872075923    12.000000000000
         C           -1.572556723322    -1.025810632076     0.017852924077    12.000000000000
         C            2.635870276678    -1.845086632076    -0.066471075923    12.000000000000
         H            3.509762276678     0.859315367924    -0.087558075923     1.007825032230
         H            2.367609276678    -2.423212132076     0.819638024077     1.007825032230
         H            2.379973276678    -2.413843632076    -0.961458075923     1.007825032230
         H            3.704640276678    -1.630351632076    -0.060185075923     1.007825032230
         H           -2.887480723322     0.569381367924     0.168364924077     1.007825032230
         H           -2.325302723322    -2.867458632076    -0.065191075923     1.007825032230
         H           -3.459192723322    -1.672403632076    -0.418302075923     1.007825032230

  Basis Set: AUG-CC-PVTZ
    Blend: AUG-CC-PVTZ
  Basis Set: (AUG-CC-PVTZ AUX)
    Blend: AUG-CC-PVTZ-JKFIT
	 Reference Energy          =    -578.6306786680188452 [Eh]
	 Singles Energy            =      -0.0000000000000000 [Eh]
	 Same-Spin Energy          =      -0.6160496028939599 [Eh]
	 Opposite-Spin Energy      =      -1.8197949967082991 [Eh]
	 Correlation Energy        =      -2.4358445996022589 [Eh]
	 Total Energy              =    -581.0665232676210508 [Eh]

	 ================> DF-SCS-MP2 Energies <==================
	-----------------------------------------------------------
	 SCS Same-Spin Scale       =       0.3333333333333333 [-]
	 SCS Opposite-Spin Scale   =       1.2000000000000000 [-]
	 SCS Same-Spin Energy      =      -0.2053498676313200 [Eh]
	 SCS Opposite-Spin Energy  =      -2.1837539960499588 [Eh]
	 SCS Correlation Energy    =      -2.3891038636812789 [Eh]
	 SCS Total Energy          =    -581.0197825317001161 [Eh]
	-----------------------------------------------------------

  Dipole Moment: [D]
     X:    -0.0012      Y:    -6.7867      Z:    -0.9447     Total:     6.8521

*** Psi4 exiting successfully. Buy a developer a beer!
