                               Psi4 1.3.2 release

  ==> Input File <==

--------------------------------------------------------------------------
#psi4
#
memory 32 gb

molecule  {
0 1
  O       -1.4697740     2.5644010     0.0803940
  N        1.9191590    -0.5831280    -0.0556370
  N       -1.9102790     0.3061000     0.0485010
  N       -0.3427170    -1.4672350    -0.0387560
  N        1.5166440     1.6409000    -0.0105650
  N       -2.6294290    -1.9169300     0.1110730
  C        0.5816806    -0.4327896    -0.0301996
  C        0.3337570     0.9396730    -0.0094060
  C       -1.0135072     1.4473139     0.0351512
  C        2.4390620     0.6894910    -0.0699270
  C       -1.5730580    -1.0260450     0.0187980
  C        2.6353690    -1.8453210    -0.0655260
  H        3.5092610     0.8590810    -0.0866130
  H        2.3729340    -2.4304260     0.8177420
  H        2.3794720    -2.4140780    -0.9605130
  H        3.7041390    -1.6305860    -0.0592400
  H       -2.8879820     0.5691470     0.1693100
  H       -2.3258040    -2.8676930    -0.0642460
  H       -3.4596940    -1.6726380    -0.4173570
units angstrom
no_reorient  #important for SAPT in psi4, default
symmetry c1  #important for SAPT in psi4, default
}

set PROPERTIES_ORIGIN ["COM"]
properties('MP2/aug-cc-pvtz', properties = ['dipole'])
--------------------------------------------------------------------------

    Molecular point group: c1
  Charge       = 0
  Multiplicity = 1
  Basis Set: AUG-CC-PVTZ
    Blend: AUG-CC-PVTZ
  Basis Set: (AUG-CC-PVTZ AUX)
    Blend: AUG-CC-PVTZ-JKFIT

    Orbital Energies [Eh]
    ---------------------

    Doubly Occupied:

       1A    -20.526457     2A    -15.634803     3A    -15.623470
       4A    -15.607737     5A    -15.567322     6A    -15.560425
       7A    -11.392298     8A    -11.365676     9A    -11.318486
      10A    -11.305969    11A    -11.290798    12A    -11.245753
      13A     -1.396812    14A     -1.368593    15A     -1.333113
      16A     -1.214305    17A     -1.211252    18A     -1.189232
      19A     -1.028753    20A     -0.989480    21A     -0.900568
      22A     -0.875375    23A     -0.805038    24A     -0.767717
      25A     -0.739440    26A     -0.726583    27A     -0.690366
      28A     -0.672612    29A     -0.652195    30A     -0.639419
      31A     -0.623898    32A     -0.616857    33A     -0.593436
      34A     -0.581970    35A     -0.562303    36A     -0.545153
      37A     -0.490223    38A     -0.456163    39A     -0.441022
      40A     -0.430755    41A     -0.427988    42A     -0.393822
      43A     -0.298899

  @DF-RHF Final Energy:  -578.63071681635154

   => Energetics <=

    Nuclear Repulsion Energy =            693.3130335156982937
    One-Electron Energy =               -2163.6824278138060436
    Two-Electron Energy =                 891.7386774817560990
    Total Energy =                       -578.6307168163515371
  Basis Set: (AUG-CC-PVTZ AUX)
    Blend: AUG-CC-PVTZ-RI
    Molecular point group: c1

    Geometry (in Angstrom), charge = 0, multiplicity = 1:

       Center              X                  Y                   Z               Mass
    ------------   -----------------  -----------------  -----------------  -----------------
         O           -1.472146790431     2.562385327139     0.080443949633    15.994914619570
         N            1.916786209569    -0.585143672861    -0.055587050367    14.003074004430
         N           -1.912651790431     0.304084327139     0.048550949633    14.003074004430
         N           -0.345089790431    -1.469250672861    -0.038706050367    14.003074004430
         N            1.514271209569     1.638884327139    -0.010515050367    14.003074004430
         N           -2.631801790431    -1.918945672861     0.111122949633    14.003074004430
         C            0.579307809569    -0.434805272861    -0.030149650367    12.000000000000
         C            0.331384209569     0.937657327139    -0.009356050367    12.000000000000
         C           -1.015879990431     1.445298227139     0.035201149633    12.000000000000
         C            2.436689209569     0.687475327139    -0.069877050367    12.000000000000
         C           -1.575430790431    -1.028060672861     0.018847949633    12.000000000000
         C            2.632996209569    -1.847336672861    -0.065476050367    12.000000000000
         H            3.506888209569     0.857065327139    -0.086563050367     1.007825032230
         H            2.370561209569    -2.432441672861     0.817791949633     1.007825032230
         H            2.377099209569    -2.416093672861    -0.960463050367     1.007825032230
         H            3.701766209569    -1.632601672861    -0.059190050367     1.007825032230
         H           -2.890354790431     0.567131327139     0.169359949633     1.007825032230
         H           -2.328176790431    -2.869708672861    -0.064196050367     1.007825032230
         H           -3.462066790431    -1.674653672861    -0.417307050367     1.007825032230

  Basis Set: AUG-CC-PVTZ
    Blend: AUG-CC-PVTZ
  Basis Set: (AUG-CC-PVTZ AUX)
    Blend: AUG-CC-PVTZ-JKFIT
	 Reference Energy          =    -578.6307168163515371 [Eh]
	 Singles Energy            =      -0.0000000000000000 [Eh]
	 Same-Spin Energy          =      -0.6155458170172825 [Eh]
	 Opposite-Spin Energy      =      -1.8190506524188932 [Eh]
	 Correlation Energy        =      -2.4345964694361757 [Eh]
	 Total Energy              =    -581.0653132857877381 [Eh]

	 ================> DF-SCS-MP2 Energies <==================
	-----------------------------------------------------------
	 SCS Same-Spin Scale       =       0.3333333333333333 [-]
	 SCS Opposite-Spin Scale   =       1.2000000000000000 [-]
	 SCS Same-Spin Energy      =      -0.2051819390057608 [Eh]
	 SCS Opposite-Spin Energy  =      -2.1828607829026718 [Eh]
	 SCS Correlation Energy    =      -2.3880427219084326 [Eh]
	 SCS Total Energy          =    -581.0187595382599284 [Eh]
	-----------------------------------------------------------

  Dipole Moment: [D]
     X:     0.1025      Y:    -6.5478      Z:    -0.9343     Total:     6.6149

*** Psi4 exiting successfully. Buy a developer a beer!
