                               Psi4 1.3.2 release

  ==> Input File <==

--------------------------------------------------------------------------
#psi4
#
memory 32 gb

molecule  {
0 1
  O       -1.4697740     2.5644010     0.0803940
  N        1.9191590    -0.5831280    -0.0556370
  N       -1.9102790     0.3061000     0.0485010
  N       -0.3427170    -1.4672350    -0.0387560
  N        1.5166440     1.6409000    -0.0105650
  N       -2.6294290    -1.9169300     0.1110730
  C        0.5576980    -0.4369160    -0.0295360
  C        0.2987196     1.0024780    -0.0061107
  C       -1.0221650     1.4237120     0.0351730
  C        2.4876596     0.7390946    -0.0691633
  C       -1.5730580    -1.0260450     0.0187980
  C        2.6353690    -1.8453210    -0.0655260
  H        3.5092610     0.8590810    -0.0866130
  H        2.3729340    -2.4304260     0.8177420
  H        2.3794720    -2.4140780    -0.9605130
  H        3.7041390    -1.6305860    -0.0592400
  H       -2.8879820     0.5691470     0.1693100
  H       -2.3258040    -2.8676930    -0.0642460
  H       -3.4596940    -1.6726380    -0.4173570
units angstrom
no_reorient  #important for SAPT in psi4, default
symmetry c1  #important for SAPT in psi4, default
}

set PROPERTIES_ORIGIN ["COM"]
properties('MP2/aug-cc-pvtz', properties = ['dipole'])
--------------------------------------------------------------------------

    Molecular point group: c1
  Charge       = 0
  Multiplicity = 1
  Basis Set: AUG-CC-PVTZ
    Blend: AUG-CC-PVTZ
  Basis Set: (AUG-CC-PVTZ AUX)
    Blend: AUG-CC-PVTZ-JKFIT

    Orbital Energies [Eh]
    ---------------------

    Doubly Occupied:

       1A    -20.511060     2A    -15.632909     3A    -15.629840
       4A    -15.613234     5A    -15.573700     6A    -15.567432
       7A    -11.399832     8A    -11.356351     9A    -11.332820
      10A    -11.309838    11A    -11.287368    12A    -11.248841
      13A     -1.387375    14A     -1.348668    15A     -1.328479
      16A     -1.219970    17A     -1.217288    18A     -1.186841
      19A     -1.029873    20A     -0.983027    21A     -0.904274
      22A     -0.884103    23A     -0.811848    24A     -0.757484
      25A     -0.742170    26A     -0.735478    27A     -0.694018
      28A     -0.666076    29A     -0.648499    30A     -0.642357
      31A     -0.626702    32A     -0.618890    33A     -0.600751
      34A     -0.577498    35A     -0.557627    36A     -0.539110
      37A     -0.491765    38A     -0.460924    39A     -0.435237
      40A     -0.428833    41A     -0.419260    42A     -0.389806
      43A     -0.296378

  @DF-RHF Final Energy:  -578.61547475962652

   => Energetics <=

    Nuclear Repulsion Energy =            691.2403182627082288
    One-Electron Energy =               -2159.5239195752474188
    Two-Electron Energy =                 889.6681265529127813
    Total Energy =                       -578.6154747596265224
  Basis Set: (AUG-CC-PVTZ AUX)
    Blend: AUG-CC-PVTZ-RI
    Molecular point group: c1

    Geometry (in Angstrom), charge = 0, multiplicity = 1:

       Center              X                  Y                   Z               Mass
    ------------   -----------------  -----------------  -----------------  -----------------
         O           -1.470759686460     2.556229187246     0.080099038359    15.994914619570
         N            1.918173313540    -0.591299812754    -0.055931961641    14.003074004430
         N           -1.911264686460     0.297928187246     0.048206038359    14.003074004430
         N           -0.343702686460    -1.475406812754    -0.039050961641    14.003074004430
         N            1.515658313540     1.632728187246    -0.010859961641    14.003074004430
         N           -2.630414686460    -1.925101812754     0.110778038359    14.003074004430
         C            0.556712313540    -0.445087812754    -0.029830961641    12.000000000000
         C            0.297733913540     0.994306187246    -0.006405661641    12.000000000000
         C           -1.023150686460     1.415540187246     0.034878038359    12.000000000000
         C            2.486673913540     0.730922787246    -0.069458261641    12.000000000000
         C           -1.574043686460    -1.034216812754     0.018503038359    12.000000000000
         C            2.634383313540    -1.853492812754    -0.065820961641    12.000000000000
         H            3.508275313540     0.850909187246    -0.086907961641     1.007825032230
         H            2.371948313540    -2.438597812754     0.817447038359     1.007825032230
         H            2.378486313540    -2.422249812754    -0.960807961641     1.007825032230
         H            3.703153313540    -1.638757812754    -0.059534961641     1.007825032230
         H           -2.888967686460     0.560975187246     0.169015038359     1.007825032230
         H           -2.326789686460    -2.875864812754    -0.064540961641     1.007825032230
         H           -3.460679686460    -1.680809812754    -0.417651961641     1.007825032230

  Basis Set: AUG-CC-PVTZ
    Blend: AUG-CC-PVTZ
  Basis Set: (AUG-CC-PVTZ AUX)
    Blend: AUG-CC-PVTZ-JKFIT
	 Reference Energy          =    -578.6154747596265224 [Eh]
	 Singles Energy            =      -0.0000000000000000 [Eh]
	 Same-Spin Energy          =      -0.6166746175158564 [Eh]
	 Opposite-Spin Energy      =      -1.8212069072678332 [Eh]
	 Correlation Energy        =      -2.4378815247836894 [Eh]
	 Total Energy              =    -581.0533562844102562 [Eh]

	 ================> DF-SCS-MP2 Energies <==================
	-----------------------------------------------------------
	 SCS Same-Spin Scale       =       0.3333333333333333 [-]
	 SCS Opposite-Spin Scale   =       1.2000000000000000 [-]
	 SCS Same-Spin Energy      =      -0.2055582058386188 [Eh]
	 SCS Opposite-Spin Energy  =      -2.1854482887213997 [Eh]
	 SCS Correlation Energy    =      -2.3910064945600187 [Eh]
	 SCS Total Energy          =    -581.0064812541864967 [Eh]
	-----------------------------------------------------------

  Dipole Moment: [D]
     X:     0.1153      Y:    -6.8233      Z:    -0.9425     Total:     6.8890

*** Psi4 exiting successfully. Buy a developer a beer!
