                               Psi4 1.3.2 release

  ==> Input File <==

--------------------------------------------------------------------------
#psi4
#
memory 32 gb

molecule  {
0 1
  O       -1.4697740     2.5644010     0.0803940
  N        1.9191590    -0.5831280    -0.0556370
  N       -1.9102790     0.3061000     0.0485010
  N       -0.3427170    -1.4672350    -0.0387560
  N        1.5166440     1.6409000    -0.0105650
  N       -2.6294290    -1.9169300     0.1110730
  C        0.5519176    -0.5083825    -0.0291915
  C        0.3337570     0.9396730    -0.0094060
  C       -1.0221650     1.4237120     0.0351730
  C        2.4390620     0.6894910    -0.0699270
  C       -1.5730580    -1.0260450     0.0187980
  C        2.5683440    -1.8810775    -0.0641018
  H        3.5092610     0.8590810    -0.0866130
  H        2.3729340    -2.4304260     0.8177420
  H        2.3794720    -2.4140780    -0.9605130
  H        3.7041390    -1.6305860    -0.0592400
  H       -2.8879820     0.5691470     0.1693100
  H       -2.3258040    -2.8676930    -0.0642460
  H       -3.4596940    -1.6726380    -0.4173570
units angstrom
no_reorient  #important for SAPT in psi4, default
symmetry c1  #important for SAPT in psi4, default
}

set PROPERTIES_ORIGIN ["COM"]
properties('MP2/aug-cc-pvtz', properties = ['dipole'])
--------------------------------------------------------------------------

    Molecular point group: c1
  Charge       = 0
  Multiplicity = 1
  Basis Set: AUG-CC-PVTZ
    Blend: AUG-CC-PVTZ
  Basis Set: (AUG-CC-PVTZ AUX)
    Blend: AUG-CC-PVTZ-JKFIT

    Orbital Energies [Eh]
    ---------------------

    Doubly Occupied:

       1A    -20.514793     2A    -15.634229     3A    -15.631685
       4A    -15.614331     5A    -15.572388     6A    -15.562128
       7A    -11.401939     8A    -11.359410     9A    -11.324244
      10A    -11.307173    11A    -11.289374    12A    -11.248305
      13A     -1.390327    14A     -1.358585    15A     -1.335892
      16A     -1.230629    17A     -1.220208    18A     -1.192434
      19A     -1.019848    20A     -0.984839    21A     -0.905706
      22A     -0.889384    23A     -0.810782    24A     -0.759400
      25A     -0.743492    26A     -0.733014    27A     -0.694706
      28A     -0.678696    29A     -0.651305    30A     -0.644789
      31A     -0.633354    32A     -0.606959    33A     -0.591951
      34A     -0.566139    35A     -0.552628    36A     -0.544131
      37A     -0.495504    38A     -0.466859    39A     -0.437980
      40A     -0.431890    41A     -0.422004    42A     -0.394383
      43A     -0.286599

  @DF-RHF Final Energy:  -578.61403236251795

   => Energetics <=

    Nuclear Repulsion Energy =            693.4086693712971510
    One-Electron Energy =               -2163.7765742434221465
    Two-Electron Energy =                 891.7538725096071630
    Total Energy =                       -578.6140323625179462
  Basis Set: (AUG-CC-PVTZ AUX)
    Blend: AUG-CC-PVTZ-RI
    Molecular point group: c1

    Geometry (in Angstrom), charge = 0, multiplicity = 1:

       Center              X                  Y                   Z               Mass
    ------------   -----------------  -----------------  -----------------  -----------------
         O           -1.464481027604     2.572196098730     0.080265539980    15.994914619570
         N            1.924451972396    -0.575332901270    -0.055765460020    14.003074004430
         N           -1.904986027604     0.313895098730     0.048372539980    14.003074004430
         N           -0.337424027604    -1.459439901270    -0.038884460020    14.003074004430
         N            1.521936972396     1.648695098730    -0.010693460020    14.003074004430
         N           -2.624136027604    -1.909134901270     0.110944539980    14.003074004430
         C            0.557210572396    -0.500587401270    -0.029319960020    12.000000000000
         C            0.339049972396     0.947468098730    -0.009534460020    12.000000000000
         C           -1.016872027604     1.431507098730     0.035044539980    12.000000000000
         C            2.444354972396     0.697286098730    -0.070055460020    12.000000000000
         C           -1.567765027604    -1.018249901270     0.018669539980    12.000000000000
         C            2.573636972396    -1.873282401270    -0.064230260020    12.000000000000
         H            3.514553972396     0.866876098730    -0.086741460020     1.007825032230
         H            2.378226972396    -2.422630901270     0.817613539980     1.007825032230
         H            2.384764972396    -2.406282901270    -0.960641460020     1.007825032230
         H            3.709431972396    -1.622790901270    -0.059368460020     1.007825032230
         H           -2.882689027604     0.576942098730     0.169181539980     1.007825032230
         H           -2.320511027604    -2.859897901270    -0.064374460020     1.007825032230
         H           -3.454401027604    -1.664842901270    -0.417485460020     1.007825032230

  Basis Set: AUG-CC-PVTZ
    Blend: AUG-CC-PVTZ
  Basis Set: (AUG-CC-PVTZ AUX)
    Blend: AUG-CC-PVTZ-JKFIT
	 Reference Energy          =    -578.6140323625179462 [Eh]
	 Singles Energy            =      -0.0000000000000000 [Eh]
	 Same-Spin Energy          =      -0.6180024707930236 [Eh]
	 Opposite-Spin Energy      =      -1.8215764171502211 [Eh]
	 Correlation Energy        =      -2.4395788879432447 [Eh]
	 Total Energy              =    -581.0536112504612447 [Eh]

	 ================> DF-SCS-MP2 Energies <==================
	-----------------------------------------------------------
	 SCS Same-Spin Scale       =       0.3333333333333333 [-]
	 SCS Opposite-Spin Scale   =       1.2000000000000000 [-]
	 SCS Same-Spin Energy      =      -0.2060008235976745 [Eh]
	 SCS Opposite-Spin Energy  =      -2.1858917005802652 [Eh]
	 SCS Correlation Energy    =      -2.3918925241779396 [Eh]
	 SCS Total Energy          =    -581.0059248866958796 [Eh]
	-----------------------------------------------------------

  Dipole Moment: [D]
     X:    -0.0980      Y:    -6.9696      Z:    -0.9397     Total:     7.0333

*** Psi4 exiting successfully. Buy a developer a beer!
