                               Psi4 1.3.2 release

  ==> Input File <==

--------------------------------------------------------------------------
#psi4
#
memory 32 gb

molecule  {
0 1
  O       -1.4697740     2.5644010     0.0803940
  N        1.9191590    -0.5831280    -0.0556370
  N       -1.9102790     0.3061000     0.0485010
  N       -0.3427170    -1.4672350    -0.0387560
  N        1.5166440     1.6409000    -0.0105650
  N       -2.6294290    -1.9169300     0.1110730
  C        0.5576980    -0.4369160    -0.0295360
  C        0.3337570     0.9396730    -0.0094060
  C       -1.0125310     1.4159683     0.0336165
  C        2.4390620     0.6894910    -0.0699270
  C       -1.5730580    -1.0260450     0.0187980
  C        2.6353690    -1.8453210    -0.0655260
  H        3.5092610     0.8590810    -0.0866130
  H        2.3729340    -2.4304260     0.8177420
  H        2.3794720    -2.4140780    -0.9605130
  H        3.7041390    -1.6305860    -0.0592400
  H       -2.8902965     0.5605631     0.1689417
  H       -2.3258040    -2.8676930    -0.0642460
  H       -3.4596940    -1.6726380    -0.4173570
units angstrom
no_reorient  #important for SAPT in psi4, default
symmetry c1  #important for SAPT in psi4, default
}

set PROPERTIES_ORIGIN ["COM"]
properties('MP2/aug-cc-pvtz', properties = ['dipole'])
--------------------------------------------------------------------------

    Molecular point group: c1
  Charge       = 0
  Multiplicity = 1
  Basis Set: AUG-CC-PVTZ
    Blend: AUG-CC-PVTZ
  Basis Set: (AUG-CC-PVTZ AUX)
    Blend: AUG-CC-PVTZ-JKFIT

    Orbital Energies [Eh]
    ---------------------

    Doubly Occupied:

       1A    -20.518054     2A    -15.633810     3A    -15.629945
       4A    -15.611168     5A    -15.571652     6A    -15.560432
       7A    -11.396363     8A    -11.363805     9A    -11.320790
      10A    -11.308414    11A    -11.290056    12A    -11.247091
      13A     -1.388023    14A     -1.358256    15A     -1.332611
      16A     -1.219007    17A     -1.216635    18A     -1.191544
      19A     -1.031642    20A     -0.987827    21A     -0.903584
      22A     -0.881982    23A     -0.808197    24A     -0.767639
      25A     -0.742603    26A     -0.730219    27A     -0.692426
      28A     -0.671977    29A     -0.649210    30A     -0.643055
      31A     -0.626820    32A     -0.606576    33A     -0.594786
      34A     -0.578955    35A     -0.561755    36A     -0.539067
      37A     -0.494382    38A     -0.459604    39A     -0.438841
      40A     -0.428897    41A     -0.427834    42A     -0.393480
      43A     -0.299486

  @DF-RHF Final Energy:  -578.62970741152287

   => Energetics <=

    Nuclear Repulsion Energy =            693.5443554105677322
    One-Electron Energy =               -2164.1111258203150101
    Two-Electron Energy =                 891.9370629982244054
    Total Energy =                       -578.6297074115228725
  Basis Set: (AUG-CC-PVTZ AUX)
    Blend: AUG-CC-PVTZ-RI
    Molecular point group: c1

    Geometry (in Angstrom), charge = 0, multiplicity = 1:

       Center              X                  Y                   Z               Mass
    ------------   -----------------  -----------------  -----------------  -----------------
         O           -1.470460125723     2.565016502202     0.080509526091    15.994914619570
         N            1.918472874277    -0.582512497798    -0.055521473909    14.003074004430
         N           -1.910965125723     0.306715502202     0.048616526091    14.003074004430
         N           -0.343403125723    -1.466619497798    -0.038640473909    14.003074004430
         N            1.515957874277     1.641515502202    -0.010449473909    14.003074004430
         N           -2.630115125723    -1.916314497798     0.111188526091    14.003074004430
         C            0.557011874277    -0.436300497798    -0.029420473909    12.000000000000
         C            0.333070874277     0.940288502202    -0.009290473909    12.000000000000
         C           -1.013217125723     1.416583802202     0.033732026091    12.000000000000
         C            2.438375874277     0.690106502202    -0.069811473909    12.000000000000
         C           -1.573744125723    -1.025429497798     0.018913526091    12.000000000000
         C            2.634682874277    -1.844705497798    -0.065410473909    12.000000000000
         H            3.508574874277     0.859696502202    -0.086497473909     1.007825032230
         H            2.372247874277    -2.429810497798     0.817857526091     1.007825032230
         H            2.378785874277    -2.413462497798    -0.960397473909     1.007825032230
         H            3.703452874277    -1.629970497798    -0.059124473909     1.007825032230
         H           -2.890982625723     0.561178602202     0.169057226091     1.007825032230
         H           -2.326490125723    -2.867077497798    -0.064130473909     1.007825032230
         H           -3.460380125723    -1.672022497798    -0.417241473909     1.007825032230

  Basis Set: AUG-CC-PVTZ
    Blend: AUG-CC-PVTZ
  Basis Set: (AUG-CC-PVTZ AUX)
    Blend: AUG-CC-PVTZ-JKFIT
	 Reference Energy          =    -578.6297074115228725 [Eh]
	 Singles Energy            =      -0.0000000000000000 [Eh]
	 Same-Spin Energy          =      -0.6162958766203352 [Eh]
	 Opposite-Spin Energy      =      -1.8202270209286500 [Eh]
	 Correlation Energy        =      -2.4365228975489854 [Eh]
	 Total Energy              =    -581.0662303090718979 [Eh]

	 ================> DF-SCS-MP2 Energies <==================
	-----------------------------------------------------------
	 SCS Same-Spin Scale       =       0.3333333333333333 [-]
	 SCS Opposite-Spin Scale   =       1.2000000000000000 [-]
	 SCS Same-Spin Energy      =      -0.2054319588734451 [Eh]
	 SCS Opposite-Spin Energy  =      -2.1842724251143797 [Eh]
	 SCS Correlation Energy    =      -2.3897043839878247 [Eh]
	 SCS Total Energy          =    -581.0194117955106776 [Eh]
	-----------------------------------------------------------

  Dipole Moment: [D]
     X:     0.0538      Y:    -6.8894      Z:    -0.9425     Total:     6.9538

*** Psi4 exiting successfully. Buy a developer a beer!
