                               Psi4 1.3.2 release

  ==> Input File <==

--------------------------------------------------------------------------
#psi4
#
memory 32 gb

molecule  {
0 1
  O       -1.4697740     2.5644010     0.0803940
  N        1.9191590    -0.5831280    -0.0556370
  N       -1.9102790     0.3061000     0.0485010
  N       -0.3427170    -1.4672350    -0.0387560
  N        1.5166440     1.6409000    -0.0105650
  N       -2.6294290    -1.9169300     0.1110730
  C        0.5576980    -0.4369160    -0.0295360
  C        0.3337570     0.9396730    -0.0094060
  C       -1.0221650     1.4237120     0.0351730
  C        2.4390620     0.6894910    -0.0699270
  C       -1.5846014    -1.0289462     0.0202823
  C        2.6353690    -1.8453210    -0.0655260
  H        3.5092610     0.8590810    -0.0866130
  H        2.3729340    -2.4304260     0.8177420
  H        2.3794720    -2.4140780    -0.9605130
  H        3.7041390    -1.6305860    -0.0592400
  H       -2.8902120     0.5605406     0.1696743
  H       -2.3258040    -2.8676930    -0.0642460
  H       -3.4596940    -1.6726380    -0.4173570
units angstrom
no_reorient  #important for SAPT in psi4, default
symmetry c1  #important for SAPT in psi4, default
}

set PROPERTIES_ORIGIN ["COM"]
properties('MP2/aug-cc-pvtz', properties = ['dipole'])
--------------------------------------------------------------------------

    Molecular point group: c1
  Charge       = 0
  Multiplicity = 1
  Basis Set: AUG-CC-PVTZ
    Blend: AUG-CC-PVTZ
  Basis Set: (AUG-CC-PVTZ AUX)
    Blend: AUG-CC-PVTZ-JKFIT

    Orbital Energies [Eh]
    ---------------------

    Doubly Occupied:

       1A    -20.520556     2A    -15.632074     3A    -15.629588
       4A    -15.612816     5A    -15.569904     6A    -15.558943
       7A    -11.396879     8A    -11.364294     9A    -11.318432
      10A    -11.306649    11A    -11.288801    12A    -11.246027
      13A     -1.390158    14A     -1.359806    15A     -1.334550
      16A     -1.222252    17A     -1.214214    18A     -1.189302
      19A     -1.028527    20A     -0.985914    21A     -0.901389
      22A     -0.882379    23A     -0.807207    24A     -0.766295
      25A     -0.740860    26A     -0.732101    27A     -0.693801
      28A     -0.670444    29A     -0.649614    30A     -0.642033
      31A     -0.626255    32A     -0.609977    33A     -0.593195
      34A     -0.577944    35A     -0.561176    36A     -0.541449
      37A     -0.491995    38A     -0.459677    39A     -0.439496
      40A     -0.428901    41A     -0.428117    42A     -0.392024
      43A     -0.296946

  @DF-RHF Final Energy:  -578.63028236234607

   => Energetics <=

    Nuclear Repulsion Energy =            693.3075040106562028
    One-Electron Energy =               -2163.6696456793229117
    Two-Electron Energy =                 891.7318593063206436
    Total Energy =                       -578.6302823623460654
  Basis Set: (AUG-CC-PVTZ AUX)
    Blend: AUG-CC-PVTZ-RI
    Molecular point group: c1

    Geometry (in Angstrom), charge = 0, multiplicity = 1:

       Center              X                  Y                   Z               Mass
    ------------   -----------------  -----------------  -----------------  -----------------
         O           -1.468921074157     2.564664596572     0.080283991186    15.994914619570
         N            1.920011925843    -0.582864403428    -0.055747008814    14.003074004430
         N           -1.909426074157     0.306363596572     0.048390991186    14.003074004430
         N           -0.341864074157    -1.466971403428    -0.038866008814    14.003074004430
         N            1.517496925843     1.641163596572    -0.010675008814    14.003074004430
         N           -2.628576074157    -1.916666403428     0.110962991186    14.003074004430
         C            0.558550925843    -0.436652403428    -0.029646008814    12.000000000000
         C            0.334609925843     0.939936596572    -0.009516008814    12.000000000000
         C           -1.021312074157     1.423975596572     0.035062991186    12.000000000000
         C            2.439914925843     0.689754596572    -0.070037008814    12.000000000000
         C           -1.583748474157    -1.028682603428     0.020172291186    12.000000000000
         C            2.636221925843    -1.845057403428    -0.065636008814    12.000000000000
         H            3.510113925843     0.859344596572    -0.086723008814     1.007825032230
         H            2.373786925843    -2.430162403428     0.817631991186     1.007825032230
         H            2.380324925843    -2.413814403428    -0.960623008814     1.007825032230
         H            3.704991925843    -1.630322403428    -0.059350008814     1.007825032230
         H           -2.889359074157     0.560804196572     0.169564291186     1.007825032230
         H           -2.324951074157    -2.867429403428    -0.064356008814     1.007825032230
         H           -3.458841074157    -1.672374403428    -0.417467008814     1.007825032230

  Basis Set: AUG-CC-PVTZ
    Blend: AUG-CC-PVTZ
  Basis Set: (AUG-CC-PVTZ AUX)
    Blend: AUG-CC-PVTZ-JKFIT
	 Reference Energy          =    -578.6302823623460654 [Eh]
	 Singles Energy            =      -0.0000000000000000 [Eh]
	 Same-Spin Energy          =      -0.6161895217922910 [Eh]
	 Opposite-Spin Energy      =      -1.8199079230912618 [Eh]
	 Correlation Energy        =      -2.4360974448835528 [Eh]
	 Total Energy              =    -581.0663798072296231 [Eh]

	 ================> DF-SCS-MP2 Energies <==================
	-----------------------------------------------------------
	 SCS Same-Spin Scale       =       0.3333333333333333 [-]
	 SCS Opposite-Spin Scale   =       1.2000000000000000 [-]
	 SCS Same-Spin Energy      =      -0.2053965072640970 [Eh]
	 SCS Opposite-Spin Energy  =      -2.1838895077095142 [Eh]
	 SCS Correlation Energy    =      -2.3892860149736110 [Eh]
	 SCS Total Energy          =    -581.0195683773197288 [Eh]
	-----------------------------------------------------------

  Dipole Moment: [D]
     X:    -0.1154      Y:    -6.8412      Z:    -0.9314     Total:     6.9053

*** Psi4 exiting successfully. Buy a developer a beer!
