                               Psi4 1.3.2 release

  ==> Input File <==

--------------------------------------------------------------------------
#psi4
#
memory 32 gb

molecule  {
0 1
  O       -1.4697740     2.5644010     0.0803940
  N        1.9191590    -0.5831280    -0.0556370
  N       -1.9102790     0.3061000     0.0485010
  N       -0.3427170    -1.4672350    -0.0387560
  N        1.5166440     1.6409000    -0.0105650
  N       -2.6294290    -1.9169300     0.1110730
  C        0.5672100    -0.3658503    -0.0299529
  C        0.3337570     0.9396730    -0.0094060
  C       -1.0221650     1.4237120     0.0351730
  C        2.3717564     0.7149658    -0.0686960
  C       -1.5730580    -1.0260450     0.0187980
  C        2.6353690    -1.8453210    -0.0655260
  H        3.5092610     0.8590810    -0.0866130
  H        2.3729340    -2.4304260     0.8177420
  H        2.3794720    -2.4140780    -0.9605130
  H        3.7041390    -1.6305860    -0.0592400
  H       -2.8879820     0.5691470     0.1693100
  H       -2.3258040    -2.8676930    -0.0642460
  H       -3.4596940    -1.6726380    -0.4173570
units angstrom
no_reorient  #important for SAPT in psi4, default
symmetry c1  #important for SAPT in psi4, default
}

set PROPERTIES_ORIGIN ["COM"]
properties('MP2/aug-cc-pvtz', properties = ['dipole'])
--------------------------------------------------------------------------

    Molecular point group: c1
  Charge       = 0
  Multiplicity = 1
  Basis Set: AUG-CC-PVTZ
    Blend: AUG-CC-PVTZ
  Basis Set: (AUG-CC-PVTZ AUX)
    Blend: AUG-CC-PVTZ-JKFIT

    Orbital Energies [Eh]
    ---------------------

    Doubly Occupied:

       1A    -20.525616     2A    -15.627072     3A    -15.626739
       4A    -15.607878     5A    -15.569419     6A    -15.553610
       7A    -11.391320     8A    -11.367906     9A    -11.313558
      10A    -11.307231    11A    -11.291172    12A    -11.243279
      13A     -1.394388    14A     -1.370255    15A     -1.333121
      16A     -1.221302    17A     -1.216419    18A     -1.188840
      19A     -1.043092    20A     -0.989858    21A     -0.894369
      22A     -0.877384    23A     -0.801970    24A     -0.774812
      25A     -0.741354    26A     -0.722541    27A     -0.689935
      28A     -0.672950    29A     -0.657925    30A     -0.632436
      31A     -0.621462    32A     -0.615603    33A     -0.587077
      34A     -0.573885    35A     -0.567464    36A     -0.540938
      37A     -0.492712    38A     -0.455760    39A     -0.441515
      40A     -0.435751    41A     -0.428334    42A     -0.396020
      43A     -0.315575

  @DF-RHF Final Energy:  -578.62123271793132

   => Energetics <=

    Nuclear Repulsion Energy =            695.4375987718898386
    One-Electron Energy =               -2167.8779663768391401
    Two-Electron Energy =                 893.8191348870178672
    Total Energy =                       -578.6212327179313206
  Basis Set: (AUG-CC-PVTZ AUX)
    Blend: AUG-CC-PVTZ-RI
    Molecular point group: c1

    Geometry (in Angstrom), charge = 0, multiplicity = 1:

       Center              X                  Y                   Z               Mass
    ------------   -----------------  -----------------  -----------------  -----------------
         O           -1.465572364560     2.557382776020     0.080334938071    15.994914619570
         N            1.923360635440    -0.590146223980    -0.055696061929    14.003074004430
         N           -1.906077364560     0.299081776020     0.048441938071    14.003074004430
         N           -0.338515364560    -1.474253223980    -0.038815061929    14.003074004430
         N            1.520845635440     1.633881776020    -0.010624061929    14.003074004430
         N           -2.625227364560    -1.923948223980     0.111013938071    14.003074004430
         C            0.571411635440    -0.372868523980    -0.030011961929    12.000000000000
         C            0.337958635440     0.932654776020    -0.009465061929    12.000000000000
         C           -1.017963364560     1.416693776020     0.035113938071    12.000000000000
         C            2.375958035440     0.707947576020    -0.068755061929    12.000000000000
         C           -1.568856364560    -1.033063223980     0.018738938071    12.000000000000
         C            2.639570635440    -1.852339223980    -0.065585061929    12.000000000000
         H            3.513462635440     0.852062776020    -0.086672061929     1.007825032230
         H            2.377135635440    -2.437444223980     0.817682938071     1.007825032230
         H            2.383673635440    -2.421096223980    -0.960572061929     1.007825032230
         H            3.708340635440    -1.637604223980    -0.059299061929     1.007825032230
         H           -2.883780364560     0.562128776020     0.169250938071     1.007825032230
         H           -2.321602364560    -2.874711223980    -0.064305061929     1.007825032230
         H           -3.455492364560    -1.679656223980    -0.417416061929     1.007825032230

  Basis Set: AUG-CC-PVTZ
    Blend: AUG-CC-PVTZ
  Basis Set: (AUG-CC-PVTZ AUX)
    Blend: AUG-CC-PVTZ-JKFIT
	 Reference Energy          =    -578.6212327179313206 [Eh]
	 Singles Energy            =      -0.0000000000000000 [Eh]
	 Same-Spin Energy          =      -0.6133844193635343 [Eh]
	 Opposite-Spin Energy      =      -1.8167873593735755 [Eh]
	 Correlation Energy        =      -2.4301717787371100 [Eh]
	 Total Energy              =    -581.0514044966683969 [Eh]

	 ================> DF-SCS-MP2 Energies <==================
	-----------------------------------------------------------
	 SCS Same-Spin Scale       =       0.3333333333333333 [-]
	 SCS Opposite-Spin Scale   =       1.2000000000000000 [-]
	 SCS Same-Spin Energy      =      -0.2044614731211781 [Eh]
	 SCS Opposite-Spin Energy  =      -2.1801448312482905 [Eh]
	 SCS Correlation Energy    =      -2.3846063043694685 [Eh]
	 SCS Total Energy          =    -581.0058390223007336 [Eh]
	-----------------------------------------------------------

  Dipole Moment: [D]
     X:    -0.0308      Y:    -6.5549      Z:    -0.9333     Total:     6.6211

*** Psi4 exiting successfully. Buy a developer a beer!
