                               Psi4 1.3.2 release

  ==> Input File <==

--------------------------------------------------------------------------
#psi4
#
memory 32 gb

molecule  {
0 1
  O       -1.4697740     2.5644010     0.0803940
  N        1.9191590    -0.5831280    -0.0556370
  N       -1.9102790     0.3061000     0.0485010
  N       -0.3427170    -1.4672350    -0.0387560
  N        1.5166440     1.6409000    -0.0105650
  N       -2.6294290    -1.9169300     0.1110730
  C        0.5576980    -0.4369160    -0.0295360
  C        0.3337570     0.9396730    -0.0094060
  C       -1.0221650     1.4237120     0.0351730
  C        2.4390620     0.6894910    -0.0699270
  C       -1.5730580    -1.0260450     0.0187980
  C        2.6353690    -1.8453210    -0.0655260
  H        3.5092610     0.8590810    -0.0866130
  H        2.3187277    -2.4306263     0.7996551
  H        2.3794720    -2.4140780    -0.9605130
  H        3.6972449    -1.6024184    -0.1083972
  H       -2.8879820     0.5691470     0.1693100
  H       -2.3258040    -2.8676930    -0.0642460
  H       -3.4596940    -1.6726380    -0.4173570
units angstrom
no_reorient  #important for SAPT in psi4, default
symmetry c1  #important for SAPT in psi4, default
}

set PROPERTIES_ORIGIN ["COM"]
properties('MP2/aug-cc-pvtz', properties = ['dipole'])
--------------------------------------------------------------------------

    Molecular point group: c1
  Charge       = 0
  Multiplicity = 1
  Basis Set: AUG-CC-PVTZ
    Blend: AUG-CC-PVTZ
  Basis Set: (AUG-CC-PVTZ AUX)
    Blend: AUG-CC-PVTZ-JKFIT

    Orbital Energies [Eh]
    ---------------------

    Doubly Occupied:

       1A    -20.520859     2A    -15.632180     3A    -15.629349
       4A    -15.610786     5A    -15.571001     6A    -15.559419
       7A    -11.396156     8A    -11.364227     9A    -11.318788
      10A    -11.307129    11A    -11.289603    12A    -11.246853
      13A     -1.390665    14A     -1.360513    15A     -1.334039
      16A     -1.219151    17A     -1.216251    18A     -1.190821
      19A     -1.029396    20A     -0.986569    21A     -0.901771
      22A     -0.882239    23A     -0.807720    24A     -0.765531
      25A     -0.741587    26A     -0.729471    27A     -0.692177
      28A     -0.670411    29A     -0.648848    30A     -0.644351
      31A     -0.624835    32A     -0.611122    33A     -0.593728
      34A     -0.583176    35A     -0.558550    36A     -0.541172
      37A     -0.493764    38A     -0.459335    39A     -0.439904
      40A     -0.429327    41A     -0.428810    42A     -0.391929
      43A     -0.298350

  @DF-RHF Final Energy:  -578.62958645852700

   => Energetics <=

    Nuclear Repulsion Energy =            693.6015420123482045
    One-Electron Energy =               -2164.2385318016949896
    Two-Electron Energy =                 892.0074033308198977
    Total Energy =                       -578.6295864585270010
  Basis Set: (AUG-CC-PVTZ AUX)
    Blend: AUG-CC-PVTZ-RI
    Molecular point group: c1

    Geometry (in Angstrom), charge = 0, multiplicity = 1:

       Center              X                  Y                   Z               Mass
    ------------   -----------------  -----------------  -----------------  -----------------
         O           -1.469400822793     2.564230378146     0.080804689133    15.994914619570
         N            1.919532177207    -0.583298621854    -0.055226310867    14.003074004430
         N           -1.909905822793     0.305929378146     0.048911689133    14.003074004430
         N           -0.342343822793    -1.467405621854    -0.038345310867    14.003074004430
         N            1.517017177207     1.640729378146    -0.010154310867    14.003074004430
         N           -2.629055822793    -1.917100621854     0.111483689133    14.003074004430
         C            0.558071177207    -0.437086621854    -0.029125310867    12.000000000000
         C            0.334130177207     0.939502378146    -0.008995310867    12.000000000000
         C           -1.021791822793     1.423541378146     0.035583689133    12.000000000000
         C            2.439435177207     0.689320378146    -0.069516310867    12.000000000000
         C           -1.572684822793    -1.026215621854     0.019208689133    12.000000000000
         C            2.635742177207    -1.845491621854    -0.065115310867    12.000000000000
         H            3.509634177207     0.858910378146    -0.086202310867     1.007825032230
         H            2.319100877207    -2.430796921854     0.800065789133     1.007825032230
         H            2.379845177207    -2.414248621854    -0.960102310867     1.007825032230
         H            3.697618077207    -1.602589021854    -0.107986510867     1.007825032230
         H           -2.887608822793     0.568976378146     0.169720689133     1.007825032230
         H           -2.325430822793    -2.867863621854    -0.063835310867     1.007825032230
         H           -3.459320822793    -1.672808621854    -0.416946310867     1.007825032230

  Basis Set: AUG-CC-PVTZ
    Blend: AUG-CC-PVTZ
  Basis Set: (AUG-CC-PVTZ AUX)
    Blend: AUG-CC-PVTZ-JKFIT
	 Reference Energy          =    -578.6295864585270010 [Eh]
	 Singles Energy            =      -0.0000000000000000 [Eh]
	 Same-Spin Energy          =      -0.6161873839574087 [Eh]
	 Opposite-Spin Energy      =      -1.8199855498788478 [Eh]
	 Correlation Energy        =      -2.4361729338362563 [Eh]
	 Total Energy              =    -581.0657593923632476 [Eh]

	 ================> DF-SCS-MP2 Energies <==================
	-----------------------------------------------------------
	 SCS Same-Spin Scale       =       0.3333333333333333 [-]
	 SCS Opposite-Spin Scale   =       1.2000000000000000 [-]
	 SCS Same-Spin Energy      =      -0.2053957946524695 [Eh]
	 SCS Opposite-Spin Energy  =      -2.1839826598546170 [Eh]
	 SCS Correlation Energy    =      -2.3893784545070864 [Eh]
	 SCS Total Energy          =    -581.0189649130340968 [Eh]
	-----------------------------------------------------------

  Dipole Moment: [D]
     X:    -0.0363      Y:    -6.7916      Z:    -0.9718     Total:     6.8608

*** Psi4 exiting successfully. Buy a developer a beer!
