                               Psi4 1.3.2 release

  ==> Input File <==

--------------------------------------------------------------------------
#psi4
#
memory 32 gb

molecule  {
0 1
  O       -1.4697740     2.5644010     0.0803940
  N        1.9191590    -0.5831280    -0.0556370
  N       -1.9102790     0.3061000     0.0485010
  N       -0.3427170    -1.4672350    -0.0387560
  N        1.5166440     1.6409000    -0.0105650
  N       -2.6294290    -1.9169300     0.1110730
  C        0.7565184    -0.4582680    -0.0333476
  C        0.3337570     0.9396730    -0.0094060
  C       -1.0221650     1.4237120     0.0351730
  C        2.4390620     0.6894910    -0.0699270
  C       -1.5730580    -1.0260450     0.0187980
  C        2.6353690    -1.8453210    -0.0655260
  H        3.5092610     0.8590810    -0.0866130
  H        2.3729340    -2.4304260     0.8177420
  H        2.3794720    -2.4140780    -0.9605130
  H        3.7041390    -1.6305860    -0.0592400
  H       -2.8879820     0.5691470     0.1693100
  H       -2.3258040    -2.8676930    -0.0642460
  H       -3.4596940    -1.6726380    -0.4173570
units angstrom
no_reorient  #important for SAPT in psi4, default
symmetry c1  #important for SAPT in psi4, default
}

set PROPERTIES_ORIGIN ["COM"]
properties('MP2/aug-cc-pvtz', properties = ['dipole'])
--------------------------------------------------------------------------

    Molecular point group: c1
  Charge       = 0
  Multiplicity = 1
  Basis Set: AUG-CC-PVTZ
    Blend: AUG-CC-PVTZ
  Basis Set: (AUG-CC-PVTZ AUX)
    Blend: AUG-CC-PVTZ-JKFIT

    Orbital Energies [Eh]
    ---------------------

    Doubly Occupied:

       1A    -20.517633     2A    -15.651026     3A    -15.618516
       4A    -15.604182     5A    -15.573866     6A    -15.563181
       7A    -11.387995     8A    -11.363039     9A    -11.320127
      10A    -11.305472    11A    -11.299713    12A    -11.243999
      13A     -1.432199    14A     -1.377691    15A     -1.323455
      16A     -1.225351    17A     -1.208940    18A     -1.171706
      19A     -1.041710    20A     -1.001595    21A     -0.915371
      22A     -0.866359    23A     -0.805059    24A     -0.775380
      25A     -0.755046    26A     -0.722868    27A     -0.703836
      28A     -0.688540    29A     -0.659501    30A     -0.627888
      31A     -0.619670    32A     -0.605831    33A     -0.599293
      34A     -0.592760    35A     -0.577411    36A     -0.539496
      37A     -0.480892    38A     -0.449134    39A     -0.432961
      40A     -0.427581    41A     -0.416255    42A     -0.396773
      43A     -0.294262

  @DF-RHF Final Energy:  -578.56565888900377

   => Energetics <=

    Nuclear Repulsion Energy =            693.5869993311108601
    One-Electron Energy =               -2163.9381971748462092
    Two-Electron Energy =                 891.7855389547316918
    Total Energy =                       -578.5656588890037710
  Basis Set: (AUG-CC-PVTZ AUX)
    Blend: AUG-CC-PVTZ-RI
    Molecular point group: c1

    Geometry (in Angstrom), charge = 0, multiplicity = 1:

       Center              X                  Y                   Z               Mass
    ------------   -----------------  -----------------  -----------------  -----------------
         O           -1.484227845026     2.565953396605     0.080671220020    15.994914619570
         N            1.904705154974    -0.581575603395    -0.055359779980    14.003074004430
         N           -1.924732845026     0.307652396605     0.048778220020    14.003074004430
         N           -0.357170845026    -1.465682603395    -0.038478779980    14.003074004430
         N            1.502190154974     1.642452396605    -0.010287779980    14.003074004430
         N           -2.643882845026    -1.915377603395     0.111350220020    14.003074004430
         C            0.742064554974    -0.456715603395    -0.033070379980    12.000000000000
         C            0.319303154974     0.941225396605    -0.009128779980    12.000000000000
         C           -1.036618845026     1.425264396605     0.035450220020    12.000000000000
         C            2.424608154974     0.691043396605    -0.069649779980    12.000000000000
         C           -1.587511845026    -1.024492603395     0.019075220020    12.000000000000
         C            2.620915154974    -1.843768603395    -0.065248779980    12.000000000000
         H            3.494807154974     0.860633396605    -0.086335779980     1.007825032230
         H            2.358480154974    -2.428873603395     0.818019220020     1.007825032230
         H            2.365018154974    -2.412525603395    -0.960235779980     1.007825032230
         H            3.689685154974    -1.629033603395    -0.058962779980     1.007825032230
         H           -2.902435845026     0.570699396605     0.169587220020     1.007825032230
         H           -2.340257845026    -2.866140603395    -0.063968779980     1.007825032230
         H           -3.474147845026    -1.671085603395    -0.417079779980     1.007825032230

  Basis Set: AUG-CC-PVTZ
    Blend: AUG-CC-PVTZ
  Basis Set: (AUG-CC-PVTZ AUX)
    Blend: AUG-CC-PVTZ-JKFIT
	 Reference Energy          =    -578.5656588890037710 [Eh]
	 Singles Energy            =      -0.0000000000000000 [Eh]
	 Same-Spin Energy          =      -0.6160228659763123 [Eh]
	 Opposite-Spin Energy      =      -1.8201195155209087 [Eh]
	 Correlation Energy        =      -2.4361423814972207 [Eh]
	 Total Energy              =    -581.0018012705010051 [Eh]

	 ================> DF-SCS-MP2 Energies <==================
	-----------------------------------------------------------
	 SCS Same-Spin Scale       =       0.3333333333333333 [-]
	 SCS Opposite-Spin Scale   =       1.2000000000000000 [-]
	 SCS Same-Spin Energy      =      -0.2053409553254374 [Eh]
	 SCS Opposite-Spin Energy  =      -2.1841434186250903 [Eh]
	 SCS Correlation Energy    =      -2.3894843739505278 [Eh]
	 SCS Total Energy          =    -580.9551432629542660 [Eh]
	-----------------------------------------------------------

  Dipole Moment: [D]
     X:     0.8991      Y:    -6.9063      Z:    -0.9499     Total:     7.0290

*** Psi4 exiting successfully. Buy a developer a beer!
