                               Psi4 1.3.2 release

  ==> Input File <==

--------------------------------------------------------------------------
#psi4
#
memory 32 gb

molecule  {
0 1
  O       -1.4697740     2.5644010     0.0803940
  N        1.9191590    -0.5831280    -0.0556370
  N       -1.9102790     0.3061000     0.0485010
  N       -0.3427170    -1.4672350    -0.0387560
  N        1.5166440     1.6409000    -0.0105650
  N       -2.6294290    -1.9169300     0.1110730
  C        0.5576980    -0.4369160    -0.0295360
  C        0.3337570     0.9396730    -0.0094060
  C       -1.0221650     1.4237120     0.0351730
  C        2.4390620     0.6894910    -0.0699270
  C       -1.4967834    -0.9617193     0.0121353
  C        2.6353690    -1.8453210    -0.0655260
  H        3.5092610     0.8590810    -0.0866130
  H        2.3729340    -2.4304260     0.8177420
  H        2.3794720    -2.4140780    -0.9605130
  H        3.7041390    -1.6305860    -0.0592400
  H       -2.8879820     0.5691470     0.1693100
  H       -2.3258040    -2.8676930    -0.0642460
  H       -3.4596940    -1.6726380    -0.4173570
units angstrom
no_reorient  #important for SAPT in psi4, default
symmetry c1  #important for SAPT in psi4, default
}

set PROPERTIES_ORIGIN ["COM"]
properties('MP2/aug-cc-pvtz', properties = ['dipole'])
--------------------------------------------------------------------------

    Molecular point group: c1
  Charge       = 0
  Multiplicity = 1
  Basis Set: AUG-CC-PVTZ
    Blend: AUG-CC-PVTZ
  Basis Set: (AUG-CC-PVTZ AUX)
    Blend: AUG-CC-PVTZ-JKFIT

    Orbital Energies [Eh]
    ---------------------

    Doubly Occupied:

       1A    -20.525111     2A    -15.637246     3A    -15.634588
       4A    -15.593794     5A    -15.576423     6A    -15.563952
       7A    -11.390908     8A    -11.367290     9A    -11.324060
      10A    -11.311514    11A    -11.292858    12A    -11.252921
      13A     -1.399904    14A     -1.366278    15A     -1.338291
      16A     -1.236479    17A     -1.198594    18A     -1.187906
      19A     -1.034548    20A     -0.990582    21A     -0.907357
      22A     -0.884806    23A     -0.813657    24A     -0.773197
      25A     -0.748532    26A     -0.710861    27A     -0.682465
      28A     -0.674647    29A     -0.655261    30A     -0.637502
      31A     -0.623174    32A     -0.613615    33A     -0.598584
      34A     -0.581019    35A     -0.561905    36A     -0.542379
      37A     -0.505610    38A     -0.452123    39A     -0.444331
      40A     -0.434331    41A     -0.434076    42A     -0.397532
      43A     -0.306481

  @DF-RHF Final Energy:  -578.61891590689902

   => Energetics <=

    Nuclear Repulsion Energy =            694.8575054008508687
    One-Electron Energy =               -2166.5394533238559234
    Two-Electron Energy =                 893.0630320161060354
    Total Energy =                       -578.6189159068990193
  Basis Set: (AUG-CC-PVTZ AUX)
    Blend: AUG-CC-PVTZ-RI
    Molecular point group: c1

    Geometry (in Angstrom), charge = 0, multiplicity = 1:

       Center              X                  Y                   Z               Mass
    ------------   -----------------  -----------------  -----------------  -----------------
         O           -1.475318936011     2.559724747121     0.080878491020    15.994914619570
         N            1.913614063989    -0.587804252879    -0.055152508980    14.003074004430
         N           -1.915823936011     0.301423747121     0.048985491020    14.003074004430
         N           -0.348261936011    -1.471911252879    -0.038271508980    14.003074004430
         N            1.511099063989     1.636223747121    -0.010080508980    14.003074004430
         N           -2.634973936011    -1.921606252879     0.111557491020    14.003074004430
         C            0.552153063989    -0.441592252879    -0.029051508980    12.000000000000
         C            0.328212063989     0.934996747121    -0.008921508980    12.000000000000
         C           -1.027709936011     1.419035747121     0.035657491020    12.000000000000
         C            2.433517063989     0.684814747121    -0.069442508980    12.000000000000
         C           -1.502328336011    -0.966395552879     0.012619791020    12.000000000000
         C            2.629824063989    -1.849997252879    -0.065041508980    12.000000000000
         H            3.503716063989     0.854404747121    -0.086128508980     1.007825032230
         H            2.367389063989    -2.435102252879     0.818226491020     1.007825032230
         H            2.373927063989    -2.418754252879    -0.960028508980     1.007825032230
         H            3.698594063989    -1.635262252879    -0.058755508980     1.007825032230
         H           -2.893526936011     0.564470747121     0.169794491020     1.007825032230
         H           -2.331348936011    -2.872369252879    -0.063761508980     1.007825032230
         H           -3.465238936011    -1.677314252879    -0.416872508980     1.007825032230

  Basis Set: AUG-CC-PVTZ
    Blend: AUG-CC-PVTZ
  Basis Set: (AUG-CC-PVTZ AUX)
    Blend: AUG-CC-PVTZ-JKFIT
	 Reference Energy          =    -578.6189159068990193 [Eh]
	 Singles Energy            =      -0.0000000000000000 [Eh]
	 Same-Spin Energy          =      -0.6157030824593990 [Eh]
	 Opposite-Spin Energy      =      -1.8200211888444198 [Eh]
	 Correlation Energy        =      -2.4357242713038190 [Eh]
	 Total Energy              =    -581.0546401782028170 [Eh]

	 ================> DF-SCS-MP2 Energies <==================
	-----------------------------------------------------------
	 SCS Same-Spin Scale       =       0.3333333333333333 [-]
	 SCS Opposite-Spin Scale   =       1.2000000000000000 [-]
	 SCS Same-Spin Energy      =      -0.2052343608197996 [Eh]
	 SCS Opposite-Spin Energy  =      -2.1840254266133035 [Eh]
	 SCS Correlation Energy    =      -2.3892597874331032 [Eh]
	 SCS Total Energy          =    -581.0081756943320670 [Eh]
	-----------------------------------------------------------

  Dipole Moment: [D]
     X:     0.6683      Y:    -6.2560      Z:    -0.9691     Total:     6.3658

*** Psi4 exiting successfully. Buy a developer a beer!
