                               Psi4 1.4a3.dev225

  ==> Input File <==

--------------------------------------------------------------------------
#psi4
#
memory 32 gb

molecule  {
0 1
  O        1.6617960     2.5152110     0.0229320
  N       -1.9329240    -0.4005880    -0.0147920
  N        1.9545050     0.2323110     0.0113410
  N        0.2669280    -1.4301930    -0.0208730
  N       -1.3834780     1.7915450    -0.0193170
  N        2.5221760    -2.0364130     0.0734370
  C       -0.5634760    -0.3442740    -0.0026930
  C       -0.2488450     1.0144850    -0.0147620
  C        1.1166596     1.3624482     0.0023438
  C       -2.3683130     0.9036150    -0.0164120
  C        1.5275980    -1.0721200    -0.0057920
  C       -2.7322540    -1.6127190     0.0339130
  H       -3.4247340     1.1445090    -0.0228960
  H       -2.2735910    -2.3629350    -0.6109560
  H       -2.7853950    -1.9995380     1.0543320
  H       -3.7366260    -1.3828770    -0.3245450
  H        2.9468270     0.4301980     0.1174830
  H        2.1372730    -2.9631930    -0.0801050
  H        3.3349710    -1.8642740    -0.5097710
units angstrom
no_reorient  #important for SAPT in psi4, default
symmetry c1  #important for SAPT in psi4, default
}

set PROPERTIES_ORIGIN ["COM"]
properties('MP2/aug-cc-pvtz', properties = ['dipole'])
--------------------------------------------------------------------------

    Molecular point group: c1
  Charge       = 0
  Multiplicity = 1
  Basis Set: AUG-CC-PVTZ
    Blend: AUG-CC-PVTZ
  Basis Set: (AUG-CC-PVTZ AUX)
    Blend: AUG-CC-PVTZ-JKFIT

    Orbital Energies [Eh]
    ---------------------

    Doubly Occupied:

       1A    -20.508251     2A    -15.635863     3A    -15.635321
       4A    -15.613652     5A    -15.576018     6A    -15.562927
       7A    -11.399440     8A    -11.361922     9A    -11.324399
      10A    -11.311169    11A    -11.291517    12A    -11.248380
      13A     -1.386637    14A     -1.353088    15A     -1.320842
      16A     -1.221283    17A     -1.218556    18A     -1.194360
      19A     -1.036608    20A     -0.989893    21A     -0.908527
      22A     -0.886556    23A     -0.810908    24A     -0.769296
      25A     -0.748955    26A     -0.732369    27A     -0.693374
      28A     -0.674098    29A     -0.648241    30A     -0.646470
      31A     -0.628498    32A     -0.600133    33A     -0.591563
      34A     -0.577713    35A     -0.563791    36A     -0.532922
      37A     -0.496545    38A     -0.462156    39A     -0.437643
      40A     -0.424176    41A     -0.423159    42A     -0.395077
      43A     -0.302060

  @DF-RHF Final Energy:  -578.62339292155798

   => Energetics <=

    Nuclear Repulsion Energy =            693.6187078780820912
    One-Electron Energy =               -2164.1954891662408045
    Two-Electron Energy =                 891.9533883666006204
    Total Energy =                       -578.6233929215579792
  Basis Set: (AUG-CC-PVTZ AUX)
    Blend: AUG-CC-PVTZ-RI
    Molecular point group: c1

    Geometry (in Angstrom), charge = 0, multiplicity = 1:

       Center              X                  Y                   Z               Mass
    ------------   -----------------  -----------------  -----------------  -----------------
         O            1.640525687075     2.464522570408     0.020728015829    15.994914619570
         N           -1.954194312925    -0.451276429592    -0.016995984171    14.003074004430
         N            1.933234687075     0.181622570408     0.009137015829    14.003074004430
         N            0.245657687075    -1.480881429592    -0.023076984171    14.003074004430
         N           -1.404748312925     1.740856570408    -0.021520984171    14.003074004430
         N            2.500905687075    -2.087101429592     0.071233015829    14.003074004430
         C           -0.584746312925    -0.394962429592    -0.004896984171    12.000000000000
         C           -0.270115312925     0.963796570408    -0.016965984171    12.000000000000
         C            1.095389287075     1.311759770408     0.000139815829    12.000000000000
         C           -2.389583312925     0.852926570408    -0.018615984171    12.000000000000
         C            1.506327687075    -1.122808429592    -0.007995984171    12.000000000000
         C           -2.753524312925    -1.663407429592     0.031709015829    12.000000000000
         H           -3.446004312925     1.093820570408    -0.025099984171     1.007825032230
         H           -2.294861312925    -2.413623429592    -0.613159984171     1.007825032230
         H           -2.806665312925    -2.050226429592     1.052128015829     1.007825032230
         H           -3.757896312925    -1.433565429592    -0.326748984171     1.007825032230
         H            2.925556687075     0.379509570408     0.115279015829     1.007825032230
         H            2.116002687075    -3.013881429592    -0.082308984171     1.007825032230
         H            3.313700687075    -1.914962429592    -0.511974984171     1.007825032230

  Basis Set: AUG-CC-PVTZ
    Blend: AUG-CC-PVTZ
  Basis Set: (AUG-CC-PVTZ AUX)
    Blend: AUG-CC-PVTZ-JKFIT
	 Reference Energy          =    -578.6233929215579792 [Eh]
	 Singles Energy            =      -0.0000000000000000 [Eh]
	 Same-Spin Energy          =      -0.6170862862144878 [Eh]
	 Opposite-Spin Energy      =      -1.8216268098930017 [Eh]
	 Correlation Energy        =      -2.4387130961074894 [Eh]
	 Total Energy              =    -581.0621060176654282 [Eh]

	 ================> DF-SCS-MP2 Energies <==================
	-----------------------------------------------------------
	 SCS Same-Spin Scale       =       0.3333333333333333 [-]
	 SCS Opposite-Spin Scale   =       1.2000000000000000 [-]
	 SCS Same-Spin Energy      =      -0.2056954287381626 [Eh]
	 SCS Opposite-Spin Energy  =      -2.1859521718716022 [Eh]
	 SCS Correlation Energy    =      -2.3916476006097649 [Eh]
	 SCS Total Energy          =    -581.0150405221677374 [Eh]
	-----------------------------------------------------------

  Dipole Moment: [D]
     X:    -0.7473      Y:    -7.2136      Z:    -0.8557     Total:     7.3025

*** Psi4 exiting successfully. Buy a developer a beer!
