                               Psi4 1.3.2 release

  ==> Input File <==

--------------------------------------------------------------------------
#psi4
#
memory 32 gb

molecule  {
0 1
  O       -1.4697740     2.5644010     0.0803940
  N        1.9191590    -0.5831280    -0.0556370
  N       -1.9102790     0.3061000     0.0485010
  N       -0.3427170    -1.4672350    -0.0387560
  N        1.4914546     1.6817502    -0.0098045
  N       -2.6294290    -1.9169300     0.1110730
  C        0.5095161    -0.4438980    -0.0292041
  C        0.3337570     0.9396730    -0.0094060
  C       -1.0221650     1.4237120     0.0351730
  C        2.4390620     0.6894910    -0.0699270
  C       -1.5730580    -1.0260450     0.0187980
  C        2.6353690    -1.8453210    -0.0655260
  H        3.5092610     0.8590810    -0.0866130
  H        2.3729340    -2.4304260     0.8177420
  H        2.3794720    -2.4140780    -0.9605130
  H        3.7041390    -1.6305860    -0.0592400
  H       -2.8879820     0.5691470     0.1693100
  H       -2.3258040    -2.8676930    -0.0642460
  H       -3.4596940    -1.6726380    -0.4173570
units angstrom
no_reorient  #important for SAPT in psi4, default
symmetry c1  #important for SAPT in psi4, default
}

set PROPERTIES_ORIGIN ["COM"]
properties('MP2/aug-cc-pvtz', properties = ['dipole'])
--------------------------------------------------------------------------

    Molecular point group: c1
  Charge       = 0
  Multiplicity = 1
  Basis Set: AUG-CC-PVTZ
    Blend: AUG-CC-PVTZ
  Basis Set: (AUG-CC-PVTZ AUX)
    Blend: AUG-CC-PVTZ-JKFIT

    Orbital Energies [Eh]
    ---------------------

    Doubly Occupied:

       1A    -20.520178     2A    -15.633274     3A    -15.631470
       4A    -15.612296     5A    -15.573323     6A    -15.563446
       7A    -11.398349     8A    -11.362269     9A    -11.319884
      10A    -11.315001    11A    -11.288078    12A    -11.248997
      13A     -1.391410    14A     -1.353894    15A     -1.330381
      16A     -1.224299    17A     -1.220214    18A     -1.184128
      19A     -1.024912    20A     -0.983329    21A     -0.900711
      22A     -0.885107    23A     -0.809760    24A     -0.767272
      25A     -0.736102    26A     -0.728301    27A     -0.692773
      28A     -0.668016    29A     -0.651079    30A     -0.641592
      31A     -0.628073    32A     -0.610467    33A     -0.583821
      34A     -0.572658    35A     -0.556317    36A     -0.541464
      37A     -0.499354    38A     -0.462787    39A     -0.443655
      40A     -0.430965    41A     -0.429580    42A     -0.390536
      43A     -0.291930

  @DF-RHF Final Energy:  -578.61881036136378

   => Energetics <=

    Nuclear Repulsion Energy =            692.5951214357636445
    One-Electron Energy =               -2162.2249611419006214
    Two-Electron Energy =                 891.0110293447730783
    Total Energy =                       -578.6188103613637850
  Basis Set: (AUG-CC-PVTZ AUX)
    Blend: AUG-CC-PVTZ-RI
    Molecular point group: c1

    Geometry (in Angstrom), charge = 0, multiplicity = 1:

       Center              X                  Y                   Z               Mass
    ------------   -----------------  -----------------  -----------------  -----------------
         O           -1.464134212643     2.561443245430     0.080305477337    15.994914619570
         N            1.924798787357    -0.586085754570    -0.055725522663    14.003074004430
         N           -1.904639212643     0.303142245430     0.048412477337    14.003074004430
         N           -0.337077212643    -1.470192754570    -0.038844522663    14.003074004430
         N            1.497094387357     1.678792445430    -0.009893022663    14.003074004430
         N           -2.623789212643    -1.919887754570     0.110984477337    14.003074004430
         C            0.515155887357    -0.446855754570    -0.029292622663    12.000000000000
         C            0.339396787357     0.936715245430    -0.009494522663    12.000000000000
         C           -1.016525212643     1.420754245430     0.035084477337    12.000000000000
         C            2.444701787357     0.686533245430    -0.070015522663    12.000000000000
         C           -1.567418212643    -1.029002754570     0.018709477337    12.000000000000
         C            2.641008787357    -1.848278754570    -0.065614522663    12.000000000000
         H            3.514900787357     0.856123245430    -0.086701522663     1.007825032230
         H            2.378573787357    -2.433383754570     0.817653477337     1.007825032230
         H            2.385111787357    -2.417035754570    -0.960601522663     1.007825032230
         H            3.709778787357    -1.633543754570    -0.059328522663     1.007825032230
         H           -2.882342212643     0.566189245430     0.169221477337     1.007825032230
         H           -2.320164212643    -2.870650754570    -0.064334522663     1.007825032230
         H           -3.454054212643    -1.675595754570    -0.417445522663     1.007825032230

  Basis Set: AUG-CC-PVTZ
    Blend: AUG-CC-PVTZ
  Basis Set: (AUG-CC-PVTZ AUX)
    Blend: AUG-CC-PVTZ-JKFIT
	 Reference Energy          =    -578.6188103613637850 [Eh]
	 Singles Energy            =      -0.0000000000000000 [Eh]
	 Same-Spin Energy          =      -0.6180542074082167 [Eh]
	 Opposite-Spin Energy      =      -1.8235168644918136 [Eh]
	 Correlation Energy        =      -2.4415710719000305 [Eh]
	 Total Energy              =    -581.0603814332638422 [Eh]

	 ================> DF-SCS-MP2 Energies <==================
	-----------------------------------------------------------
	 SCS Same-Spin Scale       =       0.3333333333333333 [-]
	 SCS Opposite-Spin Scale   =       1.2000000000000000 [-]
	 SCS Same-Spin Energy      =      -0.2060180691360722 [Eh]
	 SCS Opposite-Spin Energy  =      -2.1882202373901762 [Eh]
	 SCS Correlation Energy    =      -2.3942383065262485 [Eh]
	 SCS Total Energy          =    -581.0130486678900752 [Eh]
	-----------------------------------------------------------

  Dipole Moment: [D]
     X:    -0.1882      Y:    -6.9320      Z:    -0.9358     Total:     6.9974

*** Psi4 exiting successfully. Buy a developer a beer!
