                               Psi4 1.3.2 release

  ==> Input File <==

--------------------------------------------------------------------------
#psi4
#
memory 32 gb

molecule  {
0 1
  O       -1.4697740     2.5644010     0.0803940
  N        1.9191590    -0.5831280    -0.0556370
  N       -1.9102790     0.3061000     0.0485010
  N       -0.3427170    -1.4672350    -0.0387560
  N        1.5166440     1.6409000    -0.0105650
  N       -2.6294290    -1.9169300     0.1110730
  C        0.5576980    -0.4369160    -0.0295360
  C        0.3337570     0.9396730    -0.0094060
  C       -1.0318666     1.4313705     0.0367306
  C        2.4390620     0.6894910    -0.0699270
  C       -1.5730580    -1.0260450     0.0187980
  C        2.6353690    -1.8453210    -0.0655260
  H        3.5092610     0.8590810    -0.0866130
  H        2.3729340    -2.4304260     0.8177420
  H        2.3794720    -2.4140780    -0.9605130
  H        3.7041390    -1.6305860    -0.0592400
  H       -2.8855930     0.5777109     0.1696691
  H       -2.3258040    -2.8676930    -0.0642460
  H       -3.4596940    -1.6726380    -0.4173570
units angstrom
no_reorient  #important for SAPT in psi4, default
symmetry c1  #important for SAPT in psi4, default
}

set PROPERTIES_ORIGIN ["COM"]
properties('MP2/aug-cc-pvtz', properties = ['dipole'])
--------------------------------------------------------------------------

    Molecular point group: c1
  Charge       = 0
  Multiplicity = 1
  Basis Set: AUG-CC-PVTZ
    Blend: AUG-CC-PVTZ
  Basis Set: (AUG-CC-PVTZ AUX)
    Blend: AUG-CC-PVTZ-JKFIT

    Orbital Energies [Eh]
    ---------------------

    Doubly Occupied:

       1A    -20.523655     2A    -15.631939     3A    -15.628661
       4A    -15.610217     5A    -15.570099     6A    -15.558745
       7A    -11.395740     8A    -11.364661     9A    -11.317481
      10A    -11.306147    11A    -11.288713    12A    -11.246762
      13A     -1.394560    14A     -1.362453    15A     -1.334754
      16A     -1.219267    17A     -1.215588    18A     -1.189751
      19A     -1.027259    20A     -0.985103    21A     -0.899704
      22A     -0.882350    23A     -0.807606    24A     -0.765971
      25A     -0.739782    26A     -0.728473    27A     -0.691938
      28A     -0.670323    29A     -0.650351    30A     -0.641263
      31A     -0.626399    32A     -0.614091    33A     -0.592683
      34A     -0.578043    35A     -0.560367    36A     -0.544218
      37A     -0.493063    38A     -0.458962    39A     -0.441131
      40A     -0.430288    41A     -0.428728    42A     -0.391922
      43A     -0.297299

  @DF-RHF Final Energy:  -578.63122258628152

   => Energetics <=

    Nuclear Repulsion Energy =            693.3630835359446110
    One-Electron Energy =               -2163.7755988158955915
    Two-Electron Energy =                 891.7812926936695703
    Total Energy =                       -578.6312225862815239
  Basis Set: (AUG-CC-PVTZ AUX)
    Blend: AUG-CC-PVTZ-RI
    Molecular point group: c1

    Geometry (in Angstrom), charge = 0, multiplicity = 1:

       Center              X                  Y                   Z               Mass
    ------------   -----------------  -----------------  -----------------  -----------------
         O           -1.469083172326     2.563792085707     0.080278694127    15.994914619570
         N            1.919849827674    -0.583736914293    -0.055752305873    14.003074004430
         N           -1.909588172326     0.305491085707     0.048385694127    14.003074004430
         N           -0.342026172326    -1.467843914293    -0.038871305873    14.003074004430
         N            1.517334827674     1.640291085707    -0.010680305873    14.003074004430
         N           -2.628738172326    -1.917538914293     0.110957694127    14.003074004430
         C            0.558388827674    -0.437524914293    -0.029651305873    12.000000000000
         C            0.334447827674     0.939064085707    -0.009521305873    12.000000000000
         C           -1.031175772326     1.430761585707     0.036615294127    12.000000000000
         C            2.439752827674     0.688882085707    -0.070042305873    12.000000000000
         C           -1.572367172326    -1.026653914293     0.018682694127    12.000000000000
         C            2.636059827674    -1.845929914293    -0.065641305873    12.000000000000
         H            3.509951827674     0.858472085707    -0.086728305873     1.007825032230
         H            2.373624827674    -2.431034914293     0.817626694127     1.007825032230
         H            2.380162827674    -2.414686914293    -0.960628305873     1.007825032230
         H            3.704829827674    -1.631194914293    -0.059355305873     1.007825032230
         H           -2.884902172326     0.577101985707     0.169553794127     1.007825032230
         H           -2.325113172326    -2.868301914293    -0.064361305873     1.007825032230
         H           -3.459003172326    -1.673246914293    -0.417472305873     1.007825032230

  Basis Set: AUG-CC-PVTZ
    Blend: AUG-CC-PVTZ
  Basis Set: (AUG-CC-PVTZ AUX)
    Blend: AUG-CC-PVTZ-JKFIT
	 Reference Energy          =    -578.6312225862815239 [Eh]
	 Singles Energy            =      -0.0000000000000000 [Eh]
	 Same-Spin Energy          =      -0.6158584894975243 [Eh]
	 Opposite-Spin Energy      =      -1.8194204871313613 [Eh]
	 Correlation Energy        =      -2.4352789766288856 [Eh]
	 Total Energy              =    -581.0665015629103891 [Eh]

	 ================> DF-SCS-MP2 Energies <==================
	-----------------------------------------------------------
	 SCS Same-Spin Scale       =       0.3333333333333333 [-]
	 SCS Opposite-Spin Scale   =       1.2000000000000000 [-]
	 SCS Same-Spin Energy      =      -0.2052861631658414 [Eh]
	 SCS Opposite-Spin Energy  =      -2.1833045845576335 [Eh]
	 SCS Correlation Energy    =      -2.3885907477234749 [Eh]
	 SCS Total Energy          =    -581.0198133340049935 [Eh]
	-----------------------------------------------------------

  Dipole Moment: [D]
     X:    -0.0798      Y:    -6.6926      Z:    -0.9325     Total:     6.7578

*** Psi4 exiting successfully. Buy a developer a beer!
