                               Psi4 1.3.2 release

  ==> Input File <==

--------------------------------------------------------------------------
#psi4
#
memory 32 gb

molecule  {
0 1
  O       -1.4697740     2.5644010     0.0803940
  N        1.9191590    -0.5831280    -0.0556370
  N       -1.9102790     0.3061000     0.0485010
  N       -0.3427170    -1.4672350    -0.0387560
  N        1.5104806     1.6511946    -0.0103750
  N       -2.6294290    -1.9169300     0.1110730
  C        0.5456758    -0.4388191    -0.0294553
  C        0.3337570     0.9396730    -0.0094060
  C       -1.0221650     1.4237120     0.0351730
  C        2.4390620     0.6894910    -0.0699270
  C       -1.5730580    -1.0260450     0.0187980
  C        2.6353690    -1.8453210    -0.0655260
  H        3.5092610     0.8590810    -0.0866130
  H        2.3729340    -2.4304260     0.8177420
  H        2.3794720    -2.4140780    -0.9605130
  H        3.7041390    -1.6305860    -0.0592400
  H       -2.8879820     0.5691470     0.1693100
  H       -2.3258040    -2.8676930    -0.0642460
  H       -3.4596940    -1.6726380    -0.4173570
units angstrom
no_reorient  #important for SAPT in psi4, default
symmetry c1  #important for SAPT in psi4, default
}

set PROPERTIES_ORIGIN ["COM"]
properties('MP2/aug-cc-pvtz', properties = ['dipole'])
--------------------------------------------------------------------------

    Molecular point group: c1
  Charge       = 0
  Multiplicity = 1
  Basis Set: AUG-CC-PVTZ
    Blend: AUG-CC-PVTZ
  Basis Set: (AUG-CC-PVTZ AUX)
    Blend: AUG-CC-PVTZ-JKFIT

    Orbital Energies [Eh]
    ---------------------

    Doubly Occupied:

       1A    -20.520739     2A    -15.632998     3A    -15.629863
       4A    -15.611107     5A    -15.571475     6A    -15.560634
       7A    -11.396637     8A    -11.363793     9A    -11.319293
      10A    -11.309217    11A    -11.289028    12A    -11.247458
      13A     -1.390689    14A     -1.358154    15A     -1.333742
      16A     -1.219630    17A     -1.217549    18A     -1.189324
      19A     -1.028238    20A     -0.985634    21A     -0.901354
      22A     -0.882955    23A     -0.808415    24A     -0.766802
      25A     -0.739611    26A     -0.729383    27A     -0.692315
      28A     -0.670190    29A     -0.649678    30A     -0.642385
      31A     -0.627016    32A     -0.610500    33A     -0.591248
      34A     -0.577065    35A     -0.559774    36A     -0.541604
      37A     -0.495272    38A     -0.460096    39A     -0.440731
      40A     -0.429590    41A     -0.429360    42A     -0.392155
      43A     -0.296830

  @DF-RHF Final Energy:  -578.62879578868751

   => Energetics <=

    Nuclear Repulsion Energy =            693.2232916798157021
    One-Electron Energy =               -2163.4851134422797259
    Two-Electron Energy =                 891.6330259737765118
    Total Energy =                       -578.6287957886875120
  Basis Set: (AUG-CC-PVTZ AUX)
    Blend: AUG-CC-PVTZ-RI
    Molecular point group: c1

    Geometry (in Angstrom), charge = 0, multiplicity = 1:

       Center              X                  Y                   Z               Mass
    ------------   -----------------  -----------------  -----------------  -----------------
         O           -1.468377017792     2.563666160009     0.080372136833    15.994914619570
         N            1.920555982208    -0.583862839991    -0.055658863167    14.003074004430
         N           -1.908882017792     0.305365160009     0.048479136833    14.003074004430
         N           -0.341320017792    -1.467969839991    -0.038777863167    14.003074004430
         N            1.511877582208     1.650459760009    -0.010396863167    14.003074004430
         N           -2.628032017792    -1.917664839991     0.111051136833    14.003074004430
         C            0.547072782208    -0.439553939991    -0.029477163167    12.000000000000
         C            0.335153982208     0.938938160009    -0.009427863167    12.000000000000
         C           -1.020768017792     1.422977160009     0.035151136833    12.000000000000
         C            2.440458982208     0.688756160009    -0.069948863167    12.000000000000
         C           -1.571661017792    -1.026779839991     0.018776136833    12.000000000000
         C            2.636765982208    -1.846055839991    -0.065547863167    12.000000000000
         H            3.510657982208     0.858346160009    -0.086634863167     1.007825032230
         H            2.374330982208    -2.431160839991     0.817720136833     1.007825032230
         H            2.380868982208    -2.414812839991    -0.960534863167     1.007825032230
         H            3.705535982208    -1.631320839991    -0.059261863167     1.007825032230
         H           -2.886585017792     0.568412160009     0.169288136833     1.007825032230
         H           -2.324407017792    -2.868427839991    -0.064267863167     1.007825032230
         H           -3.458297017792    -1.673372839991    -0.417378863167     1.007825032230

  Basis Set: AUG-CC-PVTZ
    Blend: AUG-CC-PVTZ
  Basis Set: (AUG-CC-PVTZ AUX)
    Blend: AUG-CC-PVTZ-JKFIT
	 Reference Energy          =    -578.6287957886875120 [Eh]
	 Singles Energy            =      -0.0000000000000000 [Eh]
	 Same-Spin Energy          =      -0.6165421944119930 [Eh]
	 Opposite-Spin Energy      =      -1.8206897058054627 [Eh]
	 Correlation Energy        =      -2.4372319002174558 [Eh]
	 Total Energy              =    -581.0660276889050238 [Eh]

	 ================> DF-SCS-MP2 Energies <==================
	-----------------------------------------------------------
	 SCS Same-Spin Scale       =       0.3333333333333333 [-]
	 SCS Opposite-Spin Scale   =       1.2000000000000000 [-]
	 SCS Same-Spin Energy      =      -0.2055140648039976 [Eh]
	 SCS Opposite-Spin Energy  =      -2.1848276469665553 [Eh]
	 SCS Correlation Energy    =      -2.3903417117705530 [Eh]
	 SCS Total Energy          =    -581.0191375004581005 [Eh]
	-----------------------------------------------------------

  Dipole Moment: [D]
     X:    -0.0571      Y:    -6.8262      Z:    -0.9371     Total:     6.8905

*** Psi4 exiting successfully. Buy a developer a beer!
