                               Psi4 1.3.2 release

  ==> Input File <==

--------------------------------------------------------------------------
#psi4
#
memory 32 gb

molecule  {
0 1
  O       -1.4697740     2.5644010     0.0803940
  N        1.9191590    -0.5831280    -0.0556370
  N       -1.9102790     0.3061000     0.0485010
  N       -0.3427170    -1.4672350    -0.0387560
  N        1.5166440     1.6409000    -0.0105650
  N       -2.6294290    -1.9169300     0.1110730
  C        0.5576980    -0.4369160    -0.0295360
  C        0.3337570     0.9396730    -0.0094060
  C       -0.8977426     1.5802865     0.0333058
  C        2.4390620     0.6894910    -0.0699270
  C       -1.5730580    -1.0260450     0.0187980
  C        2.6353690    -1.8453210    -0.0655260
  H        3.5092610     0.8590810    -0.0866130
  H        2.3729340    -2.4304260     0.8177420
  H        2.3794720    -2.4140780    -0.9605130
  H        3.7041390    -1.6305860    -0.0592400
  H       -2.8879820     0.5691470     0.1693100
  H       -2.3258040    -2.8676930    -0.0642460
  H       -3.4596940    -1.6726380    -0.4173570
units angstrom
no_reorient  #important for SAPT in psi4, default
symmetry c1  #important for SAPT in psi4, default
}

set PROPERTIES_ORIGIN ["COM"]
properties('MP2/aug-cc-pvtz', properties = ['dipole'])
--------------------------------------------------------------------------

    Molecular point group: c1
  Charge       = 0
  Multiplicity = 1
  Basis Set: AUG-CC-PVTZ
    Blend: AUG-CC-PVTZ
  Basis Set: (AUG-CC-PVTZ AUX)
    Blend: AUG-CC-PVTZ-JKFIT

    Orbital Energies [Eh]
    ---------------------

    Doubly Occupied:

       1A    -20.553111     2A    -15.635340     3A    -15.595872
       4A    -15.588287     5A    -15.560587     6A    -15.556104
       7A    -11.377882     8A    -11.372925     9A    -11.328359
      10A    -11.307863    11A    -11.289897    12A    -11.246690
      13A     -1.449844    14A     -1.369225    15A     -1.319521
      16A     -1.210223    17A     -1.198994    18A     -1.165069
      19A     -1.032444    20A     -0.993053    21A     -0.899305
      22A     -0.851871    23A     -0.798002    24A     -0.764595
      25A     -0.728360    26A     -0.709826    27A     -0.691587
      28A     -0.670964    29A     -0.658443    30A     -0.648365
      31A     -0.626551    32A     -0.617912    33A     -0.590849
      34A     -0.581250    35A     -0.570987    36A     -0.554856
      37A     -0.487525    38A     -0.450411    39A     -0.441920
      40A     -0.434983    41A     -0.420427    42A     -0.391419
      43A     -0.300797

  @DF-RHF Final Energy:  -578.60445721242411

   => Energetics <=

    Nuclear Repulsion Energy =            692.7778700115588890
    One-Electron Energy =               -2162.6796663117675052
    Two-Electron Energy =                 891.2973390877845077
    Total Energy =                       -578.6044572124241085
  Basis Set: (AUG-CC-PVTZ AUX)
    Blend: AUG-CC-PVTZ-RI
    Molecular point group: c1

    Geometry (in Angstrom), charge = 0, multiplicity = 1:

       Center              X                  Y                   Z               Mass
    ------------   -----------------  -----------------  -----------------  -----------------
         O           -1.478819214025     2.553018387817     0.080529864847    15.994914619570
         N            1.910113785975    -0.594510612183    -0.055501135153    14.003074004430
         N           -1.919324214025     0.294717387817     0.048636864847    14.003074004430
         N           -0.351762214025    -1.478617612183    -0.038620135153    14.003074004430
         N            1.507598785975     1.629517387817    -0.010429135153    14.003074004430
         N           -2.638474214025    -1.928312612183     0.111208864847    14.003074004430
         C            0.548652785975    -0.448298612183    -0.029400135153    12.000000000000
         C            0.324711785975     0.928290387817    -0.009270135153    12.000000000000
         C           -0.906787814025     1.568903887817     0.033441664847    12.000000000000
         C            2.430016785975     0.678108387817    -0.069791135153    12.000000000000
         C           -1.582103214025    -1.037427612183     0.018933864847    12.000000000000
         C            2.626323785975    -1.856703612183    -0.065390135153    12.000000000000
         H            3.500215785975     0.847698387817    -0.086477135153     1.007825032230
         H            2.363888785975    -2.441808612183     0.817877864847     1.007825032230
         H            2.370426785975    -2.425460612183    -0.960377135153     1.007825032230
         H            3.695093785975    -1.641968612183    -0.059104135153     1.007825032230
         H           -2.897027214025     0.557764387817     0.169445864847     1.007825032230
         H           -2.334849214025    -2.879075612183    -0.064110135153     1.007825032230
         H           -3.468739214025    -1.684020612183    -0.417221135153     1.007825032230

  Basis Set: AUG-CC-PVTZ
    Blend: AUG-CC-PVTZ
  Basis Set: (AUG-CC-PVTZ AUX)
    Blend: AUG-CC-PVTZ-JKFIT
	 Reference Energy          =    -578.6044572124241085 [Eh]
	 Singles Energy            =      -0.0000000000000000 [Eh]
	 Same-Spin Energy          =      -0.6157565933922837 [Eh]
	 Opposite-Spin Energy      =      -1.8191963581588566 [Eh]
	 Correlation Energy        =      -2.4349529515511401 [Eh]
	 Total Energy              =    -581.0394101639752762 [Eh]

	 ================> DF-SCS-MP2 Energies <==================
	-----------------------------------------------------------
	 SCS Same-Spin Scale       =       0.3333333333333333 [-]
	 SCS Opposite-Spin Scale   =       1.2000000000000000 [-]
	 SCS Same-Spin Energy      =      -0.2052521977974279 [Eh]
	 SCS Opposite-Spin Energy  =      -2.1830356297906279 [Eh]
	 SCS Correlation Energy    =      -2.3882878275880559 [Eh]
	 SCS Total Energy          =    -580.9927450400122098 [Eh]
	-----------------------------------------------------------

  Dipole Moment: [D]
     X:     0.4513      Y:    -5.3036      Z:    -0.9160     Total:     5.4010

*** Psi4 exiting successfully. Buy a developer a beer!
