                               Psi4 1.4a3.dev225

  ==> Input File <==

--------------------------------------------------------------------------
#psi4
#
memory 32 gb

molecule  {
0 1
  O        1.6617960     2.5152110     0.0229320
  N       -1.9329240    -0.4005880    -0.0147920
  N        1.9545050     0.2323110     0.0113410
  N        0.2669280    -1.4301930    -0.0208730
  N       -1.3834780     1.7915450    -0.0193170
  N        2.5221760    -2.0364130     0.0734370
  C       -0.6134318    -0.3463283    -0.0031344
  C       -0.2488450     1.0144850    -0.0147620
  C        1.1380320     1.4076430     0.0031510
  C       -2.3683130     0.9036150    -0.0164120
  C        1.5275980    -1.0721200    -0.0057920
  C       -2.7322540    -1.6127190     0.0339130
  H       -3.4247340     1.1445090    -0.0228960
  H       -2.2735910    -2.3629350    -0.6109560
  H       -2.7853950    -1.9995380     1.0543320
  H       -3.7366260    -1.3828770    -0.3245450
  H        2.9468270     0.4301980     0.1174830
  H        2.1372730    -2.9631930    -0.0801050
  H        3.3349710    -1.8642740    -0.5097710
units angstrom
no_reorient  #important for SAPT in psi4, default
symmetry c1  #important for SAPT in psi4, default
}

set PROPERTIES_ORIGIN ["COM"]
properties('MP2/aug-cc-pvtz', properties = ['dipole'])
--------------------------------------------------------------------------

    Molecular point group: c1
  Charge       = 0
  Multiplicity = 1
  Basis Set: AUG-CC-PVTZ
    Blend: AUG-CC-PVTZ
  Basis Set: (AUG-CC-PVTZ AUX)
    Blend: AUG-CC-PVTZ-JKFIT

    Orbital Energies [Eh]
    ---------------------

    Doubly Occupied:

       1A    -20.521017     2A    -15.637970     3A    -15.626811
       4A    -15.609020     5A    -15.569041     6A    -15.563339
       7A    -11.393798     8A    -11.364952     9A    -11.319687
      10A    -11.305527    11A    -11.292921    12A    -11.246534
      13A     -1.391296    14A     -1.369703    15A     -1.332065
      16A     -1.217188    17A     -1.211312    18A     -1.191190
      19A     -1.028695    20A     -0.992245    21A     -0.904338
      22A     -0.877748    23A     -0.805990    24A     -0.768003
      25A     -0.745023    26A     -0.727316    27A     -0.690470
      28A     -0.676065    29A     -0.650902    30A     -0.640432
      31A     -0.624072    32A     -0.609859    33A     -0.594897
      34A     -0.585664    35A     -0.564417    36A     -0.541256
      37A     -0.488877    38A     -0.456941    39A     -0.438368
      40A     -0.428203    41A     -0.427111    42A     -0.395895
      43A     -0.298146

  @DF-RHF Final Energy:  -578.62772185189885

   => Energetics <=

    Nuclear Repulsion Energy =            693.1021865698668307
    One-Electron Energy =               -2163.2112030295661498
    Two-Electron Energy =                 891.4812946078005780
    Total Energy =                       -578.6277218518988548
  Basis Set: (AUG-CC-PVTZ AUX)
    Blend: AUG-CC-PVTZ-RI
    Molecular point group: c1

    Geometry (in Angstrom), charge = 0, multiplicity = 1:

       Center              X                  Y                   Z               Mass
    ------------   -----------------  -----------------  -----------------  -----------------
         O            1.642603660453     2.461386316130     0.020701422679    15.994914619570
         N           -1.952116339547    -0.454412683870    -0.017022577321    14.003074004430
         N            1.935312660453     0.178486316130     0.009110422679    14.003074004430
         N            0.247735660453    -1.484017683870    -0.023103577321    14.003074004430
         N           -1.402670339547     1.737720316130    -0.021547577321    14.003074004430
         N            2.502983660453    -2.090237683870     0.071206422679    14.003074004430
         C           -0.632624139547    -0.400152983870    -0.005364977321    12.000000000000
         C           -0.268037339547     0.960660316130    -0.016992577321    12.000000000000
         C            1.118839660453     1.353818316130     0.000920422679    12.000000000000
         C           -2.387505339547     0.849790316130    -0.018642577321    12.000000000000
         C            1.508405660453    -1.125944683870    -0.008022577321    12.000000000000
         C           -2.751446339547    -1.666543683870     0.031682422679    12.000000000000
         H           -3.443926339547     1.090684316130    -0.025126577321     1.007825032230
         H           -2.292783339547    -2.416759683870    -0.613186577321     1.007825032230
         H           -2.804587339547    -2.053362683870     1.052101422679     1.007825032230
         H           -3.755818339547    -1.436701683870    -0.326775577321     1.007825032230
         H            2.927634660453     0.376373316130     0.115252422679     1.007825032230
         H            2.118080660453    -3.017017683870    -0.082335577321     1.007825032230
         H            3.315778660453    -1.918098683870    -0.512001577321     1.007825032230

  Basis Set: AUG-CC-PVTZ
    Blend: AUG-CC-PVTZ
  Basis Set: (AUG-CC-PVTZ AUX)
    Blend: AUG-CC-PVTZ-JKFIT
	 Reference Energy          =    -578.6277218518988548 [Eh]
	 Singles Energy            =      -0.0000000000000000 [Eh]
	 Same-Spin Energy          =      -0.6159627052632124 [Eh]
	 Opposite-Spin Energy      =      -1.8196263543870126 [Eh]
	 Correlation Energy        =      -2.4355890596502250 [Eh]
	 Total Energy              =    -581.0633109115490242 [Eh]

	 ================> DF-SCS-MP2 Energies <==================
	-----------------------------------------------------------
	 SCS Same-Spin Scale       =       0.3333333333333333 [-]
	 SCS Opposite-Spin Scale   =       1.2000000000000000 [-]
	 SCS Same-Spin Energy      =      -0.2053209017544041 [Eh]
	 SCS Opposite-Spin Energy  =      -2.1835516252644149 [Eh]
	 SCS Correlation Energy    =      -2.3888725270188189 [Eh]
	 SCS Total Energy          =    -581.0165943789177163 [Eh]
	-----------------------------------------------------------

  Dipole Moment: [D]
     X:    -0.7576      Y:    -6.7355      Z:    -0.8488     Total:     6.8309

*** Psi4 exiting successfully. Buy a developer a beer!
