                               Psi4 1.3.2 release

  ==> Input File <==

--------------------------------------------------------------------------
#psi4
#
memory 32 gb

molecule  {
0 1
  O       -1.4697740     2.5644010     0.0803940
  N        1.9638866    -0.6005022    -0.0562073
  N       -1.9102790     0.3061000     0.0485010
  N       -0.3427170    -1.4672350    -0.0387560
  N        1.5166440     1.6409000    -0.0105650
  N       -2.6294290    -1.9169300     0.1110730
  C        0.5576980    -0.4369160    -0.0295360
  C        0.3337570     0.9396730    -0.0094060
  C       -1.0221650     1.4237120     0.0351730
  C        2.4390620     0.6894910    -0.0699270
  C       -1.5730580    -1.0260450     0.0187980
  C        2.6353690    -1.8453210    -0.0655260
  H        3.5145300     0.8216243    -0.0864962
  H        2.3729340    -2.4304260     0.8177420
  H        2.3794720    -2.4140780    -0.9605130
  H        3.7041390    -1.6305860    -0.0592400
  H       -2.8879820     0.5691470     0.1693100
  H       -2.3258040    -2.8676930    -0.0642460
  H       -3.4596940    -1.6726380    -0.4173570
units angstrom
no_reorient  #important for SAPT in psi4, default
symmetry c1  #important for SAPT in psi4, default
}

set PROPERTIES_ORIGIN ["COM"]
properties('MP2/aug-cc-pvtz', properties = ['dipole'])
--------------------------------------------------------------------------

    Molecular point group: c1
  Charge       = 0
  Multiplicity = 1
  Basis Set: AUG-CC-PVTZ
    Blend: AUG-CC-PVTZ
  Basis Set: (AUG-CC-PVTZ AUX)
    Blend: AUG-CC-PVTZ-JKFIT

    Orbital Energies [Eh]
    ---------------------

    Doubly Occupied:

       1A    -20.522718     2A    -15.631725     3A    -15.630881
       4A    -15.611127     5A    -15.572266     6A    -15.559894
       7A    -11.396603     8A    -11.366293     9A    -11.323253
      10A    -11.311059    11A    -11.285420    12A    -11.250958
      13A     -1.390990    14A     -1.356508    15A     -1.333791
      16A     -1.220260    17A     -1.216413    18A     -1.196382
      19A     -1.027481    20A     -0.987769    21A     -0.901421
      22A     -0.882655    23A     -0.808073    24A     -0.766662
      25A     -0.741082    26A     -0.728473    27A     -0.692834
      28A     -0.670525    29A     -0.656817    30A     -0.641514
      31A     -0.628274    32A     -0.614383    33A     -0.595202
      34A     -0.568292    35A     -0.558145    36A     -0.540817
      37A     -0.496055    38A     -0.460016    39A     -0.441234
      40A     -0.430340    41A     -0.429655    42A     -0.392542
      43A     -0.298491

  @DF-RHF Final Energy:  -578.62544123397470

   => Energetics <=

    Nuclear Repulsion Energy =            692.6059445419564327
    One-Electron Energy =               -2162.1921784319570179
    Two-Electron Energy =                 890.9607926560258875
    Total Energy =                       -578.6254412339746978
  Basis Set: (AUG-CC-PVTZ AUX)
    Blend: AUG-CC-PVTZ-RI
    Molecular point group: c1

    Geometry (in Angstrom), charge = 0, multiplicity = 1:

       Center              X                  Y                   Z               Mass
    ------------   -----------------  -----------------  -----------------  -----------------
         O           -1.473600455569     2.566103749492     0.080441789510    15.994914619570
         N            1.960060144431    -0.598799450508    -0.056159510490    14.003074004430
         N           -1.914105455569     0.307802749492     0.048548789510    14.003074004430
         N           -0.346543455569    -1.465532250508    -0.038708210490    14.003074004430
         N            1.512817544431     1.642602749492    -0.010517210490    14.003074004430
         N           -2.633255455569    -1.915227250508     0.111120789510    14.003074004430
         C            0.553871544431    -0.435213250508    -0.029488210490    12.000000000000
         C            0.329930544431     0.941375749492    -0.009358210490    12.000000000000
         C           -1.025991455569     1.425414749492     0.035220789510    12.000000000000
         C            2.435235544431     0.691193749492    -0.069879210490    12.000000000000
         C           -1.576884455569    -1.024342250508     0.018845789510    12.000000000000
         C            2.631542544431    -1.843618250508    -0.065478210490    12.000000000000
         H            3.510703544431     0.823327049492    -0.086448410490     1.007825032230
         H            2.369107544431    -2.428723250508     0.817789789510     1.007825032230
         H            2.375645544431    -2.412375250508    -0.960465210490     1.007825032230
         H            3.700312544431    -1.628883250508    -0.059192210490     1.007825032230
         H           -2.891808455569     0.570849749492     0.169357789510     1.007825032230
         H           -2.329630455569    -2.865990250508    -0.064198210490     1.007825032230
         H           -3.463520455569    -1.670935250508    -0.417309210490     1.007825032230

  Basis Set: AUG-CC-PVTZ
    Blend: AUG-CC-PVTZ
  Basis Set: (AUG-CC-PVTZ AUX)
    Blend: AUG-CC-PVTZ-JKFIT
	 Reference Energy          =    -578.6254412339746978 [Eh]
	 Singles Energy            =      -0.0000000000000000 [Eh]
	 Same-Spin Energy          =      -0.6165553767489539 [Eh]
	 Opposite-Spin Energy      =      -1.8209588645807155 [Eh]
	 Correlation Energy        =      -2.4375142413296693 [Eh]
	 Total Energy              =    -581.0629554753044204 [Eh]

	 ================> DF-SCS-MP2 Energies <==================
	-----------------------------------------------------------
	 SCS Same-Spin Scale       =       0.3333333333333333 [-]
	 SCS Opposite-Spin Scale   =       1.2000000000000000 [-]
	 SCS Same-Spin Energy      =      -0.2055184589163180 [Eh]
	 SCS Opposite-Spin Energy  =      -2.1851506374968586 [Eh]
	 SCS Correlation Energy    =      -2.3906690964131765 [Eh]
	 SCS Total Energy          =    -581.0161103303878463 [Eh]
	-----------------------------------------------------------

  Dipole Moment: [D]
     X:    -0.1631      Y:    -6.7199      Z:    -0.9340     Total:     6.7865

*** Psi4 exiting successfully. Buy a developer a beer!
