                               Psi4 1.3.2 release

  ==> Input File <==

--------------------------------------------------------------------------
#psi4
#
memory 32 gb

molecule  {
0 1
  O       -1.4697740     2.5644010     0.0803940
  N        1.9132076    -0.6305487    -0.0566522
  N       -1.9102790     0.3061000     0.0485010
  N       -0.3062182    -1.4980130    -0.0400868
  N        1.5166440     1.6409000    -0.0105650
  N       -2.6294290    -1.9169300     0.1110730
  C        0.5576980    -0.4369160    -0.0295360
  C        0.3337570     0.9396730    -0.0094060
  C       -1.0221650     1.4237120     0.0351730
  C        2.4390620     0.6894910    -0.0699270
  C       -1.5730580    -1.0260450     0.0187980
  C        2.6353690    -1.8453210    -0.0655260
  H        3.5092610     0.8590810    -0.0866130
  H        2.3729340    -2.4304260     0.8177420
  H        2.3794720    -2.4140780    -0.9605130
  H        3.7041390    -1.6305860    -0.0592400
  H       -2.8879820     0.5691470     0.1693100
  H       -2.3258040    -2.8676930    -0.0642460
  H       -3.4596940    -1.6726380    -0.4173570
units angstrom
no_reorient  #important for SAPT in psi4, default
symmetry c1  #important for SAPT in psi4, default
}

set PROPERTIES_ORIGIN ["COM"]
properties('MP2/aug-cc-pvtz', properties = ['dipole'])
--------------------------------------------------------------------------

    Molecular point group: c1
  Charge       = 0
  Multiplicity = 1
  Basis Set: AUG-CC-PVTZ
    Blend: AUG-CC-PVTZ
  Basis Set: (AUG-CC-PVTZ AUX)
    Blend: AUG-CC-PVTZ-JKFIT

    Orbital Energies [Eh]
    ---------------------

    Doubly Occupied:

       1A    -20.521631     2A    -15.634695     3A    -15.628167
       4A    -15.615549     5A    -15.575220     6A    -15.564519
       7A    -11.405380     8A    -11.365431     9A    -11.320901
      10A    -11.310445    11A    -11.283028    12A    -11.246756
      13A     -1.389880    14A     -1.355609    15A     -1.329811
      16A     -1.222451    17A     -1.216117    18A     -1.191840
      19A     -1.026211    20A     -0.985165    21A     -0.894579
      22A     -0.884911    23A     -0.804754    24A     -0.768591
      25A     -0.740804    26A     -0.728980    27A     -0.693291
      28A     -0.669916    29A     -0.653228    30A     -0.636952
      31A     -0.624234    32A     -0.611889    33A     -0.594732
      34A     -0.572018    35A     -0.556703    36A     -0.539561
      37A     -0.498099    38A     -0.459811    39A     -0.442707
      40A     -0.431284    41A     -0.430828    42A     -0.389305
      43A     -0.296450

  @DF-RHF Final Energy:  -578.62125570519686

   => Energetics <=

    Nuclear Repulsion Energy =            692.1619169687064641
    One-Electron Energy =               -2161.3414694019488707
    Two-Electron Energy =                 890.5582967280455478
    Total Energy =                       -578.6212557051968588
  Basis Set: (AUG-CC-PVTZ AUX)
    Blend: AUG-CC-PVTZ-RI
    Molecular point group: c1

    Geometry (in Angstrom), charge = 0, multiplicity = 1:

       Center              X                  Y                   Z               Mass
    ------------   -----------------  -----------------  -----------------  -----------------
         O           -1.472365326703     2.571035018263     0.080593141786    15.994914619570
         N            1.910616273297    -0.623914681737    -0.056453058214    14.003074004430
         N           -1.912870326703     0.312734018263     0.048700141786    14.003074004430
         N           -0.308809526703    -1.491378981737    -0.039887658214    14.003074004430
         N            1.514052673297     1.647534018263    -0.010365858214    14.003074004430
         N           -2.632020326703    -1.910295981737     0.111272141786    14.003074004430
         C            0.555106673297    -0.430281981737    -0.029336858214    12.000000000000
         C            0.331165673297     0.946307018263    -0.009206858214    12.000000000000
         C           -1.024756326703     1.430346018263     0.035372141786    12.000000000000
         C            2.436470673297     0.696125018263    -0.069727858214    12.000000000000
         C           -1.575649326703    -1.019410981737     0.018997141786    12.000000000000
         C            2.632777673297    -1.838686981737    -0.065326858214    12.000000000000
         H            3.506669673297     0.865715018263    -0.086413858214     1.007825032230
         H            2.370342673297    -2.423791981737     0.817941141786     1.007825032230
         H            2.376880673297    -2.407443981737    -0.960313858214     1.007825032230
         H            3.701547673297    -1.623951981737    -0.059040858214     1.007825032230
         H           -2.890573326703     0.575781018263     0.169509141786     1.007825032230
         H           -2.328395326703    -2.861058981737    -0.064046858214     1.007825032230
         H           -3.462285326703    -1.666003981737    -0.417157858214     1.007825032230

  Basis Set: AUG-CC-PVTZ
    Blend: AUG-CC-PVTZ
  Basis Set: (AUG-CC-PVTZ AUX)
    Blend: AUG-CC-PVTZ-JKFIT
	 Reference Energy          =    -578.6212557051968588 [Eh]
	 Singles Energy            =      -0.0000000000000000 [Eh]
	 Same-Spin Energy          =      -0.6168378852025461 [Eh]
	 Opposite-Spin Energy      =      -1.8220802898229971 [Eh]
	 Correlation Energy        =      -2.4389181750255431 [Eh]
	 Total Energy              =    -581.0601738802223508 [Eh]

	 ================> DF-SCS-MP2 Energies <==================
	-----------------------------------------------------------
	 SCS Same-Spin Scale       =       0.3333333333333333 [-]
	 SCS Opposite-Spin Scale   =       1.2000000000000000 [-]
	 SCS Same-Spin Energy      =      -0.2056126284008487 [Eh]
	 SCS Opposite-Spin Energy  =      -2.1864963477875965 [Eh]
	 SCS Correlation Energy    =      -2.3921089761884451 [Eh]
	 SCS Total Energy          =    -581.0133646813852693 [Eh]
	-----------------------------------------------------------

  Dipole Moment: [D]
     X:    -0.2687      Y:    -6.6408      Z:    -0.9239     Total:     6.7102

*** Psi4 exiting successfully. Buy a developer a beer!
