                               Psi4 1.3.2 release

  ==> Input File <==

--------------------------------------------------------------------------
#psi4
#
memory 32 gb

molecule  {
0 1
  O       -1.4697740     2.5644010     0.0803940
  N        1.9191590    -0.5831280    -0.0556370
  N       -1.9102790     0.3061000     0.0485010
  N       -0.3427170    -1.4672350    -0.0387560
  N        1.5286917     1.6201647    -0.0115130
  N       -2.6294290    -1.9169300     0.1110730
  C        0.5576980    -0.4369160    -0.0295360
  C        0.3337570     0.9396730    -0.0094060
  C       -1.0304256     1.3999764     0.0345484
  C        2.4390620     0.6894910    -0.0699270
  C       -1.5730580    -1.0260450     0.0187980
  C        2.6353690    -1.8453210    -0.0655260
  H        3.5092610     0.8590810    -0.0866130
  H        2.3729340    -2.4304260     0.8177420
  H        2.3794720    -2.4140780    -0.9605130
  H        3.7041390    -1.6305860    -0.0592400
  H       -2.8879820     0.5691470     0.1693100
  H       -2.3258040    -2.8676930    -0.0642460
  H       -3.4596940    -1.6726380    -0.4173570
units angstrom
no_reorient  #important for SAPT in psi4, default
symmetry c1  #important for SAPT in psi4, default
}

set PROPERTIES_ORIGIN ["COM"]
properties('MP2/aug-cc-pvtz', properties = ['dipole'])
--------------------------------------------------------------------------

    Molecular point group: c1
  Charge       = 0
  Multiplicity = 1
  Basis Set: AUG-CC-PVTZ
    Blend: AUG-CC-PVTZ
  Basis Set: (AUG-CC-PVTZ AUX)
    Blend: AUG-CC-PVTZ-JKFIT

    Orbital Energies [Eh]
    ---------------------

    Doubly Occupied:

       1A    -20.515545     2A    -15.633712     3A    -15.630628
       4A    -15.612730     5A    -15.573219     6A    -15.556637
       7A    -11.398506     8A    -11.363736     9A    -11.319515
      10A    -11.304657    11A    -11.288716    12A    -11.247405
      13A     -1.389065    14A     -1.357837    15A     -1.331992
      16A     -1.222892    17A     -1.219630    18A     -1.193058
      19A     -1.032633    20A     -0.985169    21A     -0.903590
      22A     -0.887392    23A     -0.810096    24A     -0.765831
      25A     -0.746412    26A     -0.731585    27A     -0.694050
      28A     -0.672150    29A     -0.647726    30A     -0.644095
      31A     -0.628760    32A     -0.604675    33A     -0.597405
      34A     -0.577666    35A     -0.562496    36A     -0.538919
      37A     -0.494052    38A     -0.460862    39A     -0.437397
      40A     -0.428511    41A     -0.425277    42A     -0.392579
      43A     -0.300963

  @DF-RHF Final Energy:  -578.63078250058925

   => Energetics <=

    Nuclear Repulsion Energy =            694.0893842353053742
    One-Electron Energy =               -2165.1807955395333920
    Two-Electron Energy =                 892.4606288036388833
    Total Energy =                       -578.6307825005892482
  Basis Set: (AUG-CC-PVTZ AUX)
    Blend: AUG-CC-PVTZ-RI
    Molecular point group: c1

    Geometry (in Angstrom), charge = 0, multiplicity = 1:

       Center              X                  Y                   Z               Mass
    ------------   -----------------  -----------------  -----------------  -----------------
         O           -1.470195395232     2.567885732501     0.080519951872    15.994914619570
         N            1.918737604768    -0.579643267499    -0.055511048128    14.003074004430
         N           -1.910700395232     0.309584732501     0.048626951872    14.003074004430
         N           -0.343138395232    -1.463750267499    -0.038630048128    14.003074004430
         N            1.528270304768     1.623649432501    -0.011387048128    14.003074004430
         N           -2.629850395232    -1.913445267499     0.111198951872    14.003074004430
         C            0.557276604768    -0.433431267499    -0.029410048128    12.000000000000
         C            0.333335604768     0.943157732501    -0.009280048128    12.000000000000
         C           -1.030846995232     1.403461132501     0.034674351872    12.000000000000
         C            2.438640604768     0.692975732501    -0.069801048128    12.000000000000
         C           -1.573479395232    -1.022560267499     0.018923951872    12.000000000000
         C            2.634947604768    -1.841836267499    -0.065400048128    12.000000000000
         H            3.508839604768     0.862565732501    -0.086487048128     1.007825032230
         H            2.372512604768    -2.426941267499     0.817867951872     1.007825032230
         H            2.379050604768    -2.410593267499    -0.960387048128     1.007825032230
         H            3.703717604768    -1.627101267499    -0.059114048128     1.007825032230
         H           -2.888403395232     0.572631732501     0.169435951872     1.007825032230
         H           -2.326225395232    -2.864208267499    -0.064120048128     1.007825032230
         H           -3.460115395232    -1.669153267499    -0.417231048128     1.007825032230

  Basis Set: AUG-CC-PVTZ
    Blend: AUG-CC-PVTZ
  Basis Set: (AUG-CC-PVTZ AUX)
    Blend: AUG-CC-PVTZ-JKFIT
	 Reference Energy          =    -578.6307825005892482 [Eh]
	 Singles Energy            =      -0.0000000000000000 [Eh]
	 Same-Spin Energy          =      -0.6157603979524180 [Eh]
	 Opposite-Spin Energy      =      -1.8189965435103950 [Eh]
	 Correlation Energy        =      -2.4347569414628127 [Eh]
	 Total Energy              =    -581.0655394420521134 [Eh]

	 ================> DF-SCS-MP2 Energies <==================
	-----------------------------------------------------------
	 SCS Same-Spin Scale       =       0.3333333333333333 [-]
	 SCS Opposite-Spin Scale   =       1.2000000000000000 [-]
	 SCS Same-Spin Energy      =      -0.2052534659841393 [Eh]
	 SCS Opposite-Spin Energy  =      -2.1827958522124740 [Eh]
	 SCS Correlation Energy    =      -2.3880493181966131 [Eh]
	 SCS Total Energy          =    -581.0188318187858840 [Eh]
	-----------------------------------------------------------

  Dipole Moment: [D]
     X:    -0.0336      Y:    -6.9586      Z:    -0.9419     Total:     7.0221

*** Psi4 exiting successfully. Buy a developer a beer!
