                               Psi4 1.3.2 release

  ==> Input File <==

--------------------------------------------------------------------------
#psi4
#
memory 32 gb

molecule  {
0 1
  O       -1.4697740     2.5644010     0.0803940
  N        1.9191590    -0.5831280    -0.0556370
  N       -1.9102790     0.3061000     0.0485010
  N       -0.3427170    -1.4672350    -0.0387560
  N        1.5166440     1.6409000    -0.0105650
  N       -2.6294290    -1.9169300     0.1110730
  C        0.5576980    -0.4369160    -0.0295360
  C        0.3337570     0.9396730    -0.0094060
  C       -1.0221650     1.4237120     0.0351730
  C        2.3634285     0.5043552    -0.0678481
  C       -1.5730580    -1.0260450     0.0187980
  C        2.6353690    -1.8453210    -0.0655260
  H        3.5092610     0.8590810    -0.0866130
  H        2.3729340    -2.4304260     0.8177420
  H        2.3794720    -2.4140780    -0.9605130
  H        3.7041390    -1.6305860    -0.0592400
  H       -2.8879820     0.5691470     0.1693100
  H       -2.3258040    -2.8676930    -0.0642460
  H       -3.4596940    -1.6726380    -0.4173570
units angstrom
no_reorient  #important for SAPT in psi4, default
symmetry c1  #important for SAPT in psi4, default
}

set PROPERTIES_ORIGIN ["COM"]
properties('MP2/aug-cc-pvtz', properties = ['dipole'])
--------------------------------------------------------------------------

    Molecular point group: c1
  Charge       = 0
  Multiplicity = 1
  Basis Set: AUG-CC-PVTZ
    Blend: AUG-CC-PVTZ
  Basis Set: (AUG-CC-PVTZ AUX)
    Blend: AUG-CC-PVTZ-JKFIT

    Orbital Energies [Eh]
    ---------------------

    Doubly Occupied:

       1A    -20.523977     2A    -15.649365     3A    -15.628208
       4A    -15.605639     5A    -15.569550     6A    -15.546524
       7A    -11.388020     8A    -11.364786     9A    -11.308102
      10A    -11.306978    11A    -11.304054    12A    -11.252125
      13A     -1.426953    14A     -1.384382    15A     -1.336021
      16A     -1.217643    17A     -1.210273    18A     -1.190278
      19A     -1.023354    20A     -1.017767    21A     -0.927464
      22A     -0.873666    23A     -0.800000    24A     -0.775954
      25A     -0.743926    26A     -0.717441    27A     -0.701269
      28A     -0.693039    29A     -0.667791    30A     -0.640956
      31A     -0.629045    32A     -0.617152    33A     -0.591274
      34A     -0.575507    35A     -0.543678    36A     -0.527075
      37A     -0.494178    38A     -0.457330    39A     -0.439740
      40A     -0.430098    41A     -0.429639    42A     -0.402828
      43A     -0.281289

  @DF-RHF Final Energy:  -578.56355753093794

   => Energetics <=

    Nuclear Repulsion Energy =            697.1640925847827930
    One-Electron Energy =               -2171.0266268248024062
    Two-Electron Energy =                 895.2989767090816713
    Total Energy =                       -578.5635575309379419
  Basis Set: (AUG-CC-PVTZ AUX)
    Blend: AUG-CC-PVTZ-RI
    Molecular point group: c1

    Geometry (in Angstrom), charge = 0, multiplicity = 1:

       Center              X                  Y                   Z               Mass
    ------------   -----------------  -----------------  -----------------  -----------------
         O           -1.464275428672     2.577860250797     0.080242988872    15.994914619570
         N            1.924657571328    -0.569668749203    -0.055788011128    14.003074004430
         N           -1.904780428672     0.319559250797     0.048349988872    14.003074004430
         N           -0.337218428672    -1.453775749203    -0.038907011128    14.003074004430
         N            1.522142571328     1.654359250797    -0.010716011128    14.003074004430
         N           -2.623930428672    -1.903470749203     0.110921988872    14.003074004430
         C            0.563196571328    -0.423456749203    -0.029687011128    12.000000000000
         C            0.339255571328     0.953132250797    -0.009557011128    12.000000000000
         C           -1.016666428672     1.437171250797     0.035021988872    12.000000000000
         C            2.368927071328     0.517814450797    -0.067999111128    12.000000000000
         C           -1.567559428672    -1.012585749203     0.018646988872    12.000000000000
         C            2.640867571328    -1.831861749203    -0.065677011128    12.000000000000
         H            3.514759571328     0.872540250797    -0.086764011128     1.007825032230
         H            2.378432571328    -2.416966749203     0.817590988872     1.007825032230
         H            2.384970571328    -2.400618749203    -0.960664011128     1.007825032230
         H            3.709637571328    -1.617126749203    -0.059391011128     1.007825032230
         H           -2.882483428672     0.582606250797     0.169158988872     1.007825032230
         H           -2.320305428672    -2.854233749203    -0.064397011128     1.007825032230
         H           -3.454195428672    -1.659178749203    -0.417508011128     1.007825032230

  Basis Set: AUG-CC-PVTZ
    Blend: AUG-CC-PVTZ
  Basis Set: (AUG-CC-PVTZ AUX)
    Blend: AUG-CC-PVTZ-JKFIT
	 Reference Energy          =    -578.5635575309379419 [Eh]
	 Singles Energy            =      -0.0000000000000000 [Eh]
	 Same-Spin Energy          =      -0.6194779824612309 [Eh]
	 Opposite-Spin Energy      =      -1.8247455659213578 [Eh]
	 Correlation Energy        =      -2.4442235483825887 [Eh]
	 Total Energy              =    -581.0077810793205799 [Eh]

	 ================> DF-SCS-MP2 Energies <==================
	-----------------------------------------------------------
	 SCS Same-Spin Scale       =       0.3333333333333333 [-]
	 SCS Opposite-Spin Scale   =       1.2000000000000000 [-]
	 SCS Same-Spin Energy      =      -0.2064926608204103 [Eh]
	 SCS Opposite-Spin Energy  =      -2.1896946791056293 [Eh]
	 SCS Correlation Energy    =      -2.3961873399260396 [Eh]
	 SCS Total Energy          =    -580.9597448708640286 [Eh]
	-----------------------------------------------------------

  Dipole Moment: [D]
     X:     0.2034      Y:    -7.3163      Z:    -0.9488     Total:     7.3804

*** Psi4 exiting successfully. Buy a developer a beer!
