                               Psi4 1.4a3.dev225

  ==> Input File <==

--------------------------------------------------------------------------
#psi4
#
memory 32 gb

molecule  {
0 1
  O        1.6617960     2.5152110     0.0229320
  N       -1.9329240    -0.4005880    -0.0147920
  N        1.9545050     0.2323110     0.0113410
  N        0.2669280    -1.4301930    -0.0208730
  N       -1.3834780     1.7915450    -0.0193170
  N        2.5221760    -2.0364130     0.0734370
  C       -0.5634760    -0.3442740    -0.0026930
  C       -0.2488450     1.0144850    -0.0147620
  C        1.1465810     1.4257209     0.0034739
  C       -2.3683130     0.9036150    -0.0164120
  C        1.5275980    -1.0721200    -0.0057920
  C       -2.7322540    -1.6127190     0.0339130
  H       -3.4247340     1.1445090    -0.0228960
  H       -2.2735910    -2.3629350    -0.6109560
  H       -2.7853950    -1.9995380     1.0543320
  H       -3.7366260    -1.3828770    -0.3245450
  H        2.9468270     0.4301980     0.1174830
  H        2.1372730    -2.9631930    -0.0801050
  H        3.3349710    -1.8642740    -0.5097710
units angstrom
no_reorient  #important for SAPT in psi4, default
symmetry c1  #important for SAPT in psi4, default
}

set PROPERTIES_ORIGIN ["COM"]
properties('MP2/aug-cc-pvtz', properties = ['dipole'])
--------------------------------------------------------------------------

    Molecular point group: c1
  Charge       = 0
  Multiplicity = 1
  Basis Set: AUG-CC-PVTZ
    Blend: AUG-CC-PVTZ
  Basis Set: (AUG-CC-PVTZ AUX)
    Blend: AUG-CC-PVTZ-JKFIT

    Orbital Energies [Eh]
    ---------------------

    Doubly Occupied:

       1A    -20.526717     2A    -15.631587     3A    -15.626914
       4A    -15.609542     5A    -15.569155     6A    -15.558840
       7A    -11.394686     8A    -11.365884     9A    -11.317813
      10A    -11.305517    11A    -11.288226    12A    -11.246829
      13A     -1.398756    14A     -1.363872    15A     -1.334345
      16A     -1.217254    17A     -1.214589    18A     -1.188809
      19A     -1.026290    20A     -0.984452    21A     -0.898403
      22A     -0.880104    23A     -0.805851    24A     -0.765428
      25A     -0.738563    26A     -0.726951    27A     -0.690620
      28A     -0.669451    29A     -0.651243    30A     -0.640723
      31A     -0.624422    32A     -0.617395    33A     -0.593204
      34A     -0.577730    35A     -0.560373    36A     -0.546147
      37A     -0.491764    38A     -0.459751    39A     -0.442278
      40A     -0.431127    41A     -0.429389    42A     -0.391767
      43A     -0.297140

  @DF-RHF Final Energy:  -578.63125791136247

   => Energetics <=

    Nuclear Repulsion Energy =            693.0098032062315951
    One-Electron Energy =               -2163.0823236838295998
    Two-Electron Energy =                 891.4412625662356504
    Total Energy =                       -578.6312579113624679
  Basis Set: (AUG-CC-PVTZ AUX)
    Blend: AUG-CC-PVTZ-RI
    Molecular point group: c1

    Geometry (in Angstrom), charge = 0, multiplicity = 1:

       Center              X                  Y                   Z               Mass
    ------------   -----------------  -----------------  -----------------  -----------------
         O            1.638350442960     2.459922733224     0.020645859133    15.994914619570
         N           -1.956369557040    -0.455876266776    -0.017078140867    14.003074004430
         N            1.931059442960     0.177022733224     0.009054859133    14.003074004430
         N            0.243482442960    -1.485481266776    -0.023159140867    14.003074004430
         N           -1.406923557040     1.736256733224    -0.021603140867    14.003074004430
         N            2.498730442960    -2.091701266776     0.071150859133    14.003074004430
         C           -0.586921557040    -0.399562266776    -0.004979140867    12.000000000000
         C           -0.272290557040     0.959196733224    -0.017048140867    12.000000000000
         C            1.123135442960     1.370432633224     0.001187759133    12.000000000000
         C           -2.391758557040     0.848326733224    -0.018698140867    12.000000000000
         C            1.504152442960    -1.127408266776    -0.008078140867    12.000000000000
         C           -2.755699557040    -1.668007266776     0.031626859133    12.000000000000
         H           -3.448179557040     1.089220733224    -0.025182140867     1.007825032230
         H           -2.297036557040    -2.418223266776    -0.613242140867     1.007825032230
         H           -2.808840557040    -2.054826266776     1.052045859133     1.007825032230
         H           -3.760071557040    -1.438165266776    -0.326831140867     1.007825032230
         H            2.923381442960     0.374909733224     0.115196859133     1.007825032230
         H            2.113827442960    -3.018481266776    -0.082391140867     1.007825032230
         H            3.311525442960    -1.919562266776    -0.512057140867     1.007825032230

  Basis Set: AUG-CC-PVTZ
    Blend: AUG-CC-PVTZ
  Basis Set: (AUG-CC-PVTZ AUX)
    Blend: AUG-CC-PVTZ-JKFIT
	 Reference Energy          =    -578.6312579113624679 [Eh]
	 Singles Energy            =      -0.0000000000000000 [Eh]
	 Same-Spin Energy          =      -0.6156712986111568 [Eh]
	 Opposite-Spin Energy      =      -1.8190939041652214 [Eh]
	 Correlation Energy        =      -2.4347652027763784 [Eh]
	 Total Energy              =    -581.0660231141388294 [Eh]

	 ================> DF-SCS-MP2 Energies <==================
	-----------------------------------------------------------
	 SCS Same-Spin Scale       =       0.3333333333333333 [-]
	 SCS Opposite-Spin Scale   =       1.2000000000000000 [-]
	 SCS Same-Spin Energy      =      -0.2052237662037189 [Eh]
	 SCS Opposite-Spin Energy  =      -2.1829126849982656 [Eh]
	 SCS Correlation Energy    =      -2.3881364512019845 [Eh]
	 SCS Total Energy          =    -581.0193943625644124 [Eh]
	-----------------------------------------------------------

  Dipole Moment: [D]
     X:    -0.4323      Y:    -6.5532      Z:    -0.8489     Total:     6.6220

*** Psi4 exiting successfully. Buy a developer a beer!
