                               Psi4 1.3.2 release

  ==> Input File <==

--------------------------------------------------------------------------
#psi4
#
memory 32 gb

molecule  {
0 1
  O       -1.4697740     2.5644010     0.0803940
  N        1.9191590    -0.5831280    -0.0556370
  N       -1.9102790     0.3061000     0.0485010
  N       -0.3427170    -1.4672350    -0.0387560
  N        1.5166440     1.6409000    -0.0105650
  N       -2.6294290    -1.9169300     0.1110730
  C        0.5576980    -0.4369160    -0.0295360
  C        0.3337570     0.9396730    -0.0094060
  C       -1.1162989     1.4573161     0.0382679
  C        2.4390620     0.6894910    -0.0699270
  C       -1.5730580    -1.0260450     0.0187980
  C        2.6353690    -1.8453210    -0.0655260
  H        3.5092610     0.8590810    -0.0866130
  H        2.3729340    -2.4304260     0.8177420
  H        2.3794720    -2.4140780    -0.9605130
  H        3.7041390    -1.6305860    -0.0592400
  H       -2.8879820     0.5691470     0.1693100
  H       -2.3258040    -2.8676930    -0.0642460
  H       -3.4596940    -1.6726380    -0.4173570
units angstrom
no_reorient  #important for SAPT in psi4, default
symmetry c1  #important for SAPT in psi4, default
}

set PROPERTIES_ORIGIN ["COM"]
properties('MP2/aug-cc-pvtz', properties = ['dipole'])
--------------------------------------------------------------------------

    Molecular point group: c1
  Charge       = 0
  Multiplicity = 1
  Basis Set: AUG-CC-PVTZ
    Blend: AUG-CC-PVTZ
  Basis Set: (AUG-CC-PVTZ AUX)
    Blend: AUG-CC-PVTZ-JKFIT

    Orbital Energies [Eh]
    ---------------------

    Doubly Occupied:

       1A    -20.536023     2A    -15.630229     3A    -15.625827
       4A    -15.609808     5A    -15.567465     6A    -15.553354
       7A    -11.395233     8A    -11.366694     9A    -11.305957
      10A    -11.299369    11A    -11.284490    12A    -11.244936
      13A     -1.428324    14A     -1.364294    15A     -1.336287
      16A     -1.226880    17A     -1.212677    18A     -1.184547
      19A     -1.015195    20A     -0.975782    21A     -0.898177
      22A     -0.879290    23A     -0.806917    24A     -0.759862
      25A     -0.735495    26A     -0.724890    27A     -0.692909
      28A     -0.666324    29A     -0.660298    30A     -0.638662
      31A     -0.628759    32A     -0.624782    33A     -0.588286
      34A     -0.574574    35A     -0.561835    36A     -0.553737
      37A     -0.489535    38A     -0.459637    39A     -0.444728
      40A     -0.435545    41A     -0.420812    42A     -0.386292
      43A     -0.289841

  @DF-RHF Final Energy:  -578.62137244443784

   => Energetics <=

    Nuclear Repulsion Energy =            692.9411715998850241
    One-Electron Energy =               -2162.9559719771582422
    Two-Electron Energy =                 891.3934279328354933
    Total Energy =                       -578.6213724444378386
  Basis Set: (AUG-CC-PVTZ AUX)
    Blend: AUG-CC-PVTZ-RI
    Molecular point group: c1

    Geometry (in Angstrom), charge = 0, multiplicity = 1:

       Center              X                  Y                   Z               Mass
    ------------   -----------------  -----------------  -----------------  -----------------
         O           -1.462930475354     2.561958164661     0.080169127087    15.994914619570
         N            1.926002524646    -0.585570835339    -0.055861872913    14.003074004430
         N           -1.903435475354     0.303657164661     0.048276127087    14.003074004430
         N           -0.335873475354    -1.469677835339    -0.038980872913    14.003074004430
         N            1.523487524646     1.638457164661    -0.010789872913    14.003074004430
         N           -2.622585475354    -1.919372835339     0.110848127087    14.003074004430
         C            0.564541524646    -0.439358835339    -0.029760872913    12.000000000000
         C            0.340600524646     0.937230164661    -0.009630872913    12.000000000000
         C           -1.109455375354     1.454873264661     0.038043027087    12.000000000000
         C            2.445905524646     0.687048164661    -0.070151872913    12.000000000000
         C           -1.566214475354    -1.028487835339     0.018573127087    12.000000000000
         C            2.642212524646    -1.847763835339    -0.065750872913    12.000000000000
         H            3.516104524646     0.856638164661    -0.086837872913     1.007825032230
         H            2.379777524646    -2.432868835339     0.817517127087     1.007825032230
         H            2.386315524646    -2.416520835339    -0.960737872913     1.007825032230
         H            3.710982524646    -1.633028835339    -0.059464872913     1.007825032230
         H           -2.881138475354     0.566704164661     0.169085127087     1.007825032230
         H           -2.318960475354    -2.870135835339    -0.064470872913     1.007825032230
         H           -3.452850475354    -1.675080835339    -0.417581872913     1.007825032230

  Basis Set: AUG-CC-PVTZ
    Blend: AUG-CC-PVTZ
  Basis Set: (AUG-CC-PVTZ AUX)
    Blend: AUG-CC-PVTZ-JKFIT
	 Reference Energy          =    -578.6213724444378386 [Eh]
	 Singles Energy            =      -0.0000000000000000 [Eh]
	 Same-Spin Energy          =      -0.6149077783263622 [Eh]
	 Opposite-Spin Energy      =      -1.8178072787174973 [Eh]
	 Correlation Energy        =      -2.4327150570438594 [Eh]
	 Total Energy              =    -581.0540875014817175 [Eh]

	 ================> DF-SCS-MP2 Energies <==================
	-----------------------------------------------------------
	 SCS Same-Spin Scale       =       0.3333333333333333 [-]
	 SCS Opposite-Spin Scale   =       1.2000000000000000 [-]
	 SCS Same-Spin Energy      =      -0.2049692594421207 [Eh]
	 SCS Opposite-Spin Energy  =      -2.1813687344609964 [Eh]
	 SCS Correlation Energy    =      -2.3863379939031173 [Eh]
	 SCS Total Energy          =    -581.0077104383409505 [Eh]
	-----------------------------------------------------------

  Dipole Moment: [D]
     X:    -0.6101      Y:    -6.3029      Z:    -0.9160     Total:     6.3982

*** Psi4 exiting successfully. Buy a developer a beer!
