                               Psi4 1.3.2 release

  ==> Input File <==

--------------------------------------------------------------------------
#psi4
#
memory 32 gb

molecule  {
0 1
  O       -1.4697740     2.5644010     0.0803940
  N        1.9191590    -0.5831280    -0.0556370
  N       -1.9102790     0.3061000     0.0485010
  N       -0.3673388    -1.5310506    -0.0351521
  N        1.5166440     1.6409000    -0.0105650
  N       -2.5813003    -1.9711521     0.1100693
  C        0.5576980    -0.4369160    -0.0295360
  C        0.3337570     0.9396730    -0.0094060
  C       -1.0221650     1.4237120     0.0351730
  C        2.4390620     0.6894910    -0.0699270
  C       -1.5730580    -1.0260450     0.0187980
  C        2.6353690    -1.8453210    -0.0655260
  H        3.5092610     0.8590810    -0.0866130
  H        2.3729340    -2.4304260     0.8177420
  H        2.3794720    -2.4140780    -0.9605130
  H        3.7041390    -1.6305860    -0.0592400
  H       -2.8879820     0.5691470     0.1693100
  H       -2.3258040    -2.8676930    -0.0642460
  H       -3.4596940    -1.6726380    -0.4173570
units angstrom
no_reorient  #important for SAPT in psi4, default
symmetry c1  #important for SAPT in psi4, default
}

set PROPERTIES_ORIGIN ["COM"]
properties('MP2/aug-cc-pvtz', properties = ['dipole'])
--------------------------------------------------------------------------

    Molecular point group: c1
  Charge       = 0
  Multiplicity = 1
  Basis Set: AUG-CC-PVTZ
    Blend: AUG-CC-PVTZ
  Basis Set: (AUG-CC-PVTZ AUX)
    Blend: AUG-CC-PVTZ-JKFIT

    Orbital Energies [Eh]
    ---------------------

    Doubly Occupied:

       1A    -20.525559     2A    -15.635053     3A    -15.632805
       4A    -15.604609     5A    -15.574220     6A    -15.561541
       7A    -11.393693     8A    -11.368374     9A    -11.322373
      10A    -11.308539    11A    -11.289783    12A    -11.250566
      13A     -1.391465    14A     -1.360875    15A     -1.333525
      16A     -1.224141    17A     -1.205244    18A     -1.187242
      19A     -1.030977    20A     -0.987596    21A     -0.903211
      22A     -0.877674    23A     -0.802854    24A     -0.764921
      25A     -0.741899    26A     -0.732911    27A     -0.692314
      28A     -0.669978    29A     -0.653538    30A     -0.634935
      31A     -0.617171    32A     -0.612709    33A     -0.595295
      34A     -0.577221    35A     -0.561317    36A     -0.541705
      37A     -0.496242    38A     -0.452308    39A     -0.443588
      40A     -0.433415    41A     -0.428308    42A     -0.393664
      43A     -0.303363

  @DF-RHF Final Energy:  -578.61688044106108

   => Energetics <=

    Nuclear Repulsion Energy =            691.9076980534064205
    One-Electron Energy =               -2160.8117143082490657
    Two-Electron Energy =                 890.2871358137815605
    Total Energy =                       -578.6168804410610846
  Basis Set: (AUG-CC-PVTZ AUX)
    Blend: AUG-CC-PVTZ-RI
    Molecular point group: c1

    Geometry (in Angstrom), charge = 0, multiplicity = 1:

       Center              X                  Y                   Z               Mass
    ------------   -----------------  -----------------  -----------------  -----------------
         O           -1.471768055284     2.574414706645     0.080173537511    15.994914619570
         N            1.917164944716    -0.573114293355    -0.055857462489    14.003074004430
         N           -1.912273055284     0.316113706645     0.048280537511    14.003074004430
         N           -0.369332855284    -1.521036893355    -0.035372562489    14.003074004430
         N            1.514649944716     1.650913706645    -0.010785462489    14.003074004430
         N           -2.583294355284    -1.961138393355     0.109848837511    14.003074004430
         C            0.555703944716    -0.426902293355    -0.029756462489    12.000000000000
         C            0.331762944716     0.949686706645    -0.009626462489    12.000000000000
         C           -1.024159055284     1.433725706645     0.034952537511    12.000000000000
         C            2.437067944716     0.699504706645    -0.070147462489    12.000000000000
         C           -1.575052055284    -1.016031293355     0.018577537511    12.000000000000
         C            2.633374944716    -1.835307293355    -0.065746462489    12.000000000000
         H            3.507266944716     0.869094706645    -0.086833462489     1.007825032230
         H            2.370939944716    -2.420412293355     0.817521537511     1.007825032230
         H            2.377477944716    -2.404064293355    -0.960733462489     1.007825032230
         H            3.702144944716    -1.620572293355    -0.059460462489     1.007825032230
         H           -2.889976055284     0.579160706645     0.169089537511     1.007825032230
         H           -2.327798055284    -2.857679293355    -0.064466462489     1.007825032230
         H           -3.461688055284    -1.662624293355    -0.417577462489     1.007825032230

  Basis Set: AUG-CC-PVTZ
    Blend: AUG-CC-PVTZ
  Basis Set: (AUG-CC-PVTZ AUX)
    Blend: AUG-CC-PVTZ-JKFIT
	 Reference Energy          =    -578.6168804410610846 [Eh]
	 Singles Energy            =      -0.0000000000000000 [Eh]
	 Same-Spin Energy          =      -0.6158386011458209 [Eh]
	 Opposite-Spin Energy      =      -1.8211286829517441 [Eh]
	 Correlation Energy        =      -2.4369672840975651 [Eh]
	 Total Energy              =    -581.0538477251586755 [Eh]

	 ================> DF-SCS-MP2 Energies <==================
	-----------------------------------------------------------
	 SCS Same-Spin Scale       =       0.3333333333333333 [-]
	 SCS Opposite-Spin Scale   =       1.2000000000000000 [-]
	 SCS Same-Spin Energy      =      -0.2052795337152736 [Eh]
	 SCS Opposite-Spin Energy  =      -2.1853544195420929 [Eh]
	 SCS Correlation Energy    =      -2.3906339532573666 [Eh]
	 SCS Total Energy          =    -581.0075143943184912 [Eh]
	-----------------------------------------------------------

  Dipole Moment: [D]
     X:     0.0368      Y:    -6.4865      Z:    -0.9183     Total:     6.5513

*** Psi4 exiting successfully. Buy a developer a beer!
