                               Psi4 1.3.2 release

  ==> Input File <==

--------------------------------------------------------------------------
#psi4
#
memory 32 gb

molecule  {
0 1
  O       -1.4697740     2.5644010     0.0803940
  N        1.9191590    -0.5831280    -0.0556370
  N       -1.9102790     0.3061000     0.0485010
  N       -0.3427170    -1.4672350    -0.0387560
  N        1.5166440     1.6409000    -0.0105650
  N       -2.6294290    -1.9169300     0.1110730
  C        0.5576980    -0.4369160    -0.0295360
  C        0.3658671     0.7422886    -0.0122924
  C       -1.0221650     1.4237120     0.0351730
  C        2.4390620     0.6894910    -0.0699270
  C       -1.5730580    -1.0260450     0.0187980
  C        2.6353690    -1.8453210    -0.0655260
  H        3.5092610     0.8590810    -0.0866130
  H        2.3729340    -2.4304260     0.8177420
  H        2.3794720    -2.4140780    -0.9605130
  H        3.7041390    -1.6305860    -0.0592400
  H       -2.8879820     0.5691470     0.1693100
  H       -2.3258040    -2.8676930    -0.0642460
  H       -3.4596940    -1.6726380    -0.4173570
units angstrom
no_reorient  #important for SAPT in psi4, default
symmetry c1  #important for SAPT in psi4, default
}

set PROPERTIES_ORIGIN ["COM"]
properties('MP2/aug-cc-pvtz', properties = ['dipole'])
--------------------------------------------------------------------------

    Molecular point group: c1
  Charge       = 0
  Multiplicity = 1
  Basis Set: AUG-CC-PVTZ
    Blend: AUG-CC-PVTZ
  Basis Set: (AUG-CC-PVTZ AUX)
    Blend: AUG-CC-PVTZ-JKFIT

    Orbital Energies [Eh]
    ---------------------

    Doubly Occupied:

       1A    -20.541159     2A    -15.626836     3A    -15.617774
       4A    -15.608461     5A    -15.563722     6A    -15.558014
       7A    -11.393328     8A    -11.380241     9A    -11.309542
      10A    -11.286157    11A    -11.282701    12A    -11.236658
      13A     -1.397417    14A     -1.369084    15A     -1.334028
      16A     -1.219435    17A     -1.211293    18A     -1.175754
      19A     -1.056121    20A     -0.972368    21A     -0.894404
      22A     -0.878599    23A     -0.816250    24A     -0.780380
      25A     -0.726838    26A     -0.721468    27A     -0.691210
      28A     -0.673879    29A     -0.654876    30A     -0.636312
      31A     -0.625705    32A     -0.619981    33A     -0.575735
      34A     -0.562014    35A     -0.558033    36A     -0.543975
      37A     -0.488365    38A     -0.458566    39A     -0.447903
      40A     -0.434460    41A     -0.431081    42A     -0.380667
      43A     -0.327034

  @DF-RHF Final Energy:  -578.57054378440648

   => Energetics <=

    Nuclear Repulsion Energy =            695.8174015387727422
    One-Electron Energy =               -2168.6402345990231879
    Two-Electron Energy =                 894.2522892758440776
    Total Energy =                       -578.5705437844064818
  Basis Set: (AUG-CC-PVTZ AUX)
    Blend: AUG-CC-PVTZ-RI
    Molecular point group: c1

    Geometry (in Angstrom), charge = 0, multiplicity = 1:

       Center              X                  Y                   Z               Mass
    ------------   -----------------  -----------------  -----------------  -----------------
         O           -1.472108238360     2.578750706960     0.080603959268    15.994914619570
         N            1.916824761640    -0.568778293040    -0.055427040732    14.003074004430
         N           -1.912613238360     0.320449706960     0.048710959268    14.003074004430
         N           -0.345051238360    -1.452885293040    -0.038546040732    14.003074004430
         N            1.514309761640     1.655249706960    -0.010355040732    14.003074004430
         N           -2.631763238360    -1.902580293040     0.111282959268    14.003074004430
         C            0.555363761640    -0.422566293040    -0.029326040732    12.000000000000
         C            0.363532861640     0.756638306960    -0.012082440732    12.000000000000
         C           -1.024499238360     1.438061706960     0.035382959268    12.000000000000
         C            2.436727761640     0.703840706960    -0.069717040732    12.000000000000
         C           -1.575392238360    -1.011695293040     0.019007959268    12.000000000000
         C            2.633034761640    -1.830971293040    -0.065316040732    12.000000000000
         H            3.506926761640     0.873430706960    -0.086403040732     1.007825032230
         H            2.370599761640    -2.416076293040     0.817951959268     1.007825032230
         H            2.377137761640    -2.399728293040    -0.960303040732     1.007825032230
         H            3.701804761640    -1.616236293040    -0.059030040732     1.007825032230
         H           -2.890316238360     0.583496706960     0.169519959268     1.007825032230
         H           -2.328138238360    -2.853343293040    -0.064036040732     1.007825032230
         H           -3.462028238360    -1.658288293040    -0.417147040732     1.007825032230

  Basis Set: AUG-CC-PVTZ
    Blend: AUG-CC-PVTZ
  Basis Set: (AUG-CC-PVTZ AUX)
    Blend: AUG-CC-PVTZ-JKFIT
	 Reference Energy          =    -578.5705437844064818 [Eh]
	 Singles Energy            =      -0.0000000000000000 [Eh]
	 Same-Spin Energy          =      -0.6134865155791649 [Eh]
	 Opposite-Spin Energy      =      -1.8191757720448267 [Eh]
	 Correlation Energy        =      -2.4326622876239918 [Eh]
	 Total Energy              =    -581.0032060720304798 [Eh]

	 ================> DF-SCS-MP2 Energies <==================
	-----------------------------------------------------------
	 SCS Same-Spin Scale       =       0.3333333333333333 [-]
	 SCS Opposite-Spin Scale   =       1.2000000000000000 [-]
	 SCS Same-Spin Energy      =      -0.2044955051930550 [Eh]
	 SCS Opposite-Spin Energy  =      -2.1830109264537918 [Eh]
	 SCS Correlation Energy    =      -2.3875064316468468 [Eh]
	 SCS Total Energy          =    -580.9580502160533797 [Eh]
	-----------------------------------------------------------

  Dipole Moment: [D]
     X:    -0.4582      Y:    -6.3308      Z:    -0.9177     Total:     6.4133

*** Psi4 exiting successfully. Buy a developer a beer!
