                               Psi4 1.4a3.dev225

  ==> Input File <==

--------------------------------------------------------------------------
#psi4
#
memory 32 gb

molecule  {
0 1
  O        1.6617960     2.5152110     0.0229320
  N       -1.9329240    -0.4005880    -0.0147920
  N        1.9545050     0.2323110     0.0113410
  N        0.2669280    -1.4301930    -0.0208730
  N       -1.3834780     1.7915450    -0.0193170
  N        2.5221760    -2.0364130     0.0734370
  C       -0.5634760    -0.3442740    -0.0026930
  C       -0.2488450     1.0144850    -0.0147620
  C        1.1380320     1.4076430     0.0031510
  C       -2.3683130     0.9036150    -0.0164120
  C        1.5275980    -1.0721200    -0.0057920
  C       -2.7322540    -1.6127190     0.0339130
  H       -3.4247340     1.1445090    -0.0228960
  H       -2.2735910    -2.3629350    -0.6109560
  H       -2.7853950    -1.9995380     1.0543320
  H       -3.7366260    -1.3828770    -0.3245450
  H        2.9663338     0.4340880     0.1195695
  H        2.1372730    -2.9631930    -0.0801050
  H        3.3349710    -1.8642740    -0.5097710
units angstrom
no_reorient  #important for SAPT in psi4, default
symmetry c1  #important for SAPT in psi4, default
}

set PROPERTIES_ORIGIN ["COM"]
properties('MP2/aug-cc-pvtz', properties = ['dipole'])
--------------------------------------------------------------------------

    Molecular point group: c1
  Charge       = 0
  Multiplicity = 1
  Basis Set: AUG-CC-PVTZ
    Blend: AUG-CC-PVTZ
  Basis Set: (AUG-CC-PVTZ AUX)
    Blend: AUG-CC-PVTZ-JKFIT

    Orbital Energies [Eh]
    ---------------------

    Doubly Occupied:

       1A    -20.521297     2A    -15.632715     3A    -15.631042
       4A    -15.610597     5A    -15.571021     6A    -15.559943
       7A    -11.395952     8A    -11.364885     9A    -11.319571
      10A    -11.307034    11A    -11.289100    12A    -11.247259
      13A     -1.390324    14A     -1.360527    15A     -1.333399
      16A     -1.217850    17A     -1.215352    18A     -1.189843
      19A     -1.029008    20A     -0.985865    21A     -0.900628
      22A     -0.880957    23A     -0.806853    24A     -0.765993
      25A     -0.738294    26A     -0.728007    27A     -0.690988
      28A     -0.670599    29A     -0.649404    30A     -0.641512
      31A     -0.625077    32A     -0.610635    33A     -0.593901
      34A     -0.578250    35A     -0.561098    36A     -0.541434
      37A     -0.492955    38A     -0.460254    39A     -0.440048
      40A     -0.429425    41A     -0.428979    42A     -0.392746
      43A     -0.298508

  @DF-RHF Final Energy:  -578.62947078183481

   => Energetics <=

    Nuclear Repulsion Energy =            693.0369372200713087
    One-Electron Energy =               -2163.1345616261633040
    Two-Electron Energy =                 891.4681536242572975
    Total Energy =                       -578.6294707818348115
  Basis Set: (AUG-CC-PVTZ AUX)
    Blend: AUG-CC-PVTZ-RI
    Molecular point group: c1

    Geometry (in Angstrom), charge = 0, multiplicity = 1:

       Center              X                  Y                   Z               Mass
    ------------   -----------------  -----------------  -----------------  -----------------
         O            1.638852842188     2.461213220507     0.020656594131    15.994914619570
         N           -1.955867157812    -0.454585779493    -0.017067405869    14.003074004430
         N            1.931561842188     0.178313220507     0.009065594131    14.003074004430
         N            0.243984842188    -1.484190779493    -0.023148405869    14.003074004430
         N           -1.406421157812     1.737547220507    -0.021592405869    14.003074004430
         N            2.499232842188    -2.090410779493     0.071161594131    14.003074004430
         C           -0.586419157812    -0.398271779493    -0.004968405869    12.000000000000
         C           -0.271788157812     0.960487220507    -0.017037405869    12.000000000000
         C            1.115088842188     1.353645220507     0.000875594131    12.000000000000
         C           -2.391256157812     0.849617220507    -0.018687405869    12.000000000000
         C            1.504654842188    -1.126117779493    -0.008067405869    12.000000000000
         C           -2.755197157812    -1.666716779493     0.031637594131    12.000000000000
         H           -3.447677157812     1.090511220507    -0.025171405869     1.007825032230
         H           -2.296534157812    -2.416932779493    -0.613231405869     1.007825032230
         H           -2.808338157812    -2.053535779493     1.052056594131     1.007825032230
         H           -3.759569157812    -1.436874779493    -0.326820405869     1.007825032230
         H            2.943390642188     0.380090220507     0.117294094131     1.007825032230
         H            2.114329842188    -3.017190779493    -0.082380405869     1.007825032230
         H            3.312027842188    -1.918271779493    -0.512046405869     1.007825032230

  Basis Set: AUG-CC-PVTZ
    Blend: AUG-CC-PVTZ
  Basis Set: (AUG-CC-PVTZ AUX)
    Blend: AUG-CC-PVTZ-JKFIT
	 Reference Energy          =    -578.6294707818348115 [Eh]
	 Singles Energy            =      -0.0000000000000000 [Eh]
	 Same-Spin Energy          =      -0.6162549878523392 [Eh]
	 Opposite-Spin Energy      =      -1.8201934852225059 [Eh]
	 Correlation Energy        =      -2.4364484730748450 [Eh]
	 Total Energy              =    -581.0659192549096588 [Eh]

	 ================> DF-SCS-MP2 Energies <==================
	-----------------------------------------------------------
	 SCS Same-Spin Scale       =       0.3333333333333333 [-]
	 SCS Opposite-Spin Scale   =       1.2000000000000000 [-]
	 SCS Same-Spin Energy      =      -0.2054183292841131 [Eh]
	 SCS Opposite-Spin Energy  =      -2.1842321822670070 [Eh]
	 SCS Correlation Energy    =      -2.3896505115511202 [Eh]
	 SCS Total Energy          =    -581.0191212933859788 [Eh]
	-----------------------------------------------------------

  Dipole Moment: [D]
     X:    -0.5028      Y:    -6.7424      Z:    -0.8481     Total:     6.8142

*** Psi4 exiting successfully. Buy a developer a beer!
