                               Psi4 1.3.2 release

  ==> Input File <==

--------------------------------------------------------------------------
#psi4
#
memory 32 gb

molecule  {
0 1
  O       -1.4697740     2.5644010     0.0803940
  N        1.9191590    -0.5831280    -0.0556370
  N       -1.9102790     0.3061000     0.0485010
  N       -0.3427170    -1.4672350    -0.0387560
  N        1.4839533     1.6081176    -0.0111865
  N       -2.6294290    -1.9169300     0.1110730
  C        0.5576980    -0.4369160    -0.0295360
  C        0.3337570     0.9396730    -0.0094060
  C       -1.0221650     1.4237120     0.0351730
  C        2.4390620     0.6894910    -0.0699270
  C       -1.5730580    -1.0260450     0.0187980
  C        2.6353690    -1.8453210    -0.0655260
  H        3.5144974     0.8216558    -0.0882624
  H        2.3729340    -2.4304260     0.8177420
  H        2.3794720    -2.4140780    -0.9605130
  H        3.7041390    -1.6305860    -0.0592400
  H       -2.8879820     0.5691470     0.1693100
  H       -2.3258040    -2.8676930    -0.0642460
  H       -3.4596940    -1.6726380    -0.4173570
units angstrom
no_reorient  #important for SAPT in psi4, default
symmetry c1  #important for SAPT in psi4, default
}

set PROPERTIES_ORIGIN ["COM"]
properties('MP2/aug-cc-pvtz', properties = ['dipole'])
--------------------------------------------------------------------------

    Molecular point group: c1
  Charge       = 0
  Multiplicity = 1
  Basis Set: AUG-CC-PVTZ
    Blend: AUG-CC-PVTZ
  Basis Set: (AUG-CC-PVTZ AUX)
    Blend: AUG-CC-PVTZ-JKFIT

    Orbital Energies [Eh]
    ---------------------

    Doubly Occupied:

       1A    -20.522047     2A    -15.632348     3A    -15.628976
       4A    -15.609745     5A    -15.569443     6A    -15.554826
       7A    -11.394572     8A    -11.364645     9A    -11.315604
      10A    -11.305571    11A    -11.288833    12A    -11.244489
      13A     -1.391708    14A     -1.362865    15A     -1.334495
      16A     -1.219239    17A     -1.217465    18A     -1.194477
      19A     -1.027362    20A     -0.988142    21A     -0.903269
      22A     -0.881051    23A     -0.808990    24A     -0.767526
      25A     -0.743623    26A     -0.729003    27A     -0.691940
      28A     -0.671296    29A     -0.649050    30A     -0.640988
      31A     -0.626153    32A     -0.611004    33A     -0.604206
      34A     -0.578156    35A     -0.563220    36A     -0.541551
      37A     -0.492668    38A     -0.458772    39A     -0.440707
      40A     -0.428817    41A     -0.424215    42A     -0.396171
      43A     -0.294525

  @DF-RHF Final Energy:  -578.62924581256880

   => Energetics <=

    Nuclear Repulsion Energy =            694.8512951029123315
    One-Electron Energy =               -2166.7335787493466341
    Two-Electron Energy =                 893.2530378338653918
    Total Energy =                       -578.6292458125687972
  Basis Set: (AUG-CC-PVTZ AUX)
    Blend: AUG-CC-PVTZ-RI
    Molecular point group: c1

    Geometry (in Angstrom), charge = 0, multiplicity = 1:

       Center              X                  Y                   Z               Mass
    ------------   -----------------  -----------------  -----------------  -----------------
         O           -1.467032578392     2.567410691243     0.080456916745    15.994914619570
         N            1.921900421608    -0.580118308757    -0.055574083255    14.003074004430
         N           -1.907537578392     0.309109691243     0.048563916745    14.003074004430
         N           -0.339975578392    -1.464225308757    -0.038693083255    14.003074004430
         N            1.486694721608     1.611127291243    -0.011123583255    14.003074004430
         N           -2.626687578392    -1.913920308757     0.111135916745    14.003074004430
         C            0.560439421608    -0.433906308757    -0.029473083255    12.000000000000
         C            0.336498421608     0.942682691243    -0.009343083255    12.000000000000
         C           -1.019423578392     1.426721691243     0.035235916745    12.000000000000
         C            2.441803421608     0.692500691243    -0.069864083255    12.000000000000
         C           -1.570316578392    -1.023035308757     0.018860916745    12.000000000000
         C            2.638110421608    -1.842311308757    -0.065463083255    12.000000000000
         H            3.517238821608     0.824665491243    -0.088199483255     1.007825032230
         H            2.375675421608    -2.427416308757     0.817804916745     1.007825032230
         H            2.382213421608    -2.411068308757    -0.960450083255     1.007825032230
         H            3.706880421608    -1.627576308757    -0.059177083255     1.007825032230
         H           -2.885240578392     0.572156691243     0.169372916745     1.007825032230
         H           -2.323062578392    -2.864683308757    -0.064183083255     1.007825032230
         H           -3.456952578392    -1.669628308757    -0.417294083255     1.007825032230

  Basis Set: AUG-CC-PVTZ
    Blend: AUG-CC-PVTZ
  Basis Set: (AUG-CC-PVTZ AUX)
    Blend: AUG-CC-PVTZ-JKFIT
	 Reference Energy          =    -578.6292458125687972 [Eh]
	 Singles Energy            =      -0.0000000000000000 [Eh]
	 Same-Spin Energy          =      -0.6166431115795742 [Eh]
	 Opposite-Spin Energy      =      -1.8196622685311588 [Eh]
	 Correlation Energy        =      -2.4363053801107331 [Eh]
	 Total Energy              =    -581.0655511926795498 [Eh]

	 ================> DF-SCS-MP2 Energies <==================
	-----------------------------------------------------------
	 SCS Same-Spin Scale       =       0.3333333333333333 [-]
	 SCS Opposite-Spin Scale   =       1.2000000000000000 [-]
	 SCS Same-Spin Energy      =      -0.2055477038598580 [Eh]
	 SCS Opposite-Spin Energy  =      -2.1835947222373906 [Eh]
	 SCS Correlation Energy    =      -2.3891424260972487 [Eh]
	 SCS Total Energy          =    -581.0183882386660343 [Eh]
	-----------------------------------------------------------

  Dipole Moment: [D]
     X:     0.0488      Y:    -6.7185      Z:    -0.9385     Total:     6.7839

*** Psi4 exiting successfully. Buy a developer a beer!
