                               Psi4 1.3.2 release

  ==> Input File <==

--------------------------------------------------------------------------
#psi4
#
memory 32 gb

molecule  {
0 1
  O       -1.4697740     2.5644010     0.0803940
  N        1.9414129    -0.5920076    -0.0569200
  N       -1.9102790     0.3061000     0.0485010
  N       -0.3427170    -1.4672350    -0.0387560
  N        1.5333753     1.6568850    -0.0112895
  N       -2.6294290    -1.9169300     0.1110730
  C        0.5576980    -0.4369160    -0.0295360
  C        0.3337570     0.9396730    -0.0094060
  C       -1.0221650     1.4237120     0.0351730
  C        2.4390620     0.6894910    -0.0699270
  C       -1.5730580    -1.0260450     0.0187980
  C        2.6353690    -1.8453210    -0.0655260
  H        3.5092610     0.8590810    -0.0866130
  H        2.3729340    -2.4304260     0.8177420
  H        2.3794720    -2.4140780    -0.9605130
  H        3.7041390    -1.6305860    -0.0592400
  H       -2.8879820     0.5691470     0.1693100
  H       -2.3258040    -2.8676930    -0.0642460
  H       -3.4596940    -1.6726380    -0.4173570
units angstrom
no_reorient  #important for SAPT in psi4, default
symmetry c1  #important for SAPT in psi4, default
}

set PROPERTIES_ORIGIN ["COM"]
properties('MP2/aug-cc-pvtz', properties = ['dipole'])
--------------------------------------------------------------------------

    Molecular point group: c1
  Charge       = 0
  Multiplicity = 1
  Basis Set: AUG-CC-PVTZ
    Blend: AUG-CC-PVTZ
  Basis Set: (AUG-CC-PVTZ AUX)
    Blend: AUG-CC-PVTZ-JKFIT

    Orbital Energies [Eh]
    ---------------------

    Doubly Occupied:

       1A    -20.521324     2A    -15.632552     3A    -15.630285
       4A    -15.611385     5A    -15.572265     6A    -15.562011
       7A    -11.397056     8A    -11.365140     9A    -11.322939
      10A    -11.309871    11A    -11.287604    12A    -11.250122
      13A     -1.390414    14A     -1.357491    15A     -1.333601
      16A     -1.219897    17A     -1.215788    18A     -1.191239
      19A     -1.029425    20A     -0.986320    21A     -0.900835
      22A     -0.882890    23A     -0.807450    24A     -0.766520
      25A     -0.739775    26A     -0.729064    27A     -0.692638
      28A     -0.670719    29A     -0.653638    30A     -0.642198
      31A     -0.627658    32A     -0.612239    33A     -0.588841
      34A     -0.573820    35A     -0.558612    36A     -0.541294
      37A     -0.495495    38A     -0.459937    39A     -0.440422
      40A     -0.431296    41A     -0.429860    42A     -0.390999
      43A     -0.300380

  @DF-RHF Final Energy:  -578.62820639816869

   => Energetics <=

    Nuclear Repulsion Energy =            692.3420452958071110
    One-Electron Energy =               -2161.6938933886644918
    Two-Electron Energy =                 890.7236416946886948
    Total Energy =                       -578.6282063981686861
  Basis Set: (AUG-CC-PVTZ AUX)
    Blend: AUG-CC-PVTZ-RI
    Molecular point group: c1

    Geometry (in Angstrom), charge = 0, multiplicity = 1:

       Center              X                  Y                   Z               Mass
    ------------   -----------------  -----------------  -----------------  -----------------
         O           -1.473081136202     2.563798358814     0.080564425590    15.994914619570
         N            1.938105763798    -0.592610241186    -0.056749574410    14.003074004430
         N           -1.913586136202     0.305497358814     0.048671425590    14.003074004430
         N           -0.346024136202    -1.467837641186    -0.038585574410    14.003074004430
         N            1.530068163798     1.656282358814    -0.011119074410    14.003074004430
         N           -2.632736136202    -1.917532641186     0.111243425590    14.003074004430
         C            0.554390863798    -0.437518641186    -0.029365574410    12.000000000000
         C            0.330449863798     0.939070358814    -0.009235574410    12.000000000000
         C           -1.025472136202     1.423109358814     0.035343425590    12.000000000000
         C            2.435754863798     0.688888358814    -0.069756574410    12.000000000000
         C           -1.576365136202    -1.026647641186     0.018968425590    12.000000000000
         C            2.632061863798    -1.845923641186    -0.065355574410    12.000000000000
         H            3.505953863798     0.858478358814    -0.086442574410     1.007825032230
         H            2.369626863798    -2.431028641186     0.817912425590     1.007825032230
         H            2.376164863798    -2.414680641186    -0.960342574410     1.007825032230
         H            3.700831863798    -1.631188641186    -0.059069574410     1.007825032230
         H           -2.891289136202     0.568544358814     0.169480425590     1.007825032230
         H           -2.329111136202    -2.868295641186    -0.064075574410     1.007825032230
         H           -3.463001136202    -1.673240641186    -0.417186574410     1.007825032230

  Basis Set: AUG-CC-PVTZ
    Blend: AUG-CC-PVTZ
  Basis Set: (AUG-CC-PVTZ AUX)
    Blend: AUG-CC-PVTZ-JKFIT
	 Reference Energy          =    -578.6282063981686861 [Eh]
	 Singles Energy            =      -0.0000000000000000 [Eh]
	 Same-Spin Energy          =      -0.6160439585238950 [Eh]
	 Opposite-Spin Energy      =      -1.8204997085074359 [Eh]
	 Correlation Energy        =      -2.4365436670313310 [Eh]
	 Total Energy              =    -581.0647500651999735 [Eh]

	 ================> DF-SCS-MP2 Energies <==================
	-----------------------------------------------------------
	 SCS Same-Spin Scale       =       0.3333333333333333 [-]
	 SCS Opposite-Spin Scale   =       1.2000000000000000 [-]
	 SCS Same-Spin Energy      =      -0.2053479861746317 [Eh]
	 SCS Opposite-Spin Energy  =      -2.1845996502089231 [Eh]
	 SCS Correlation Energy    =      -2.3899476363835550 [Eh]
	 SCS Total Energy          =    -581.0181540345522535 [Eh]
	-----------------------------------------------------------

  Dipole Moment: [D]
     X:    -0.1199      Y:    -6.7862      Z:    -0.9339     Total:     6.8512

*** Psi4 exiting successfully. Buy a developer a beer!
