                               Psi4 1.3.2 release

  ==> Input File <==

--------------------------------------------------------------------------
#psi4
#
memory 32 gb

molecule  {
0 1
  O       -1.4697740     2.5644010     0.0803940
  N        1.9191590    -0.5831280    -0.0556370
  N       -1.9102790     0.3061000     0.0485010
  N       -0.3427170    -1.4672350    -0.0387560
  N        1.5166440     1.6409000    -0.0105650
  N       -2.6294290    -1.9169300     0.1110730
  C        0.5576980    -0.4369160    -0.0295360
  C        0.3337570     0.9396730    -0.0094060
  C       -1.0221650     1.4237120     0.0351730
  C        2.4390620     0.6894910    -0.0699270
  C       -1.5730580    -1.0260450     0.0187980
  C        2.6353690    -1.8453210    -0.0655260
  H        3.6080169     0.8747304    -0.0881528
  H        2.3729340    -2.4304260     0.8177420
  H        2.3794720    -2.4140780    -0.9605130
  H        3.7041390    -1.6305860    -0.0592400
  H       -2.8879820     0.5691470     0.1693100
  H       -2.3258040    -2.8676930    -0.0642460
  H       -3.4596940    -1.6726380    -0.4173570
units angstrom
no_reorient  #important for SAPT in psi4, default
symmetry c1  #important for SAPT in psi4, default
}

set PROPERTIES_ORIGIN ["COM"]
properties('MP2/aug-cc-pvtz', properties = ['dipole'])
--------------------------------------------------------------------------

    Molecular point group: c1
  Charge       = 0
  Multiplicity = 1
  Basis Set: AUG-CC-PVTZ
    Blend: AUG-CC-PVTZ
  Basis Set: (AUG-CC-PVTZ AUX)
    Blend: AUG-CC-PVTZ-JKFIT

    Orbital Energies [Eh]
    ---------------------

    Doubly Occupied:

       1A    -20.521033     2A    -15.633798     3A    -15.629501
       4A    -15.610814     5A    -15.571108     6A    -15.560208
       7A    -11.396230     8A    -11.364521     9A    -11.319607
      10A    -11.317700    11A    -11.289212    12A    -11.247540
      13A     -1.390907    14A     -1.360908    15A     -1.334206
      16A     -1.219233    17A     -1.216433    18A     -1.191115
      19A     -1.027915    20A     -0.986403    21A     -0.898301
      22A     -0.881630    23A     -0.802440    24A     -0.767039
      25A     -0.741438    26A     -0.724622    27A     -0.690818
      28A     -0.671108    29A     -0.649469    30A     -0.638620
      31A     -0.626501    32A     -0.610673    33A     -0.581715
      34A     -0.577665    35A     -0.561233    36A     -0.541761
      37A     -0.493811    38A     -0.459458    39A     -0.439757
      40A     -0.429541    41A     -0.428982    42A     -0.393237
      43A     -0.298610

  @DF-RHF Final Energy:  -578.62304753000956

   => Energetics <=

    Nuclear Repulsion Energy =            692.9120577466561599
    One-Electron Energy =               -2162.8765714700252829
    Two-Electron Energy =                 891.3414661933596790
    Total Energy =                       -578.6230475300095577
  Basis Set: (AUG-CC-PVTZ AUX)
    Blend: AUG-CC-PVTZ-RI
    Molecular point group: c1

    Geometry (in Angstrom), charge = 0, multiplicity = 1:

       Center              X                  Y                   Z               Mass
    ------------   -----------------  -----------------  -----------------  -----------------
         O           -1.470376845101     2.564305586600     0.080403523446    15.994914619570
         N            1.918556154899    -0.583223413400    -0.055627476554    14.003074004430
         N           -1.910881845101     0.306004586600     0.048510523446    14.003074004430
         N           -0.343319845101    -1.467330413400    -0.038746476554    14.003074004430
         N            1.516041154899     1.640804586600    -0.010555476554    14.003074004430
         N           -2.630031845101    -1.917025413400     0.111082523446    14.003074004430
         C            0.557095154899    -0.437011413400    -0.029526476554    12.000000000000
         C            0.333154154899     0.939577586600    -0.009396476554    12.000000000000
         C           -1.022767845101     1.423616586600     0.035182523446    12.000000000000
         C            2.438459154899     0.689395586600    -0.069917476554    12.000000000000
         C           -1.573660845101    -1.026140413400     0.018807523446    12.000000000000
         C            2.634766154899    -1.845416413400    -0.065516476554    12.000000000000
         H            3.607414054899     0.874634986600    -0.088143276554     1.007825032230
         H            2.372331154899    -2.430521413400     0.817751523446     1.007825032230
         H            2.378869154899    -2.414173413400    -0.960503476554     1.007825032230
         H            3.703536154899    -1.630681413400    -0.059230476554     1.007825032230
         H           -2.888584845101     0.569051586600     0.169319523446     1.007825032230
         H           -2.326406845101    -2.867788413400    -0.064236476554     1.007825032230
         H           -3.460296845101    -1.672733413400    -0.417347476554     1.007825032230

  Basis Set: AUG-CC-PVTZ
    Blend: AUG-CC-PVTZ
  Basis Set: (AUG-CC-PVTZ AUX)
    Blend: AUG-CC-PVTZ-JKFIT
	 Reference Energy          =    -578.6230475300095577 [Eh]
	 Singles Energy            =      -0.0000000000000000 [Eh]
	 Same-Spin Energy          =      -0.6163884802441006 [Eh]
	 Opposite-Spin Energy      =      -1.8207820255145162 [Eh]
	 Correlation Energy        =      -2.4371705057586168 [Eh]
	 Total Energy              =    -581.0602180357682300 [Eh]

	 ================> DF-SCS-MP2 Energies <==================
	-----------------------------------------------------------
	 SCS Same-Spin Scale       =       0.3333333333333333 [-]
	 SCS Opposite-Spin Scale   =       1.2000000000000000 [-]
	 SCS Same-Spin Energy      =      -0.2054628267480335 [Eh]
	 SCS Opposite-Spin Energy  =      -2.1849384306174193 [Eh]
	 SCS Correlation Energy    =      -2.3904012573654527 [Eh]
	 SCS Total Energy          =    -581.0134487873749549 [Eh]
	-----------------------------------------------------------

  Dipole Moment: [D]
     X:    -0.0220      Y:    -6.7799      Z:    -0.9368     Total:     6.8443

*** Psi4 exiting successfully. Buy a developer a beer!
