                               Psi4 1.3.2 release

  ==> Input File <==

--------------------------------------------------------------------------
#psi4
#
memory 32 gb

molecule  {
0 1
  O       -1.4697740     2.5644010     0.0803940
  N        1.9191590    -0.5831280    -0.0556370
  N       -1.9218470     0.3030951     0.0495125
  N       -0.3427170    -1.4672350    -0.0387560
  N        1.5166440     1.6409000    -0.0105650
  N       -2.6371334    -1.9076425     0.1117484
  C        0.5576980    -0.4369160    -0.0295360
  C        0.3337570     0.9396730    -0.0094060
  C       -1.0221650     1.4237120     0.0351730
  C        2.4390620     0.6894910    -0.0699270
  C       -1.5730580    -1.0260450     0.0187980
  C        2.6353690    -1.8453210    -0.0655260
  H        3.5092610     0.8590810    -0.0866130
  H        2.3729340    -2.4304260     0.8177420
  H        2.3794720    -2.4140780    -0.9605130
  H        3.7041390    -1.6305860    -0.0592400
  H       -2.8879820     0.5691470     0.1693100
  H       -2.3258040    -2.8676930    -0.0642460
  H       -3.4596940    -1.6726380    -0.4173570
units angstrom
no_reorient  #important for SAPT in psi4, default
symmetry c1  #important for SAPT in psi4, default
}

set PROPERTIES_ORIGIN ["COM"]
properties('MP2/aug-cc-pvtz', properties = ['dipole'])
--------------------------------------------------------------------------

    Molecular point group: c1
  Charge       = 0
  Multiplicity = 1
  Basis Set: AUG-CC-PVTZ
    Blend: AUG-CC-PVTZ
  Basis Set: (AUG-CC-PVTZ AUX)
    Blend: AUG-CC-PVTZ-JKFIT

    Orbital Energies [Eh]
    ---------------------

    Doubly Occupied:

       1A    -20.521628     2A    -15.633208     3A    -15.627714
       4A    -15.610152     5A    -15.571351     6A    -15.559968
       7A    -11.395972     8A    -11.365004     9A    -11.319712
      10A    -11.307544    11A    -11.289594    12A    -11.247388
      13A     -1.390157    14A     -1.360844    15A     -1.334018
      16A     -1.217259    17A     -1.216793    18A     -1.191110
      19A     -1.029324    20A     -0.986690    21A     -0.901354
      22A     -0.881512    23A     -0.807961    24A     -0.767367
      25A     -0.742917    26A     -0.729533    27A     -0.689331
      28A     -0.671086    29A     -0.649111    30A     -0.642758
      31A     -0.626310    32A     -0.610313    33A     -0.594445
      34A     -0.578815    35A     -0.561292    36A     -0.541107
      37A     -0.494260    38A     -0.459286    39A     -0.440008
      40A     -0.429548    41A     -0.429044    42A     -0.393062
      43A     -0.298663

  @DF-RHF Final Energy:  -578.63044405867447

   => Energetics <=

    Nuclear Repulsion Energy =            693.2145528432686206
    One-Electron Energy =               -2163.4609688760306199
    Two-Electron Energy =                 891.6159719740875289
    Total Energy =                       -578.6304440586744704
  Basis Set: (AUG-CC-PVTZ AUX)
    Blend: AUG-CC-PVTZ-RI
    Molecular point group: c1

    Geometry (in Angstrom), charge = 0, multiplicity = 1:

       Center              X                  Y                   Z               Mass
    ------------   -----------------  -----------------  -----------------  -----------------
         O           -1.468138930476     2.563868159953     0.080251016098    15.994914619570
         N            1.920794069524    -0.583660840047    -0.055779983902    14.003074004430
         N           -1.920211930476     0.302562259953     0.049369516098    14.003074004430
         N           -0.341081930476    -1.467767840047    -0.038898983902    14.003074004430
         N            1.518279069524     1.640367159953    -0.010707983902    14.003074004430
         N           -2.635498330476    -1.908175340047     0.111605416098    14.003074004430
         C            0.559333069524    -0.437448840047    -0.029678983902    12.000000000000
         C            0.335392069524     0.939140159953    -0.009548983902    12.000000000000
         C           -1.020529930476     1.423179159953     0.035030016098    12.000000000000
         C            2.440697069524     0.688958159953    -0.070069983902    12.000000000000
         C           -1.571422930476    -1.026577840047     0.018655016098    12.000000000000
         C            2.637004069524    -1.845853840047    -0.065668983902    12.000000000000
         H            3.510896069524     0.858548159953    -0.086755983902     1.007825032230
         H            2.374569069524    -2.430958840047     0.817599016098     1.007825032230
         H            2.381107069524    -2.414610840047    -0.960655983902     1.007825032230
         H            3.705774069524    -1.631118840047    -0.059382983902     1.007825032230
         H           -2.886346930476     0.568614159953     0.169167016098     1.007825032230
         H           -2.324168930476    -2.868225840047    -0.064388983902     1.007825032230
         H           -3.458058930476    -1.673170840047    -0.417499983902     1.007825032230

  Basis Set: AUG-CC-PVTZ
    Blend: AUG-CC-PVTZ
  Basis Set: (AUG-CC-PVTZ AUX)
    Blend: AUG-CC-PVTZ-JKFIT
	 Reference Energy          =    -578.6304440586744704 [Eh]
	 Singles Energy            =      -0.0000000000000000 [Eh]
	 Same-Spin Energy          =      -0.6159838126950762 [Eh]
	 Opposite-Spin Energy      =      -1.8198187211459178 [Eh]
	 Correlation Energy        =      -2.4358025338409939 [Eh]
	 Total Energy              =    -581.0662465925154265 [Eh]

	 ================> DF-SCS-MP2 Energies <==================
	-----------------------------------------------------------
	 SCS Same-Spin Scale       =       0.3333333333333333 [-]
	 SCS Opposite-Spin Scale   =       1.2000000000000000 [-]
	 SCS Same-Spin Energy      =      -0.2053279375650254 [Eh]
	 SCS Opposite-Spin Energy  =      -2.1837824653751015 [Eh]
	 SCS Correlation Energy    =      -2.3891104029401267 [Eh]
	 SCS Total Energy          =    -581.0195544616145753 [Eh]
	-----------------------------------------------------------

  Dipole Moment: [D]
     X:     0.0305      Y:    -6.7643      Z:    -0.9416     Total:     6.8296

*** Psi4 exiting successfully. Buy a developer a beer!
