                               Psi4 1.3.2 release

  ==> Input File <==

--------------------------------------------------------------------------
#psi4
#
memory 32 gb

molecule  {
0 1
  O       -1.4697740     2.5644010     0.0803940
  N        1.9191590    -0.5831280    -0.0556370
  N       -1.9102790     0.3061000     0.0485010
  N       -0.3427170    -1.4672350    -0.0387560
  N        1.5042275     1.6614350    -0.0101848
  N       -2.6294290    -1.9169300     0.1110730
  C        0.5336375    -0.4406172    -0.0293731
  C        0.3337570     0.9396730    -0.0094060
  C       -1.0221650     1.4237120     0.0351730
  C        2.4390620     0.6894910    -0.0699270
  C       -1.5730580    -1.0260450     0.0187980
  C        2.6353690    -1.8453210    -0.0655260
  H        3.5092610     0.8590810    -0.0866130
  H        2.3729340    -2.4304260     0.8177420
  H        2.3794720    -2.4140780    -0.9605130
  H        3.7041390    -1.6305860    -0.0592400
  H       -2.8879820     0.5691470     0.1693100
  H       -2.3258040    -2.8676930    -0.0642460
  H       -3.4596940    -1.6726380    -0.4173570
units angstrom
no_reorient  #important for SAPT in psi4, default
symmetry c1  #important for SAPT in psi4, default
}

set PROPERTIES_ORIGIN ["COM"]
properties('MP2/aug-cc-pvtz', properties = ['dipole'])
--------------------------------------------------------------------------

    Molecular point group: c1
  Charge       = 0
  Multiplicity = 1
  Basis Set: AUG-CC-PVTZ
    Blend: AUG-CC-PVTZ
  Basis Set: (AUG-CC-PVTZ AUX)
    Blend: AUG-CC-PVTZ-JKFIT

    Orbital Energies [Eh]
    ---------------------

    Doubly Occupied:

       1A    -20.520575     2A    -15.633109     3A    -15.630412
       4A    -15.611514     5A    -15.572086     6A    -15.561627
       7A    -11.397217     8A    -11.363303     9A    -11.319474
      10A    -11.311156    11A    -11.288694    12A    -11.247967
      13A     -1.390831    14A     -1.356198    15A     -1.333075
      16A     -1.220567    17A     -1.218858    18A     -1.187728
      19A     -1.027096    20A     -0.984832    21A     -0.901104
      22A     -0.883708    23A     -0.808895    24A     -0.766900
      25A     -0.738180    26A     -0.729269    27A     -0.692463
      28A     -0.669354    29A     -0.649974    30A     -0.642336
      31A     -0.627410    32A     -0.610510    33A     -0.588784
      34A     -0.575593    35A     -0.558566    36A     -0.541587
      37A     -0.496736    38A     -0.460966    39A     -0.441643
      40A     -0.429958    41A     -0.429658    42A     -0.391599
      43A     -0.295228

  @DF-RHF Final Energy:  -578.62613720439867

   => Energetics <=

    Nuclear Repulsion Energy =            693.0046403012169094
    One-Electron Energy =               -2163.0480705968407165
    Two-Electron Energy =                 891.4172930912250195
    Total Energy =                       -578.6261372043986739
  Basis Set: (AUG-CC-PVTZ AUX)
    Blend: AUG-CC-PVTZ-RI
    Molecular point group: c1

    Geometry (in Angstrom), charge = 0, multiplicity = 1:

       Center              X                  Y                   Z               Mass
    ------------   -----------------  -----------------  -----------------  -----------------
         O           -1.466971376754     2.562928148711     0.080350025645    15.994914619570
         N            1.921961623246    -0.584600851289    -0.055680974355    14.003074004430
         N           -1.907476376754     0.304627148711     0.048457025645    14.003074004430
         N           -0.339914376754    -1.468707851289    -0.038799974355    14.003074004430
         N            1.507030123246     1.659962148711    -0.010228774355    14.003074004430
         N           -2.626626376754    -1.918402851289     0.111029025645    14.003074004430
         C            0.536440123246    -0.442090051289    -0.029417074355    12.000000000000
         C            0.336559623246     0.938200148711    -0.009449974355    12.000000000000
         C           -1.019362376754     1.422239148711     0.035129025645    12.000000000000
         C            2.441864623246     0.688018148711    -0.069970974355    12.000000000000
         C           -1.570255376754    -1.027517851289     0.018754025645    12.000000000000
         C            2.638171623246    -1.846793851289    -0.065569974355    12.000000000000
         H            3.512063623246     0.857608148711    -0.086656974355     1.007825032230
         H            2.375736623246    -2.431898851289     0.817698025645     1.007825032230
         H            2.382274623246    -2.415550851289    -0.960556974355     1.007825032230
         H            3.706941623246    -1.632058851289    -0.059283974355     1.007825032230
         H           -2.885179376754     0.567674148711     0.169266025645     1.007825032230
         H           -2.323001376754    -2.869165851289    -0.064289974355     1.007825032230
         H           -3.456891376754    -1.674110851289    -0.417400974355     1.007825032230

  Basis Set: AUG-CC-PVTZ
    Blend: AUG-CC-PVTZ
  Basis Set: (AUG-CC-PVTZ AUX)
    Blend: AUG-CC-PVTZ-JKFIT
	 Reference Energy          =    -578.6261372043986739 [Eh]
	 Singles Energy            =      -0.0000000000000000 [Eh]
	 Same-Spin Energy          =      -0.6170289172069310 [Eh]
	 Opposite-Spin Energy      =      -1.8215986899605068 [Eh]
	 Correlation Energy        =      -2.4386276071674375 [Eh]
	 Total Energy              =    -581.0647648115660786 [Eh]

	 ================> DF-SCS-MP2 Energies <==================
	-----------------------------------------------------------
	 SCS Same-Spin Scale       =       0.3333333333333333 [-]
	 SCS Opposite-Spin Scale   =       1.2000000000000000 [-]
	 SCS Same-Spin Energy      =      -0.2056763057356437 [Eh]
	 SCS Opposite-Spin Energy  =      -2.1859184279526080 [Eh]
	 SCS Correlation Energy    =      -2.3915947336882519 [Eh]
	 SCS Total Energy          =    -581.0177319380869676 [Eh]
	-----------------------------------------------------------

  Dipole Moment: [D]
     X:    -0.1011      Y:    -6.8614      Z:    -0.9367     Total:     6.9258

*** Psi4 exiting successfully. Buy a developer a beer!
