                               Psi4 1.3.2 release

  ==> Input File <==

--------------------------------------------------------------------------
#psi4
#
memory 32 gb

molecule  {
0 1
  O       -1.4697740     2.5644010     0.0803940
  N        1.9234516    -0.5355292    -0.0545900
  N       -1.9102790     0.3061000     0.0485010
  N       -0.3781188    -1.4352017    -0.0374139
  N        1.5166440     1.6409000    -0.0105650
  N       -2.6294290    -1.9169300     0.1110730
  C        0.5576980    -0.4369160    -0.0295360
  C        0.3337570     0.9396730    -0.0094060
  C       -1.0221650     1.4237120     0.0351730
  C        2.4390620     0.6894910    -0.0699270
  C       -1.5730580    -1.0260450     0.0187980
  C        2.6353690    -1.8453210    -0.0655260
  H        3.5092610     0.8590810    -0.0866130
  H        2.3729340    -2.4304260     0.8177420
  H        2.3794720    -2.4140780    -0.9605130
  H        3.7041390    -1.6305860    -0.0592400
  H       -2.8879820     0.5691470     0.1693100
  H       -2.3258040    -2.8676930    -0.0642460
  H       -3.4596940    -1.6726380    -0.4173570
units angstrom
no_reorient  #important for SAPT in psi4, default
symmetry c1  #important for SAPT in psi4, default
}

set PROPERTIES_ORIGIN ["COM"]
properties('MP2/aug-cc-pvtz', properties = ['dipole'])
--------------------------------------------------------------------------

    Molecular point group: c1
  Charge       = 0
  Multiplicity = 1
  Basis Set: AUG-CC-PVTZ
    Blend: AUG-CC-PVTZ
  Basis Set: (AUG-CC-PVTZ AUX)
    Blend: AUG-CC-PVTZ-JKFIT

    Orbital Energies [Eh]
    ---------------------

    Doubly Occupied:

       1A    -20.520158     2A    -15.637222     3A    -15.623522
       4A    -15.605639     5A    -15.566107     6A    -15.554510
       7A    -11.385873     8A    -11.363053     9A    -11.317455
      10A    -11.303752    11A    -11.295858    12A    -11.247270
      13A     -1.392877    14A     -1.366185    15A     -1.339484
      16A     -1.217962    17A     -1.215283    18A     -1.187288
      19A     -1.033913    20A     -0.987948    21A     -0.908644
      22A     -0.879153    23A     -0.811609    24A     -0.764769
      25A     -0.741614    26A     -0.729910    27A     -0.690581
      28A     -0.673199    29A     -0.651969    30A     -0.643885
      31A     -0.628657    32A     -0.610841    33A     -0.591186
      34A     -0.581331    35A     -0.566472    36A     -0.543112
      37A     -0.488181    38A     -0.458827    39A     -0.436985
      40A     -0.427178    41A     -0.426260    42A     -0.394850
      43A     -0.300642

  @DF-RHF Final Energy:  -578.62828655031080

   => Energetics <=

    Nuclear Repulsion Energy =            694.8750129225016963
    One-Electron Energy =               -2166.7841736358650451
    Two-Electron Energy =                 893.2808741630524310
    Total Energy =                       -578.6282865503108042
  Basis Set: (AUG-CC-PVTZ AUX)
    Blend: AUG-CC-PVTZ-RI
    Molecular point group: c1

    Geometry (in Angstrom), charge = 0, multiplicity = 1:

       Center              X                  Y                   Z               Mass
    ------------   -----------------  -----------------  -----------------  -----------------
         O           -1.467134771349     2.557645653037     0.080191445898    15.994914619570
         N            1.926090828651    -0.542284546963    -0.054792554102    14.003074004430
         N           -1.907639771349     0.299344653037     0.048298445898    14.003074004430
         N           -0.375479571349    -1.441957046963    -0.037616454102    14.003074004430
         N            1.519283228651     1.634144653037    -0.010767554102    14.003074004430
         N           -2.626789771349    -1.923685346963     0.110870445898    14.003074004430
         C            0.560337228651    -0.443671346963    -0.029738554102    12.000000000000
         C            0.336396228651     0.932917653037    -0.009608554102    12.000000000000
         C           -1.019525771349     1.416956653037     0.034970445898    12.000000000000
         C            2.441701228651     0.682735653037    -0.070129554102    12.000000000000
         C           -1.570418771349    -1.032800346963     0.018595445898    12.000000000000
         C            2.638008228651    -1.852076346963    -0.065728554102    12.000000000000
         H            3.511900228651     0.852325653037    -0.086815554102     1.007825032230
         H            2.375573228651    -2.437181346963     0.817539445898     1.007825032230
         H            2.382111228651    -2.420833346963    -0.960715554102     1.007825032230
         H            3.706778228651    -1.637341346963    -0.059442554102     1.007825032230
         H           -2.885342771349     0.562391653037     0.169107445898     1.007825032230
         H           -2.323164771349    -2.874448346963    -0.064448554102     1.007825032230
         H           -3.457054771349    -1.679393346963    -0.417559554102     1.007825032230

  Basis Set: AUG-CC-PVTZ
    Blend: AUG-CC-PVTZ
  Basis Set: (AUG-CC-PVTZ AUX)
    Blend: AUG-CC-PVTZ-JKFIT
	 Reference Energy          =    -578.6282865503108042 [Eh]
	 Singles Energy            =      -0.0000000000000000 [Eh]
	 Same-Spin Energy          =      -0.6156037257446874 [Eh]
	 Opposite-Spin Energy      =      -1.8181533543854336 [Eh]
	 Correlation Energy        =      -2.4337570801301212 [Eh]
	 Total Energy              =    -581.0620436304409395 [Eh]

	 ================> DF-SCS-MP2 Energies <==================
	-----------------------------------------------------------
	 SCS Same-Spin Scale       =       0.3333333333333333 [-]
	 SCS Opposite-Spin Scale   =       1.2000000000000000 [-]
	 SCS Same-Spin Energy      =      -0.2052012419148958 [Eh]
	 SCS Opposite-Spin Energy  =      -2.1817840252625200 [Eh]
	 SCS Correlation Energy    =      -2.3869852671774159 [Eh]
	 SCS Total Energy          =    -581.0152718174882693 [Eh]
	-----------------------------------------------------------

  Dipole Moment: [D]
     X:     0.2608      Y:    -6.9486      Z:    -0.9519     Total:     7.0183

*** Psi4 exiting successfully. Buy a developer a beer!
