                               Psi4 1.3.2 release

  ==> Input File <==

--------------------------------------------------------------------------
#psi4
#
memory 32 gb

molecule  {
0 1
  O       -1.4697740     2.5644010     0.0803940
  N        1.9191590    -0.5831280    -0.0556370
  N       -1.9334601     0.2999954     0.0494196
  N       -0.3506083    -1.4886621    -0.0386658
  N        1.5166440     1.6409000    -0.0105650
  N       -2.6294290    -1.9169300     0.1110730
  C        0.5576980    -0.4369160    -0.0295360
  C        0.3337570     0.9396730    -0.0094060
  C       -1.0221650     1.4237120     0.0351730
  C        2.4390620     0.6894910    -0.0699270
  C       -1.5730580    -1.0260450     0.0187980
  C        2.6353690    -1.8453210    -0.0655260
  H        3.5092610     0.8590810    -0.0866130
  H        2.3729340    -2.4304260     0.8177420
  H        2.3794720    -2.4140780    -0.9605130
  H        3.7041390    -1.6305860    -0.0592400
  H       -2.8879820     0.5691470     0.1693100
  H       -2.3258040    -2.8676930    -0.0642460
  H       -3.4596940    -1.6726380    -0.4173570
units angstrom
no_reorient  #important for SAPT in psi4, default
symmetry c1  #important for SAPT in psi4, default
}

set PROPERTIES_ORIGIN ["COM"]
properties('MP2/aug-cc-pvtz', properties = ['dipole'])
--------------------------------------------------------------------------

    Molecular point group: c1
  Charge       = 0
  Multiplicity = 1
  Basis Set: AUG-CC-PVTZ
    Blend: AUG-CC-PVTZ
  Basis Set: (AUG-CC-PVTZ AUX)
    Blend: AUG-CC-PVTZ-JKFIT

    Orbital Energies [Eh]
    ---------------------

    Doubly Occupied:

       1A    -20.523937     2A    -15.634322     3A    -15.627188
       4A    -15.607451     5A    -15.572854     6A    -15.561014
       7A    -11.394838     8A    -11.367102     9A    -11.321501
      10A    -11.308249    11A    -11.289942    12A    -11.249069
      13A     -1.389766    14A     -1.361236    15A     -1.333653
      16A     -1.216847    17A     -1.212741    18A     -1.191274
      19A     -1.029667    20A     -0.987292    21A     -0.901039
      22A     -0.878822    23A     -0.806576    24A     -0.767747
      25A     -0.744621    26A     -0.727179    27A     -0.689821
      28A     -0.670694    29A     -0.649872    30A     -0.640245
      31A     -0.624495    32A     -0.611062    33A     -0.595661
      34A     -0.578781    35A     -0.561657    36A     -0.540672
      37A     -0.495711    38A     -0.456470    39A     -0.441433
      40A     -0.431097    41A     -0.429378    42A     -0.393757
      43A     -0.300623

  @DF-RHF Final Energy:  -578.62930952972101

   => Energetics <=

    Nuclear Repulsion Energy =            692.4354790844002991
    One-Electron Energy =               -2161.8948677970274730
    Two-Electron Energy =                 890.8300791829060472
    Total Energy =                       -578.6293095297210130
  Basis Set: (AUG-CC-PVTZ AUX)
    Blend: AUG-CC-PVTZ-RI
    Molecular point group: c1

    Geometry (in Angstrom), charge = 0, multiplicity = 1:

       Center              X                  Y                   Z               Mass
    ------------   -----------------  -----------------  -----------------  -----------------
         O           -1.467137893228     2.566736750954     0.080308541806    15.994914619570
         N            1.921795106772    -0.580792249046    -0.055722458194    14.003074004430
         N           -1.930823993228     0.302331150954     0.049334141806    14.003074004430
         N           -0.347972193228    -1.486326349046    -0.038751258194    14.003074004430
         N            1.519280106772     1.643235750954    -0.010650458194    14.003074004430
         N           -2.626792893228    -1.914594249046     0.110987541806    14.003074004430
         C            0.560334106772    -0.434580249046    -0.029621458194    12.000000000000
         C            0.336393106772     0.942008750954    -0.009491458194    12.000000000000
         C           -1.019528893228     1.426047750954     0.035087541806    12.000000000000
         C            2.441698106772     0.691826750954    -0.070012458194    12.000000000000
         C           -1.570421893228    -1.023709249046     0.018712541806    12.000000000000
         C            2.638005106772    -1.842985249046    -0.065611458194    12.000000000000
         H            3.511897106772     0.861416750954    -0.086698458194     1.007825032230
         H            2.375570106772    -2.428090249046     0.817656541806     1.007825032230
         H            2.382108106772    -2.411742249046    -0.960598458194     1.007825032230
         H            3.706775106772    -1.628250249046    -0.059325458194     1.007825032230
         H           -2.885345893228     0.571482750954     0.169224541806     1.007825032230
         H           -2.323167893228    -2.865357249046    -0.064331458194     1.007825032230
         H           -3.457057893228    -1.670302249046    -0.417442458194     1.007825032230

  Basis Set: AUG-CC-PVTZ
    Blend: AUG-CC-PVTZ
  Basis Set: (AUG-CC-PVTZ AUX)
    Blend: AUG-CC-PVTZ-JKFIT
	 Reference Energy          =    -578.6293095297210130 [Eh]
	 Singles Energy            =      -0.0000000000000000 [Eh]
	 Same-Spin Energy          =      -0.6157278768236214 [Eh]
	 Opposite-Spin Energy      =      -1.8200378046125176 [Eh]
	 Correlation Energy        =      -2.4357656814361390 [Eh]
	 Total Energy              =    -581.0650752111571364 [Eh]

	 ================> DF-SCS-MP2 Energies <==================
	-----------------------------------------------------------
	 SCS Same-Spin Scale       =       0.3333333333333333 [-]
	 SCS Opposite-Spin Scale   =       1.2000000000000000 [-]
	 SCS Same-Spin Energy      =      -0.2052426256078738 [Eh]
	 SCS Opposite-Spin Energy  =      -2.1840453655350212 [Eh]
	 SCS Correlation Energy    =      -2.3892879911428948 [Eh]
	 SCS Total Energy          =    -581.0185975208638638 [Eh]
	-----------------------------------------------------------

  Dipole Moment: [D]
     X:     0.0853      Y:    -6.6384      Z:    -0.9350     Total:     6.7045

*** Psi4 exiting successfully. Buy a developer a beer!
