                               Psi4 1.3.2 release

  ==> Input File <==

--------------------------------------------------------------------------
#psi4
#
memory 32 gb

molecule  {
0 1
  O       -1.4697740     2.5644010     0.0803940
  N        1.9191590    -0.5831280    -0.0556370
  N       -1.9102790     0.3061000     0.0485010
  N       -0.3427170    -1.4672350    -0.0387560
  N        1.5166440     1.6409000    -0.0105650
  N       -2.6294290    -1.9169300     0.1110730
  C        0.5576980    -0.4369160    -0.0295360
  C        0.3399145     0.9293878    -0.0099558
  C       -1.0221650     1.4237120     0.0351730
  C        2.4307129     0.6814737    -0.0700385
  C       -1.5730580    -1.0260450     0.0187980
  C        2.6353690    -1.8453210    -0.0655260
  H        3.5092610     0.8590810    -0.0866130
  H        2.3729340    -2.4304260     0.8177420
  H        2.3794720    -2.4140780    -0.9605130
  H        3.7041390    -1.6305860    -0.0592400
  H       -2.8879820     0.5691470     0.1693100
  H       -2.3258040    -2.8676930    -0.0642460
  H       -3.4596940    -1.6726380    -0.4173570
units angstrom
no_reorient  #important for SAPT in psi4, default
symmetry c1  #important for SAPT in psi4, default
}

set PROPERTIES_ORIGIN ["COM"]
properties('MP2/aug-cc-pvtz', properties = ['dipole'])
--------------------------------------------------------------------------

    Molecular point group: c1
  Charge       = 0
  Multiplicity = 1
  Basis Set: AUG-CC-PVTZ
    Blend: AUG-CC-PVTZ
  Basis Set: (AUG-CC-PVTZ AUX)
    Blend: AUG-CC-PVTZ-JKFIT

    Orbital Energies [Eh]
    ---------------------

    Doubly Occupied:

       1A    -20.522405     2A    -15.632764     3A    -15.629167
       4A    -15.610293     5A    -15.570381     6A    -15.558396
       7A    -11.395457     8A    -11.365451     9A    -11.316671
      10A    -11.307017    11A    -11.289728    12A    -11.246696
      13A     -1.391389    14A     -1.363063    15A     -1.334558
      16A     -1.218947    17A     -1.216011    18A     -1.191406
      19A     -1.029670    20A     -0.987179    21A     -0.901350
      22A     -0.881898    23A     -0.807333    24A     -0.768242
      25A     -0.741136    26A     -0.728076    27A     -0.691990
      28A     -0.672213    29A     -0.650865    30A     -0.641363
      31A     -0.626493    32A     -0.611766    33A     -0.588785
      34A     -0.578596    35A     -0.561880    36A     -0.541828
      37A     -0.494051    38A     -0.459061    39A     -0.440689
      40A     -0.430324    41A     -0.429140    42A     -0.393301
      43A     -0.298886

  @DF-RHF Final Energy:  -578.63064941488494

   => Energetics <=

    Nuclear Repulsion Energy =            693.8367705270565011
    One-Electron Energy =               -2164.7030123601575724
    Two-Electron Energy =                 892.2355924182160152
    Total Energy =                       -578.6306494148849424
  Basis Set: (AUG-CC-PVTZ AUX)
    Blend: AUG-CC-PVTZ-RI
    Molecular point group: c1

    Geometry (in Angstrom), charge = 0, multiplicity = 1:

       Center              X                  Y                   Z               Mass
    ------------   -----------------  -----------------  -----------------  -----------------
         O           -1.469614552534     2.565731702201     0.080442197596    15.994914619570
         N            1.919318447466    -0.581797297799    -0.055588802404    14.003074004430
         N           -1.910119552534     0.307430702201     0.048549197596    14.003074004430
         N           -0.342557552534    -1.465904297799    -0.038707802404    14.003074004430
         N            1.516803447466     1.642230702201    -0.010516802404    14.003074004430
         N           -2.629269552534    -1.915599297799     0.111121197596    14.003074004430
         C            0.557857447466    -0.435585297799    -0.029487802404    12.000000000000
         C            0.340073947466     0.930718502201    -0.009907602404    12.000000000000
         C           -1.022005552534     1.425042702201     0.035221197596    12.000000000000
         C            2.430872347466     0.682804402201    -0.069990302404    12.000000000000
         C           -1.572898552534    -1.024714297799     0.018846197596    12.000000000000
         C            2.635528447466    -1.843990297799    -0.065477802404    12.000000000000
         H            3.509420447466     0.860411702201    -0.086564802404     1.007825032230
         H            2.373093447466    -2.429095297799     0.817790197596     1.007825032230
         H            2.379631447466    -2.412747297799    -0.960464802404     1.007825032230
         H            3.704298447466    -1.629255297799    -0.059191802404     1.007825032230
         H           -2.887822552534     0.570477702201     0.169358197596     1.007825032230
         H           -2.325644552534    -2.866362297799    -0.064197802404     1.007825032230
         H           -3.459534552534    -1.671307297799    -0.417308802404     1.007825032230

  Basis Set: AUG-CC-PVTZ
    Blend: AUG-CC-PVTZ
  Basis Set: (AUG-CC-PVTZ AUX)
    Blend: AUG-CC-PVTZ-JKFIT
	 Reference Energy          =    -578.6306494148849424 [Eh]
	 Singles Energy            =      -0.0000000000000000 [Eh]
	 Same-Spin Energy          =      -0.6159742182198386 [Eh]
	 Opposite-Spin Energy      =      -1.8196490419816076 [Eh]
	 Correlation Energy        =      -2.4356232602014463 [Eh]
	 Total Energy              =    -581.0662726750863385 [Eh]

	 ================> DF-SCS-MP2 Energies <==================
	-----------------------------------------------------------
	 SCS Same-Spin Scale       =       0.3333333333333333 [-]
	 SCS Opposite-Spin Scale   =       1.2000000000000000 [-]
	 SCS Same-Spin Energy      =      -0.2053247394066128 [Eh]
	 SCS Opposite-Spin Energy  =      -2.1835788503779292 [Eh]
	 SCS Correlation Energy    =      -2.3889035897845421 [Eh]
	 SCS Total Energy          =    -581.0195530046694330 [Eh]
	-----------------------------------------------------------

  Dipole Moment: [D]
     X:    -0.0357      Y:    -6.7858      Z:    -0.9366     Total:     6.8503

*** Psi4 exiting successfully. Buy a developer a beer!
