                               Psi4 1.3.2 release

  ==> Input File <==

--------------------------------------------------------------------------
#psi4
#
memory 32 gb

molecule  {
0 1
  O       -1.4697740     2.5644010     0.0803940
  N        1.9191590    -0.5831280    -0.0556370
  N       -1.9102790     0.3061000     0.0485010
  N       -0.3427170    -1.4672350    -0.0387560
  N        1.5166440     1.6409000    -0.0105650
  N       -2.6294290    -1.9169300     0.1110730
  C        0.5576980    -0.4369160    -0.0295360
  C        0.3337570     0.9396730    -0.0094060
  C       -1.0221650     1.4237120     0.0351730
  C        2.3695234     0.7612152    -0.0654519
  C       -1.5730580    -1.0260450     0.0187980
  C        2.6353690    -1.8453210    -0.0655260
  H        3.5092610     0.8590810    -0.0866130
  H        2.3729340    -2.4304260     0.8177420
  H        2.3794720    -2.4140780    -0.9605130
  H        3.7041390    -1.6305860    -0.0592400
  H       -2.8879820     0.5691470     0.1693100
  H       -2.3258040    -2.8676930    -0.0642460
  H       -3.4596940    -1.6726380    -0.4173570
units angstrom
no_reorient  #important for SAPT in psi4, default
symmetry c1  #important for SAPT in psi4, default
}

set PROPERTIES_ORIGIN ["COM"]
properties('MP2/aug-cc-pvtz', properties = ['dipole'])
--------------------------------------------------------------------------

    Molecular point group: c1
  Charge       = 0
  Multiplicity = 1
  Basis Set: AUG-CC-PVTZ
    Blend: AUG-CC-PVTZ
  Basis Set: (AUG-CC-PVTZ AUX)
    Blend: AUG-CC-PVTZ-JKFIT

    Orbital Energies [Eh]
    ---------------------

    Doubly Occupied:

       1A    -20.518180     2A    -15.628823     3A    -15.622870
       4A    -15.611799     5A    -15.570880     6A    -15.555706
       7A    -11.397824     8A    -11.362407     9A    -11.322300
      10A    -11.305821    11A    -11.287437    12A    -11.245409
      13A     -1.391183    14A     -1.362963    15A     -1.336294
      16A     -1.232333    17A     -1.219066    18A     -1.196441
      19A     -1.035240    20A     -0.981852    21A     -0.890049
      22A     -0.886018    23A     -0.803625    24A     -0.767481
      25A     -0.745304    26A     -0.726717    27A     -0.691334
      28A     -0.669465    29A     -0.647057    30A     -0.637355
      31A     -0.625399    32A     -0.611415    33A     -0.591126
      34A     -0.574746    35A     -0.567493    36A     -0.540824
      37A     -0.493551    38A     -0.464765    39A     -0.439724
      40A     -0.433107    41A     -0.429409    42A     -0.393320
      43A     -0.306233

  @DF-RHF Final Energy:  -578.62319119140079

   => Energetics <=

    Nuclear Repulsion Energy =            694.7018440387463443
    One-Electron Energy =               -2166.4093845273373518
    Two-Electron Energy =                 893.0843492971901014
    Total Energy =                       -578.6231911914007924
  Basis Set: (AUG-CC-PVTZ AUX)
    Blend: AUG-CC-PVTZ-RI
    Molecular point group: c1

    Geometry (in Angstrom), charge = 0, multiplicity = 1:

       Center              X                  Y                   Z               Mass
    ------------   -----------------  -----------------  -----------------  -----------------
         O           -1.464718519415     2.559186886473     0.080068788469    15.994914619570
         N            1.924214480585    -0.588342113527    -0.055962211531    14.003074004430
         N           -1.905223519415     0.300885886473     0.048175788469    14.003074004430
         N           -0.337661519415    -1.472449113527    -0.039081211531    14.003074004430
         N            1.521699480585     1.635685886473    -0.010890211531    14.003074004430
         N           -2.624373519415    -1.922144113527     0.110747788469    14.003074004430
         C            0.562753480585    -0.442130113527    -0.029861211531    12.000000000000
         C            0.338812480585     0.934458886473    -0.009731211531    12.000000000000
         C           -1.017109519415     1.418497886473     0.034847788469    12.000000000000
         C            2.374578880585     0.756001086473    -0.065777111531    12.000000000000
         C           -1.568002519415    -1.031259113527     0.018472788469    12.000000000000
         C            2.640424480585    -1.850535113527    -0.065851211531    12.000000000000
         H            3.514316480585     0.853866886473    -0.086938211531     1.007825032230
         H            2.377989480585    -2.435640113527     0.817416788469     1.007825032230
         H            2.384527480585    -2.419292113527    -0.960838211531     1.007825032230
         H            3.709194480585    -1.635800113527    -0.059565211531     1.007825032230
         H           -2.882926519415     0.563932886473     0.168984788469     1.007825032230
         H           -2.320748519415    -2.872907113527    -0.064571211531     1.007825032230
         H           -3.454638519415    -1.677852113527    -0.417682211531     1.007825032230

  Basis Set: AUG-CC-PVTZ
    Blend: AUG-CC-PVTZ
  Basis Set: (AUG-CC-PVTZ AUX)
    Blend: AUG-CC-PVTZ-JKFIT
	 Reference Energy          =    -578.6231911914007924 [Eh]
	 Singles Energy            =      -0.0000000000000000 [Eh]
	 Same-Spin Energy          =      -0.6137031980133931 [Eh]
	 Opposite-Spin Energy      =      -1.8156623515321555 [Eh]
	 Correlation Energy        =      -2.4293655495455484 [Eh]
	 Total Energy              =    -581.0525567409463292 [Eh]

	 ================> DF-SCS-MP2 Energies <==================
	-----------------------------------------------------------
	 SCS Same-Spin Scale       =       0.3333333333333333 [-]
	 SCS Opposite-Spin Scale   =       1.2000000000000000 [-]
	 SCS Same-Spin Energy      =      -0.2045677326711310 [Eh]
	 SCS Opposite-Spin Energy  =      -2.1787948218385864 [Eh]
	 SCS Correlation Energy    =      -2.3833625545097172 [Eh]
	 SCS Total Energy          =    -581.0065537459105371 [Eh]
	-----------------------------------------------------------

  Dipole Moment: [D]
     X:    -0.0700      Y:    -6.5801      Z:    -0.9340     Total:     6.6465

*** Psi4 exiting successfully. Buy a developer a beer!
