                               Psi4 1.4a3.dev225

  ==> Input File <==

--------------------------------------------------------------------------
#psi4
#
memory 32 gb

molecule  {
0 1
  O        1.6617960     2.5152110     0.0229320
  N       -1.9329240    -0.4005880    -0.0147920
  N        1.9545050     0.2323110     0.0113410
  N        0.2669280    -1.4301930    -0.0208730
  N       -1.3834780     1.7915450    -0.0193170
  N        2.5221760    -2.0364130     0.0734370
  C       -0.5634760    -0.3442740    -0.0026930
  C       -0.2488450     1.0144850    -0.0147620
  C        1.1380320     1.4076430     0.0031510
  C       -2.3524802     0.8561880    -0.0163531
  C        1.5275980    -1.0721200    -0.0057920
  C       -2.7322540    -1.6127190     0.0339130
  H       -3.4247340     1.1445090    -0.0228960
  H       -2.2735910    -2.3629350    -0.6109560
  H       -2.7853950    -1.9995380     1.0543320
  H       -3.7366260    -1.3828770    -0.3245450
  H        2.9468270     0.4301980     0.1174830
  H        2.1372730    -2.9631930    -0.0801050
  H        3.3349710    -1.8642740    -0.5097710
units angstrom
no_reorient  #important for SAPT in psi4, default
symmetry c1  #important for SAPT in psi4, default
}

set PROPERTIES_ORIGIN ["COM"]
properties('MP2/aug-cc-pvtz', properties = ['dipole'])
--------------------------------------------------------------------------

    Molecular point group: c1
  Charge       = 0
  Multiplicity = 1
  Basis Set: AUG-CC-PVTZ
    Blend: AUG-CC-PVTZ
  Basis Set: (AUG-CC-PVTZ AUX)
    Blend: AUG-CC-PVTZ-JKFIT

    Orbital Energies [Eh]
    ---------------------

    Doubly Occupied:

       1A    -20.522206     2A    -15.637465     3A    -15.629263
       4A    -15.609689     5A    -15.570886     6A    -15.557003
       7A    -11.394389     8A    -11.365117     9A    -11.317292
      10A    -11.306858    11A    -11.292702    12A    -11.248298
      13A     -1.392777    14A     -1.368936    15A     -1.335230
      16A     -1.218424    17A     -1.213772    18A     -1.191756
      19A     -1.026847    20A     -0.993321    21A     -0.907390
      22A     -0.880157    23A     -0.804664    24A     -0.768410
      25A     -0.742707    26A     -0.726244    27A     -0.691196
      28A     -0.675985    29A     -0.654583    30A     -0.642388
      31A     -0.626351    32A     -0.612688    33A     -0.582297
      34A     -0.578399    35A     -0.563368    36A     -0.542352
      37A     -0.494255    38A     -0.459503    39A     -0.440420
      40A     -0.429846    41A     -0.428802    42A     -0.396002
      43A     -0.294879

  @DF-RHF Final Energy:  -578.62600563139029

   => Energetics <=

    Nuclear Repulsion Energy =            694.0231833869623870
    One-Electron Energy =               -2165.0281423383785295
    Two-Electron Energy =                 892.3789533200257438
    Total Energy =                       -578.6260056313902851
  Basis Set: (AUG-CC-PVTZ AUX)
    Blend: AUG-CC-PVTZ-RI
    Molecular point group: c1

    Geometry (in Angstrom), charge = 0, multiplicity = 1:

       Center              X                  Y                   Z               Mass
    ------------   -----------------  -----------------  -----------------  -----------------
         O            1.637820920843     2.464684848239     0.020665051565    15.994914619570
         N           -1.956899079157    -0.451114151761    -0.017058948435    14.003074004430
         N            1.930529920843     0.181784848239     0.009074051565    14.003074004430
         N            0.242952920843    -1.480719151761    -0.023139948435    14.003074004430
         N           -1.407453079157     1.741018848239    -0.021583948435    14.003074004430
         N            2.498200920843    -2.086939151761     0.071170051565    14.003074004430
         C           -0.587451079157    -0.394800151761    -0.004959948435    12.000000000000
         C           -0.272820079157     0.963958848239    -0.017028948435    12.000000000000
         C            1.114056920843     1.357116848239     0.000884051565    12.000000000000
         C           -2.376455279157     0.805661848239    -0.018620048435    12.000000000000
         C            1.503622920843    -1.122646151761    -0.008058948435    12.000000000000
         C           -2.756229079157    -1.663245151761     0.031646051565    12.000000000000
         H           -3.448709079157     1.093982848239    -0.025162948435     1.007825032230
         H           -2.297566079157    -2.413461151761    -0.613222948435     1.007825032230
         H           -2.809370079157    -2.050064151761     1.052065051565     1.007825032230
         H           -3.760601079157    -1.433403151761    -0.326811948435     1.007825032230
         H            2.922851920843     0.379671848239     0.115216051565     1.007825032230
         H            2.113297920843    -3.013719151761    -0.082371948435     1.007825032230
         H            3.310995920843    -1.914800151761    -0.512037948435     1.007825032230

  Basis Set: AUG-CC-PVTZ
    Blend: AUG-CC-PVTZ
  Basis Set: (AUG-CC-PVTZ AUX)
    Blend: AUG-CC-PVTZ-JKFIT
	 Reference Energy          =    -578.6260056313902851 [Eh]
	 Singles Energy            =      -0.0000000000000000 [Eh]
	 Same-Spin Energy          =      -0.6169226096692311 [Eh]
	 Opposite-Spin Energy      =      -1.8208438186365956 [Eh]
	 Correlation Energy        =      -2.4377664283058267 [Eh]
	 Total Energy              =    -581.0637720596961344 [Eh]

	 ================> DF-SCS-MP2 Energies <==================
	-----------------------------------------------------------
	 SCS Same-Spin Scale       =       0.3333333333333333 [-]
	 SCS Opposite-Spin Scale   =       1.2000000000000000 [-]
	 SCS Same-Spin Energy      =      -0.2056408698897437 [Eh]
	 SCS Opposite-Spin Energy  =      -2.1850125823639148 [Eh]
	 SCS Correlation Energy    =      -2.3906534522536584 [Eh]
	 SCS Total Energy          =    -581.0166590836439582 [Eh]
	-----------------------------------------------------------

  Dipole Moment: [D]
     X:    -0.5626      Y:    -6.8787      Z:    -0.8508     Total:     6.9539

*** Psi4 exiting successfully. Buy a developer a beer!
