                               Psi4 1.3.2 release

  ==> Input File <==

--------------------------------------------------------------------------
#psi4
#
memory 32 gb

molecule  {
0 1
  O       -1.4697740     2.5644010     0.0803940
  N        1.9191590    -0.5831280    -0.0556370
  N       -1.9102790     0.3061000     0.0485010
  N       -0.3427170    -1.4672350    -0.0387560
  N        1.5166440     1.6409000    -0.0105650
  N       -2.6294290    -1.9169300     0.1110730
  C        0.5576980    -0.4369160    -0.0295360
  C        0.3337570     0.9396730    -0.0094060
  C       -1.0221650     1.4237120     0.0351730
  C        2.4390620     0.6894910    -0.0699270
  C       -1.5961697    -1.0317458     0.0217687
  C        2.6353690    -1.8453210    -0.0655260
  H        3.5092610     0.8590810    -0.0866130
  H        2.3729340    -2.4304260     0.8177420
  H        2.3794720    -2.4140780    -0.9605130
  H        3.7041390    -1.6305860    -0.0592400
  H       -2.8923674     0.5519147     0.1700293
  H       -2.3258040    -2.8676930    -0.0642460
  H       -3.4596940    -1.6726380    -0.4173570
units angstrom
no_reorient  #important for SAPT in psi4, default
symmetry c1  #important for SAPT in psi4, default
}

set PROPERTIES_ORIGIN ["COM"]
properties('MP2/aug-cc-pvtz', properties = ['dipole'])
--------------------------------------------------------------------------

    Molecular point group: c1
  Charge       = 0
  Multiplicity = 1
  Basis Set: AUG-CC-PVTZ
    Blend: AUG-CC-PVTZ
  Basis Set: (AUG-CC-PVTZ AUX)
    Blend: AUG-CC-PVTZ-JKFIT

    Orbital Energies [Eh]
    ---------------------

    Doubly Occupied:

       1A    -20.520235     2A    -15.631272     3A    -15.629889
       4A    -15.614950     5A    -15.568920     6A    -15.558293
       7A    -11.397718     8A    -11.364323     9A    -11.317744
      10A    -11.306021    11A    -11.288218    12A    -11.245094
      13A     -1.389715    14A     -1.359055    15A     -1.335367
      16A     -1.225430    17A     -1.212158    18A     -1.187863
      19A     -1.027631    20A     -0.985358    21A     -0.901216
      22A     -0.882555    23A     -0.806638    24A     -0.765893
      25A     -0.740458    26A     -0.734953    27A     -0.695394
      28A     -0.669757    29A     -0.649778    30A     -0.641627
      31A     -0.625892    32A     -0.609481    33A     -0.592683
      34A     -0.577361    35A     -0.561378    36A     -0.541338
      37A     -0.490250    38A     -0.460021    39A     -0.439092
      40A     -0.428528    41A     -0.427286    42A     -0.391330
      43A     -0.295487

  @DF-RHF Final Energy:  -578.62932787369789

   => Energetics <=

    Nuclear Repulsion Energy =            693.1675007435304678
    One-Electron Energy =               -2163.4063577194770005
    Two-Electron Energy =                 891.6095291022485299
    Total Energy =                       -578.6293278736978891
  Basis Set: (AUG-CC-PVTZ AUX)
    Blend: AUG-CC-PVTZ-RI
    Molecular point group: c1

    Geometry (in Angstrom), charge = 0, multiplicity = 1:

       Center              X                  Y                   Z               Mass
    ------------   -----------------  -----------------  -----------------  -----------------
         O           -1.468066914796     2.564920790087     0.080173764479    15.994914619570
         N            1.920866085204    -0.582608209913    -0.055857235521    14.003074004430
         N           -1.908571914796     0.306619790087     0.048280764479    14.003074004430
         N           -0.341009914796    -1.466715209913    -0.038976235521    14.003074004430
         N            1.518351085204     1.641419790087    -0.010785235521    14.003074004430
         N           -2.627721914796    -1.916410209913     0.110852764479    14.003074004430
         C            0.559405085204    -0.436396209913    -0.029756235521    12.000000000000
         C            0.335464085204     0.940192790087    -0.009626235521    12.000000000000
         C           -1.020457914796     1.424231790087     0.034952764479    12.000000000000
         C            2.440769085204     0.690010790087    -0.070147235521    12.000000000000
         C           -1.594462614796    -1.031226009913     0.021548464479    12.000000000000
         C            2.637076085204    -1.844801209913    -0.065746235521    12.000000000000
         H            3.510968085204     0.859600790087    -0.086833235521     1.007825032230
         H            2.374641085204    -2.429906209913     0.817521764479     1.007825032230
         H            2.381179085204    -2.413558209913    -0.960733235521     1.007825032230
         H            3.705846085204    -1.630066209913    -0.059460235521     1.007825032230
         H           -2.890660314796     0.552434490087     0.169809064479     1.007825032230
         H           -2.324096914796    -2.867173209913    -0.064466235521     1.007825032230
         H           -3.457986914796    -1.672118209913    -0.417577235521     1.007825032230

  Basis Set: AUG-CC-PVTZ
    Blend: AUG-CC-PVTZ
  Basis Set: (AUG-CC-PVTZ AUX)
    Blend: AUG-CC-PVTZ-JKFIT
	 Reference Energy          =    -578.6293278736978891 [Eh]
	 Singles Energy            =      -0.0000000000000000 [Eh]
	 Same-Spin Energy          =      -0.6163137835688959 [Eh]
	 Opposite-Spin Energy      =      -1.8200207921300553 [Eh]
	 Correlation Energy        =      -2.4363345756989512 [Eh]
	 Total Energy              =    -581.0656624493968820 [Eh]

	 ================> DF-SCS-MP2 Energies <==================
	-----------------------------------------------------------
	 SCS Same-Spin Scale       =       0.3333333333333333 [-]
	 SCS Opposite-Spin Scale   =       1.2000000000000000 [-]
	 SCS Same-Spin Energy      =      -0.2054379278562986 [Eh]
	 SCS Opposite-Spin Energy  =      -2.1840249505560663 [Eh]
	 SCS Correlation Energy    =      -2.3894628784123650 [Eh]
	 SCS Total Energy          =    -581.0187907521102488 [Eh]
	-----------------------------------------------------------

  Dipole Moment: [D]
     X:    -0.2185      Y:    -6.8915      Z:    -0.9252     Total:     6.9568

*** Psi4 exiting successfully. Buy a developer a beer!
