                               Psi4 1.4a3.dev225

  ==> Input File <==

--------------------------------------------------------------------------
#psi4
#
memory 32 gb

molecule  {
0 1
  O        1.6617960     2.5152110     0.0229320
  N       -1.9329240    -0.4005880    -0.0147920
  N        1.9545050     0.2323110     0.0113410
  N        0.2669280    -1.4301930    -0.0208730
  N       -1.3834780     1.7915450    -0.0193170
  N        2.5221760    -2.0364130     0.0734370
  C       -0.5634760    -0.3442740    -0.0026930
  C       -0.2488450     1.0144850    -0.0147620
  C        1.1380320     1.4076430     0.0031510
  C       -2.3683130     0.9036150    -0.0164120
  C        1.4795037    -1.0857804    -0.0063673
  C       -2.7322540    -1.6127190     0.0339130
  H       -3.4247340     1.1445090    -0.0228960
  H       -2.2735910    -2.3629350    -0.6109560
  H       -2.7853950    -1.9995380     1.0543320
  H       -3.7366260    -1.3828770    -0.3245450
  H        2.9468270     0.4301980     0.1174830
  H        2.1372730    -2.9631930    -0.0801050
  H        3.3349710    -1.8642740    -0.5097710
units angstrom
no_reorient  #important for SAPT in psi4, default
symmetry c1  #important for SAPT in psi4, default
}

set PROPERTIES_ORIGIN ["COM"]
properties('MP2/aug-cc-pvtz', properties = ['dipole'])
--------------------------------------------------------------------------

    Molecular point group: c1
  Charge       = 0
  Multiplicity = 1
  Basis Set: AUG-CC-PVTZ
    Blend: AUG-CC-PVTZ
  Basis Set: (AUG-CC-PVTZ AUX)
    Blend: AUG-CC-PVTZ-JKFIT

    Orbital Energies [Eh]
    ---------------------

    Doubly Occupied:

       1A    -20.520829     2A    -15.636358     3A    -15.623998
       4A    -15.604824     5A    -15.574434     6A    -15.562549
       7A    -11.391897     8A    -11.363451     9A    -11.322409
      10A    -11.309352    11A    -11.291599    12A    -11.251063
      13A     -1.390782    14A     -1.363141    15A     -1.334019
      16A     -1.222657    17A     -1.208097    18A     -1.194123
      19A     -1.033197    20A     -0.988039    21A     -0.902491
      22A     -0.876256    23A     -0.810407    24A     -0.767978
      25A     -0.740348    26A     -0.721896    27A     -0.685719
      28A     -0.673302    29A     -0.651130    30A     -0.641788
      31A     -0.625944    32A     -0.611582    33A     -0.595797
      34A     -0.580940    35A     -0.561726    36A     -0.543203
      37A     -0.497806    38A     -0.460244    39A     -0.440344
      40A     -0.430656    41A     -0.427331    42A     -0.395415
      43A     -0.304976

  @DF-RHF Final Energy:  -578.62789074478155

   => Energetics <=

    Nuclear Repulsion Energy =            693.5499822296175125
    One-Electron Energy =               -2164.0875497268020808
    Two-Electron Energy =                 891.9096767524031293
    Total Energy =                       -578.6278907447815527
  Basis Set: (AUG-CC-PVTZ AUX)
    Blend: AUG-CC-PVTZ-RI
    Molecular point group: c1

    Geometry (in Angstrom), charge = 0, multiplicity = 1:

       Center              X                  Y                   Z               Mass
    ------------   -----------------  -----------------  -----------------  -----------------
         O            1.642468331995     2.462230063439     0.020711157022    15.994914619570
         N           -1.952251668005    -0.453568936561    -0.017012842978    14.003074004430
         N            1.935177331995     0.179330063439     0.009120157022    14.003074004430
         N            0.247600331995    -1.483173936561    -0.023093842978    14.003074004430
         N           -1.402805668005     1.738564063439    -0.021537842978    14.003074004430
         N            2.502848331995    -2.089393936561     0.071216157022    14.003074004430
         C           -0.582803668005    -0.397254936561    -0.004913842978    12.000000000000
         C           -0.268172668005     0.961504063439    -0.016982842978    12.000000000000
         C            1.118704331995     1.354662063439     0.000930157022    12.000000000000
         C           -2.387640668005     0.850634063439    -0.018632842978    12.000000000000
         C            1.460176031995    -1.138761336561    -0.008588142978    12.000000000000
         C           -2.751581668005    -1.665699936561     0.031692157022    12.000000000000
         H           -3.444061668005     1.091528063439    -0.025116842978     1.007825032230
         H           -2.292918668005    -2.415915936561    -0.613176842978     1.007825032230
         H           -2.804722668005    -2.052518936561     1.052111157022     1.007825032230
         H           -3.755953668005    -1.435857936561    -0.326765842978     1.007825032230
         H            2.927499331995     0.377217063439     0.115262157022     1.007825032230
         H            2.117945331995    -3.016173936561    -0.082325842978     1.007825032230
         H            3.315643331995    -1.917254936561    -0.511991842978     1.007825032230

  Basis Set: AUG-CC-PVTZ
    Blend: AUG-CC-PVTZ
  Basis Set: (AUG-CC-PVTZ AUX)
    Blend: AUG-CC-PVTZ-JKFIT
	 Reference Energy          =    -578.6278907447815527 [Eh]
	 Singles Energy            =      -0.0000000000000000 [Eh]
	 Same-Spin Energy          =      -0.6155505834051489 [Eh]
	 Opposite-Spin Energy      =      -1.8194634112588517 [Eh]
	 Correlation Energy        =      -2.4350139946640006 [Eh]
	 Total Energy              =    -581.0629047394455711 [Eh]

	 ================> DF-SCS-MP2 Energies <==================
	-----------------------------------------------------------
	 SCS Same-Spin Scale       =       0.3333333333333333 [-]
	 SCS Opposite-Spin Scale   =       1.2000000000000000 [-]
	 SCS Same-Spin Energy      =      -0.2051835278017163 [Eh]
	 SCS Opposite-Spin Energy  =      -2.1833560935106218 [Eh]
	 SCS Correlation Energy    =      -2.3885396213123382 [Eh]
	 SCS Total Energy          =    -581.0164303660939140 [Eh]
	-----------------------------------------------------------

  Dipole Moment: [D]
     X:    -0.8993      Y:    -6.7158      Z:    -0.8603     Total:     6.8302

*** Psi4 exiting successfully. Buy a developer a beer!
