                               Psi4 1.3.2 release

  ==> Input File <==

--------------------------------------------------------------------------
#psi4
#
memory 32 gb

molecule  {
0 1
  O       -1.4697740     2.5644010     0.0803940
  N        1.9191590    -0.5831280    -0.0556370
  N       -1.9102790     0.3061000     0.0485010
  N       -0.3427170    -1.4672350    -0.0387560
  N        1.5166440     1.6409000    -0.0105650
  N       -2.6294290    -1.9169300     0.1110730
  C        0.5604551    -0.4131733    -0.0296668
  C        0.3337570     0.9396730    -0.0094060
  C       -1.0221650     1.4237120     0.0351730
  C        2.4390620     0.6894910    -0.0699270
  C       -1.5730580    -1.0260450     0.0187980
  C        2.6572834    -1.8326283    -0.0659949
  H        3.5092610     0.8590810    -0.0866130
  H        2.3729340    -2.4304260     0.8177420
  H        2.3794720    -2.4140780    -0.9605130
  H        3.7041390    -1.6305860    -0.0592400
  H       -2.8879820     0.5691470     0.1693100
  H       -2.3258040    -2.8676930    -0.0642460
  H       -3.4596940    -1.6726380    -0.4173570
units angstrom
no_reorient  #important for SAPT in psi4, default
symmetry c1  #important for SAPT in psi4, default
}

set PROPERTIES_ORIGIN ["COM"]
properties('MP2/aug-cc-pvtz', properties = ['dipole'])
--------------------------------------------------------------------------

    Molecular point group: c1
  Charge       = 0
  Multiplicity = 1
  Basis Set: AUG-CC-PVTZ
    Blend: AUG-CC-PVTZ
  Basis Set: (AUG-CC-PVTZ AUX)
    Blend: AUG-CC-PVTZ-JKFIT

    Orbital Energies [Eh]
    ---------------------

    Doubly Occupied:

       1A    -20.522931     2A    -15.632475     3A    -15.628632
       4A    -15.609594     5A    -15.570418     6A    -15.558744
       7A    -11.394244     8A    -11.365903     9A    -11.317386
      10A    -11.307326    11A    -11.289812    12A    -11.246170
      13A     -1.391208    14A     -1.361524    15A     -1.333305
      16A     -1.218738    17A     -1.211956    18A     -1.189917
      19A     -1.032807    20A     -0.987352    21A     -0.900830
      22A     -0.879656    23A     -0.807567    24A     -0.769593
      25A     -0.740299    26A     -0.728201    27A     -0.691594
      28A     -0.669386    29A     -0.651641    30A     -0.639656
      31A     -0.624798    32A     -0.611517    33A     -0.594246
      34A     -0.584461    35A     -0.559537    36A     -0.540516
      37A     -0.492897    38A     -0.457158    39A     -0.440379
      40A     -0.430815    41A     -0.427855    42A     -0.392138
      43A     -0.302482

  @DF-RHF Final Energy:  -578.62993141009133

   => Energetics <=

    Nuclear Repulsion Energy =            693.4945956091428343
    One-Electron Energy =               -2164.0337256935081314
    Two-Electron Energy =                 891.9091986742739664
    Total Energy =                       -578.6299314100913307
  Basis Set: (AUG-CC-PVTZ AUX)
    Blend: AUG-CC-PVTZ-RI
    Molecular point group: c1

    Geometry (in Angstrom), charge = 0, multiplicity = 1:

       Center              X                  Y                   Z               Mass
    ------------   -----------------  -----------------  -----------------  -----------------
         O           -1.471567462498     2.561752333094     0.080437719362    15.994914619570
         N            1.917365537502    -0.585776666906    -0.055593280638    14.003074004430
         N           -1.912072462498     0.303451333094     0.048544719362    14.003074004430
         N           -0.344510462498    -1.469883666906    -0.038712280638    14.003074004430
         N            1.514850537502     1.638251333094    -0.010521280638    14.003074004430
         N           -2.631222462498    -1.919578666906     0.111116719362    14.003074004430
         C            0.558661637502    -0.415821966906    -0.029623080638    12.000000000000
         C            0.331963537502     0.937024333094    -0.009362280638    12.000000000000
         C           -1.023958462498     1.421063333094     0.035216719362    12.000000000000
         C            2.437268537502     0.686842333094    -0.069883280638    12.000000000000
         C           -1.574851462498    -1.028693666906     0.018841719362    12.000000000000
         C            2.655489937502    -1.835276966906    -0.065951180638    12.000000000000
         H            3.507467537502     0.856432333094    -0.086569280638     1.007825032230
         H            2.371140537502    -2.433074666906     0.817785719362     1.007825032230
         H            2.377678537502    -2.416726666906    -0.960469280638     1.007825032230
         H            3.702345537502    -1.633234666906    -0.059196280638     1.007825032230
         H           -2.889775462498     0.566498333094     0.169353719362     1.007825032230
         H           -2.327597462498    -2.870341666906    -0.064202280638     1.007825032230
         H           -3.461487462498    -1.675286666906    -0.417313280638     1.007825032230

  Basis Set: AUG-CC-PVTZ
    Blend: AUG-CC-PVTZ
  Basis Set: (AUG-CC-PVTZ AUX)
    Blend: AUG-CC-PVTZ-JKFIT
	 Reference Energy          =    -578.6299314100913307 [Eh]
	 Singles Energy            =      -0.0000000000000000 [Eh]
	 Same-Spin Energy          =      -0.6155671653157974 [Eh]
	 Opposite-Spin Energy      =      -1.8195762765527452 [Eh]
	 Correlation Energy        =      -2.4351434418685427 [Eh]
	 Total Energy              =    -581.0650748519598210 [Eh]

	 ================> DF-SCS-MP2 Energies <==================
	-----------------------------------------------------------
	 SCS Same-Spin Scale       =       0.3333333333333333 [-]
	 SCS Opposite-Spin Scale   =       1.2000000000000000 [-]
	 SCS Same-Spin Energy      =      -0.2051890551052658 [Eh]
	 SCS Opposite-Spin Energy  =      -2.1834915318632944 [Eh]
	 SCS Correlation Energy    =      -2.3886805869685603 [Eh]
	 SCS Total Energy          =    -581.0186119970599066 [Eh]
	-----------------------------------------------------------

  Dipole Moment: [D]
     X:     0.0094      Y:    -6.7260      Z:    -0.9369     Total:     6.7910

*** Psi4 exiting successfully. Buy a developer a beer!
