                               Psi4 1.3.2 release

  ==> Input File <==

--------------------------------------------------------------------------
#psi4
#
memory 32 gb

molecule  {
0 1
  O       -1.4697740     2.5644010     0.0803940
  N        1.9191590    -0.5831280    -0.0556370
  N       -1.9102790     0.3061000     0.0485010
  N       -0.3427170    -1.4672350    -0.0387560
  N        1.5166440     1.6409000    -0.0105650
  N       -2.6294290    -1.9169300     0.1110730
  C        0.5576980    -0.4369160    -0.0295360
  C        0.3337570     0.9396730    -0.0094060
  C       -1.0221650     1.4237120     0.0351730
  C        2.4390620     0.6894910    -0.0699270
  C       -1.5730580    -1.0260450     0.0187980
  C        2.6353690    -1.8453210    -0.0655260
  H        3.5092610     0.8590810    -0.0866130
  H        2.3729340    -2.4304260     0.8177420
  H        2.3794720    -2.4140780    -0.9605130
  H        3.7041390    -1.6305860    -0.0592400
  H       -2.8879820     0.5691470     0.1693100
  H       -2.3325549    -2.8687735    -0.0698548
  H       -3.4597820    -1.6807488    -0.4208943
units angstrom
no_reorient  #important for SAPT in psi4, default
symmetry c1  #important for SAPT in psi4, default
}

set PROPERTIES_ORIGIN ["COM"]
properties('MP2/aug-cc-pvtz', properties = ['dipole'])
--------------------------------------------------------------------------

    Molecular point group: c1
  Charge       = 0
  Multiplicity = 1
  Basis Set: AUG-CC-PVTZ
    Blend: AUG-CC-PVTZ
  Basis Set: (AUG-CC-PVTZ AUX)
    Blend: AUG-CC-PVTZ-JKFIT

    Orbital Energies [Eh]
    ---------------------

    Doubly Occupied:

       1A    -20.520877     2A    -15.632890     3A    -15.629324
       4A    -15.610626     5A    -15.570935     6A    -15.559606
       7A    -11.396214     8A    -11.364270     9A    -11.319124
      10A    -11.307302    11A    -11.289384    12A    -11.246993
      13A     -1.390663    14A     -1.360577    15A     -1.333953
      16A     -1.219095    17A     -1.216208    18A     -1.190658
      19A     -1.029506    20A     -0.986478    21A     -0.901598
      22A     -0.882541    23A     -0.807737    24A     -0.766654
      25A     -0.741071    26A     -0.730110    27A     -0.690971
      28A     -0.671102    29A     -0.649598    30A     -0.642293
      31A     -0.626532    32A     -0.610470    33A     -0.593713
      34A     -0.578533    35A     -0.561038    36A     -0.541597
      37A     -0.493734    38A     -0.459429    39A     -0.439930
      40A     -0.429310    41A     -0.428812    42A     -0.392725
      43A     -0.298444

  @DF-RHF Final Energy:  -578.63070342739650

   => Energetics <=

    Nuclear Repulsion Energy =            693.4264315525254005
    One-Electron Energy =               -2163.8890211711409393
    Two-Electron Energy =                 891.8318861912190414
    Total Energy =                       -578.6307034273964973
  Basis Set: (AUG-CC-PVTZ AUX)
    Blend: AUG-CC-PVTZ-RI
    Molecular point group: c1

    Geometry (in Angstrom), charge = 0, multiplicity = 1:

       Center              X                  Y                   Z               Mass
    ------------   -----------------  -----------------  -----------------  -----------------
         O           -1.469732123057     2.564457254550     0.080449964646    15.994914619570
         N            1.919200876943    -0.583071745450    -0.055581035354    14.003074004430
         N           -1.910237123057     0.306156254550     0.048556964646    14.003074004430
         N           -0.342675123057    -1.467178745450    -0.038700035354    14.003074004430
         N            1.516685876943     1.640956254550    -0.010509035354    14.003074004430
         N           -2.629387123057    -1.916873745450     0.111128964646    14.003074004430
         C            0.557739876943    -0.436859745450    -0.029480035354    12.000000000000
         C            0.333798876943     0.939729254550    -0.009350035354    12.000000000000
         C           -1.022123123057     1.423768254550     0.035228964646    12.000000000000
         C            2.439103876943     0.689547254550    -0.069871035354    12.000000000000
         C           -1.573016123057    -1.025988745450     0.018853964646    12.000000000000
         C            2.635410876943    -1.845264745450    -0.065470035354    12.000000000000
         H            3.509302876943     0.859137254550    -0.086557035354     1.007825032230
         H            2.372975876943    -2.430369745450     0.817797964646     1.007825032230
         H            2.379513876943    -2.414021745450    -0.960457035354     1.007825032230
         H            3.704180876943    -1.630529745450    -0.059184035354     1.007825032230
         H           -2.887940123057     0.569203254550     0.169365964646     1.007825032230
         H           -2.332513023057    -2.868717245450    -0.069798835354     1.007825032230
         H           -3.459740123057    -1.680692545450    -0.420838335354     1.007825032230

  Basis Set: AUG-CC-PVTZ
    Blend: AUG-CC-PVTZ
  Basis Set: (AUG-CC-PVTZ AUX)
    Blend: AUG-CC-PVTZ-JKFIT
	 Reference Energy          =    -578.6307034273964973 [Eh]
	 Singles Energy            =      -0.0000000000000000 [Eh]
	 Same-Spin Energy          =      -0.6160712793655039 [Eh]
	 Opposite-Spin Energy      =      -1.8198228988328193 [Eh]
	 Correlation Energy        =      -2.4358941781983230 [Eh]
	 Total Energy              =    -581.0665976055947795 [Eh]

	 ================> DF-SCS-MP2 Energies <==================
	-----------------------------------------------------------
	 SCS Same-Spin Scale       =       0.3333333333333333 [-]
	 SCS Opposite-Spin Scale   =       1.2000000000000000 [-]
	 SCS Same-Spin Energy      =      -0.2053570931218346 [Eh]
	 SCS Opposite-Spin Energy  =      -2.1837874785993829 [Eh]
	 SCS Correlation Energy    =      -2.3891445717212174 [Eh]
	 SCS Total Energy          =    -581.0198479991177010 [Eh]
	-----------------------------------------------------------

  Dipole Moment: [D]
     X:    -0.0106      Y:    -6.7942      Z:    -0.9489     Total:     6.8602

*** Psi4 exiting successfully. Buy a developer a beer!
