                               Psi4 1.3.2 release

  ==> Input File <==

--------------------------------------------------------------------------
#psi4
#
memory 32 gb

molecule  {
0 1
  O       -1.4697740     2.5644010     0.0803940
  N        1.9191590    -0.5831280    -0.0556370
  N       -1.9102790     0.3061000     0.0485010
  N       -0.3427170    -1.4672350    -0.0387560
  N        1.5166440     1.6409000    -0.0105650
  N       -2.6294290    -1.9169300     0.1110730
  C        0.5576980    -0.4369160    -0.0295360
  C        0.3337570     0.9396730    -0.0094060
  C       -1.0221650     1.4237120     0.0351730
  C        2.3717564     0.7149658    -0.0686951
  C       -1.5730580    -1.0260450     0.0187980
  C        2.5683440    -1.8810775    -0.0641006
  H        3.5092610     0.8590810    -0.0866130
  H        2.3729340    -2.4304260     0.8177420
  H        2.3794720    -2.4140780    -0.9605130
  H        3.7041390    -1.6305860    -0.0592400
  H       -2.8879820     0.5691470     0.1693100
  H       -2.3258040    -2.8676930    -0.0642460
  H       -3.4596940    -1.6726380    -0.4173570
units angstrom
no_reorient  #important for SAPT in psi4, default
symmetry c1  #important for SAPT in psi4, default
}

set PROPERTIES_ORIGIN ["COM"]
properties('MP2/aug-cc-pvtz', properties = ['dipole'])
--------------------------------------------------------------------------

    Molecular point group: c1
  Charge       = 0
  Multiplicity = 1
  Basis Set: AUG-CC-PVTZ
    Blend: AUG-CC-PVTZ
  Basis Set: (AUG-CC-PVTZ AUX)
    Blend: AUG-CC-PVTZ-JKFIT

    Orbital Energies [Eh]
    ---------------------

    Doubly Occupied:

       1A    -20.519203     2A    -15.629014     3A    -15.628657
       4A    -15.611238     5A    -15.571008     6A    -15.556000
       7A    -11.396849     8A    -11.362789     9A    -11.319214
      10A    -11.307565    11A    -11.291400    12A    -11.245915
      13A     -1.392212    14A     -1.366167    15A     -1.336097
      16A     -1.227121    17A     -1.219080    18A     -1.197634
      19A     -1.031529    20A     -0.988133    21A     -0.897577
      22A     -0.884136    23A     -0.802772    24A     -0.768796
      25A     -0.744686    26A     -0.725959    27A     -0.691878
      28A     -0.679161    29A     -0.653226    30A     -0.639252
      31A     -0.628121    32A     -0.611466    33A     -0.583571
      34A     -0.574852    35A     -0.552373    36A     -0.542617
      37A     -0.496244    38A     -0.462463    39A     -0.440861
      40A     -0.431448    41A     -0.429828    42A     -0.398203
      43A     -0.302872

  @DF-RHF Final Energy:  -578.62031822818608

   => Energetics <=

    Nuclear Repulsion Energy =            695.3145869964971553
    One-Electron Energy =               -2167.5914353878379188
    Two-Electron Energy =                 893.6565301631546845
    Total Energy =                       -578.6203182281860791
  Basis Set: (AUG-CC-PVTZ AUX)
    Blend: AUG-CC-PVTZ-RI
    Molecular point group: c1

    Geometry (in Angstrom), charge = 0, multiplicity = 1:

       Center              X                  Y                   Z               Mass
    ------------   -----------------  -----------------  -----------------  -----------------
         O           -1.460008231237     2.565148601210     0.080200939998    15.994914619570
         N            1.928924768763    -0.582380398790    -0.055830060002    14.003074004430
         N           -1.900513231237     0.306847601210     0.048307939998    14.003074004430
         N           -0.332951231237    -1.466487398790    -0.038949060002    14.003074004430
         N            1.526409768763     1.641647601210    -0.010758060002    14.003074004430
         N           -2.619663231237    -1.916182398790     0.110879939998    14.003074004430
         C            0.567463768763    -0.436168398790    -0.029729060002    12.000000000000
         C            0.343522768763     0.940420601210    -0.009599060002    12.000000000000
         C           -1.012399231237     1.424459601210     0.034979939998    12.000000000000
         C            2.381522168763     0.715713401210    -0.068888160002    12.000000000000
         C           -1.563292231237    -1.025297398790     0.018604939998    12.000000000000
         C            2.578109768763    -1.880329898790    -0.064293660002    12.000000000000
         H            3.519026768763     0.859828601210    -0.086806060002     1.007825032230
         H            2.382699768763    -2.429678398790     0.817548939998     1.007825032230
         H            2.389237768763    -2.413330398790    -0.960706060002     1.007825032230
         H            3.713904768763    -1.629838398790    -0.059433060002     1.007825032230
         H           -2.878216231237     0.569894601210     0.169116939998     1.007825032230
         H           -2.316038231237    -2.866945398790    -0.064439060002     1.007825032230
         H           -3.449928231237    -1.671890398790    -0.417550060002     1.007825032230

  Basis Set: AUG-CC-PVTZ
    Blend: AUG-CC-PVTZ
  Basis Set: (AUG-CC-PVTZ AUX)
    Blend: AUG-CC-PVTZ-JKFIT
	 Reference Energy          =    -578.6203182281860791 [Eh]
	 Singles Energy            =      -0.0000000000000000 [Eh]
	 Same-Spin Energy          =      -0.6149074699541428 [Eh]
	 Opposite-Spin Energy      =      -1.8176856959197503 [Eh]
	 Correlation Energy        =      -2.4325931658738931 [Eh]
	 Total Energy              =    -581.0529113940599473 [Eh]

	 ================> DF-SCS-MP2 Energies <==================
	-----------------------------------------------------------
	 SCS Same-Spin Scale       =       0.3333333333333333 [-]
	 SCS Opposite-Spin Scale   =       1.2000000000000000 [-]
	 SCS Same-Spin Energy      =      -0.2049691566513809 [Eh]
	 SCS Opposite-Spin Energy  =      -2.1812228351037004 [Eh]
	 SCS Correlation Energy    =      -2.3861919917550813 [Eh]
	 SCS Total Energy          =    -581.0065102199411058 [Eh]
	-----------------------------------------------------------

  Dipole Moment: [D]
     X:    -0.1126      Y:    -6.7460      Z:    -0.9355     Total:     6.8115

*** Psi4 exiting successfully. Buy a developer a beer!
