                               Psi4 1.4a3.dev225

  ==> Input File <==

--------------------------------------------------------------------------
#psi4
#
memory 32 gb

molecule  {
0 1
  O        1.6617960     2.5152110     0.0229320
  N       -1.9329240    -0.4005880    -0.0147920
  N        1.9545050     0.2323110     0.0113410
  N        0.2669280    -1.4301930    -0.0208730
  N       -1.3834780     1.7915450    -0.0193170
  N        2.5221760    -2.0364130     0.0734370
  C       -0.5634760    -0.3442740    -0.0026930
  C       -0.2488450     1.0144850    -0.0147620
  C        1.1380320     1.4076430     0.0031510
  C       -2.3683130     0.9036150    -0.0164120
  C        1.5275980    -1.0721200    -0.0057920
  C       -2.7432582    -1.6294061     0.0345835
  H       -3.4247340     1.1445090    -0.0228960
  H       -2.2735910    -2.3629350    -0.6109560
  H       -2.7853950    -1.9995380     1.0543320
  H       -3.7366260    -1.3828770    -0.3245450
  H        2.9468270     0.4301980     0.1174830
  H        2.1372730    -2.9631930    -0.0801050
  H        3.3349710    -1.8642740    -0.5097710
units angstrom
no_reorient  #important for SAPT in psi4, default
symmetry c1  #important for SAPT in psi4, default
}

set PROPERTIES_ORIGIN ["COM"]
properties('MP2/aug-cc-pvtz', properties = ['dipole'])
--------------------------------------------------------------------------

    Molecular point group: c1
  Charge       = 0
  Multiplicity = 1
  Basis Set: AUG-CC-PVTZ
    Blend: AUG-CC-PVTZ
  Basis Set: (AUG-CC-PVTZ AUX)
    Blend: AUG-CC-PVTZ-JKFIT

    Orbital Energies [Eh]
    ---------------------

    Doubly Occupied:

       1A    -20.521032     2A    -15.632193     3A    -15.629060
       4A    -15.610498     5A    -15.570739     6A    -15.559267
       7A    -11.395706     8A    -11.364525     9A    -11.318976
      10A    -11.306424    11A    -11.289839    12A    -11.246674
      13A     -1.390238    14A     -1.358955    15A     -1.333065
      16A     -1.218335    17A     -1.215385    18A     -1.187621
      19A     -1.028461    20A     -0.986643    21A     -0.900579
      22A     -0.881542    23A     -0.806671    24A     -0.765221
      25A     -0.740522    26A     -0.727997    27A     -0.690665
      28A     -0.670059    29A     -0.646295    30A     -0.642123
      31A     -0.625763    32A     -0.609907    33A     -0.593567
      34A     -0.581962    35A     -0.563114    36A     -0.541854
      37A     -0.492523    38A     -0.460038    39A     -0.439639
      40A     -0.429323    41A     -0.428598    42A     -0.392831
      43A     -0.298048

  @DF-RHF Final Energy:  -578.63023962922205

   => Energetics <=

    Nuclear Repulsion Energy =            692.7430478429330378
    One-Electron Energy =               -2162.5616248388491840
    Two-Electron Energy =                 891.1883373666940997
    Total Energy =                       -578.6302396292220465
  Basis Set: (AUG-CC-PVTZ AUX)
    Blend: AUG-CC-PVTZ-RI
    Molecular point group: c1

    Geometry (in Angstrom), charge = 0, multiplicity = 1:

       Center              X                  Y                   Z               Mass
    ------------   -----------------  -----------------  -----------------  -----------------
         O            1.639771933372     2.462450100314     0.020620589097    15.994914619570
         N           -1.954948066628    -0.453348899686    -0.017103410903    14.003074004430
         N            1.932480933372     0.179550100314     0.009029589097    14.003074004430
         N            0.244903933372    -1.482953899686    -0.023184410903    14.003074004430
         N           -1.405502066628     1.738784100314    -0.021628410903    14.003074004430
         N            2.500151933372    -2.089173899686     0.071125589097    14.003074004430
         C           -0.585500066628    -0.397034899686    -0.005004410903    12.000000000000
         C           -0.270869066628     0.961724100314    -0.017073410903    12.000000000000
         C            1.116007933372     1.354882100314     0.000839589097    12.000000000000
         C           -2.390337066628     0.850854100314    -0.018723410903    12.000000000000
         C            1.505573933372    -1.124880899686    -0.008103410903    12.000000000000
         C           -2.765282266628    -1.682166999686     0.032272089097    12.000000000000
         H           -3.446758066628     1.091748100314    -0.025207410903     1.007825032230
         H           -2.295615066628    -2.415695899686    -0.613267410903     1.007825032230
         H           -2.807419066628    -2.052298899686     1.052020589097     1.007825032230
         H           -3.758650066628    -1.435637899686    -0.326856410903     1.007825032230
         H            2.924802933372     0.377437100314     0.115171589097     1.007825032230
         H            2.115248933372    -3.015953899686    -0.082416410903     1.007825032230
         H            3.312946933372    -1.917034899686    -0.512082410903     1.007825032230

  Basis Set: AUG-CC-PVTZ
    Blend: AUG-CC-PVTZ
  Basis Set: (AUG-CC-PVTZ AUX)
    Blend: AUG-CC-PVTZ-JKFIT
	 Reference Energy          =    -578.6302396292220465 [Eh]
	 Singles Energy            =      -0.0000000000000000 [Eh]
	 Same-Spin Energy          =      -0.6159849786398019 [Eh]
	 Opposite-Spin Energy      =      -1.8198293172558637 [Eh]
	 Correlation Energy        =      -2.4358142958956659 [Eh]
	 Total Energy              =    -581.0660539251176715 [Eh]

	 ================> DF-SCS-MP2 Energies <==================
	-----------------------------------------------------------
	 SCS Same-Spin Scale       =       0.3333333333333333 [-]
	 SCS Opposite-Spin Scale   =       1.2000000000000000 [-]
	 SCS Same-Spin Energy      =      -0.2053283262132673 [Eh]
	 SCS Opposite-Spin Energy  =      -2.1837951807070364 [Eh]
	 SCS Correlation Energy    =      -2.3891235069203036 [Eh]
	 SCS Total Energy          =    -581.0193631361423741 [Eh]
	-----------------------------------------------------------

  Dipole Moment: [D]
     X:    -0.5702      Y:    -6.7949      Z:    -0.8462     Total:     6.8711

*** Psi4 exiting successfully. Buy a developer a beer!
