                               Psi4 1.3.2 release

  ==> Input File <==

--------------------------------------------------------------------------
#psi4
#
memory 32 gb

molecule  {
0 1
  O       -1.4697740     2.5644010     0.0803940
  N        1.9191590    -0.5831280    -0.0556370
  N       -1.9102790     0.3061000     0.0485010
  N       -0.3427170    -1.4672350    -0.0387560
  N        1.5166440     1.6409000    -0.0105650
  N       -2.6294290    -1.9169300     0.1110730
  C        0.5576980    -0.4369160    -0.0295360
  C        0.3337570     0.9396730    -0.0094060
  C       -1.0613698     1.4538297     0.0414081
  C        2.4390620     0.6894910    -0.0699270
  C       -1.5730580    -1.0260450     0.0187980
  C        2.6353690    -1.8453210    -0.0655260
  H        3.5092610     0.8590810    -0.0866130
  H        2.3729340    -2.4304260     0.8177420
  H        2.3794720    -2.4140780    -0.9605130
  H        3.7041390    -1.6305860    -0.0592400
  H       -2.8779813     0.6032759     0.1706911
  H       -2.3258040    -2.8676930    -0.0642460
  H       -3.4596940    -1.6726380    -0.4173570
units angstrom
no_reorient  #important for SAPT in psi4, default
symmetry c1  #important for SAPT in psi4, default
}

set PROPERTIES_ORIGIN ["COM"]
properties('MP2/aug-cc-pvtz', properties = ['dipole'])
--------------------------------------------------------------------------

    Molecular point group: c1
  Charge       = 0
  Multiplicity = 1
  Basis Set: AUG-CC-PVTZ
    Blend: AUG-CC-PVTZ
  Basis Set: (AUG-CC-PVTZ AUX)
    Blend: AUG-CC-PVTZ-JKFIT

    Orbital Energies [Eh]
    ---------------------

    Doubly Occupied:

       1A    -20.531717     2A    -15.629206     3A    -15.626809
       4A    -15.608844     5A    -15.567915     6A    -15.556211
       7A    -11.394884     8A    -11.365556     9A    -11.312677
      10A    -11.302883    11A    -11.286754    12A    -11.245887
      13A     -1.412605    14A     -1.364696    15A     -1.334934
      16A     -1.219869    17A     -1.213489    18A     -1.187086
      19A     -1.021247    20A     -0.980998    21A     -0.894631
      22A     -0.882241    23A     -0.806730    24A     -0.763637
      25A     -0.735708    26A     -0.725995    27A     -0.691388
      28A     -0.668030    29A     -0.654595    30A     -0.638933
      31A     -0.626276    32A     -0.622755    33A     -0.590263
      34A     -0.576531    35A     -0.559362    36A     -0.551820
      37A     -0.491126    38A     -0.458370    39A     -0.444268
      40A     -0.432925    41A     -0.426713    42A     -0.389434
      43A     -0.293986

  @DF-RHF Final Energy:  -578.62913765601638

   => Energetics <=

    Nuclear Repulsion Energy =            693.1256532335791007
    One-Electron Energy =               -2163.3296167955732017
    Two-Electron Energy =                 891.5748259059776046
    Total Energy =                       -578.6291376560163826
  Basis Set: (AUG-CC-PVTZ AUX)
    Blend: AUG-CC-PVTZ-RI
    Molecular point group: c1

    Geometry (in Angstrom), charge = 0, multiplicity = 1:

       Center              X                  Y                   Z               Mass
    ------------   -----------------  -----------------  -----------------  -----------------
         O           -1.466984804940     2.562003242888     0.079932406444    15.994914619570
         N            1.921948195060    -0.585525757112    -0.056098593556    14.003074004430
         N           -1.907489804940     0.303702242888     0.048039406444    14.003074004430
         N           -0.339927804940    -1.469632757112    -0.039217593556    14.003074004430
         N            1.519433195060     1.638502242888    -0.011026593556    14.003074004430
         N           -2.626639804940    -1.919327757112     0.110611406444    14.003074004430
         C            0.560487195060    -0.439313757112    -0.029997593556    12.000000000000
         C            0.336546195060     0.937275242888    -0.009867593556    12.000000000000
         C           -1.058580604940     1.451431942888     0.040946506444    12.000000000000
         C            2.441851195060     0.687093242888    -0.070388593556    12.000000000000
         C           -1.570268804940    -1.028442757112     0.018336406444    12.000000000000
         C            2.638158195060    -1.847718757112    -0.065987593556    12.000000000000
         H            3.512050195060     0.856683242888    -0.087074593556     1.007825032230
         H            2.375723195060    -2.432823757112     0.817280406444     1.007825032230
         H            2.382261195060    -2.416475757112    -0.960974593556     1.007825032230
         H            3.706928195060    -1.632983757112    -0.059701593556     1.007825032230
         H           -2.875192104940     0.600878142888     0.170229506444     1.007825032230
         H           -2.323014804940    -2.870090757112    -0.064707593556     1.007825032230
         H           -3.456904804940    -1.675035757112    -0.417818593556     1.007825032230

  Basis Set: AUG-CC-PVTZ
    Blend: AUG-CC-PVTZ
  Basis Set: (AUG-CC-PVTZ AUX)
    Blend: AUG-CC-PVTZ-JKFIT
	 Reference Energy          =    -578.6291376560163826 [Eh]
	 Singles Energy            =      -0.0000000000000000 [Eh]
	 Same-Spin Energy          =      -0.6152688409912186 [Eh]
	 Opposite-Spin Energy      =      -1.8183529884223129 [Eh]
	 Correlation Energy        =      -2.4336218294135312 [Eh]
	 Total Energy              =    -581.0627594854298650 [Eh]

	 ================> DF-SCS-MP2 Energies <==================
	-----------------------------------------------------------
	 SCS Same-Spin Scale       =       0.3333333333333333 [-]
	 SCS Opposite-Spin Scale   =       1.2000000000000000 [-]
	 SCS Same-Spin Energy      =      -0.2050896136637395 [Eh]
	 SCS Opposite-Spin Energy  =      -2.1820235861067752 [Eh]
	 SCS Correlation Energy    =      -2.3871131997705146 [Eh]
	 SCS Total Energy          =    -581.0162508557868932 [Eh]
	-----------------------------------------------------------

  Dipole Moment: [D]
     X:    -0.2845      Y:    -6.3975      Z:    -0.9168     Total:     6.4692

*** Psi4 exiting successfully. Buy a developer a beer!
