                               Psi4 1.3.2 release

  ==> Input File <==

--------------------------------------------------------------------------
#psi4
#
memory 32 gb

molecule  {
0 1
  O       -1.4697740     2.5644010     0.0803940
  N        1.9416529    -0.5710380    -0.0993853
  N       -1.9102790     0.3061000     0.0485010
  N       -0.3427170    -1.4672350    -0.0387560
  N        1.5166440     1.6409000    -0.0105650
  N       -2.6294290    -1.9169300     0.1110730
  C        0.5576980    -0.4369160    -0.0295360
  C        0.3337570     0.9396730    -0.0094060
  C       -1.0221650     1.4237120     0.0351730
  C        2.4390620     0.6894910    -0.0699270
  C       -1.5730580    -1.0260450     0.0187980
  C        2.6353690    -1.8453210    -0.0655260
  H        3.5092610     0.8590810    -0.0866130
  H        2.3964335    -2.4578933     0.8057072
  H        2.3794720    -2.4140780    -0.9605130
  H        3.7041390    -1.6305860    -0.0592400
  H       -2.8879820     0.5691470     0.1693100
  H       -2.3258040    -2.8676930    -0.0642460
  H       -3.4596940    -1.6726380    -0.4173570
units angstrom
no_reorient  #important for SAPT in psi4, default
symmetry c1  #important for SAPT in psi4, default
}

set PROPERTIES_ORIGIN ["COM"]
properties('MP2/aug-cc-pvtz', properties = ['dipole'])
--------------------------------------------------------------------------

    Molecular point group: c1
  Charge       = 0
  Multiplicity = 1
  Basis Set: AUG-CC-PVTZ
    Blend: AUG-CC-PVTZ
  Basis Set: (AUG-CC-PVTZ AUX)
    Blend: AUG-CC-PVTZ-JKFIT

    Orbital Energies [Eh]
    ---------------------

    Doubly Occupied:

       1A    -20.521764     2A    -15.633717     3A    -15.629982
       4A    -15.610725     5A    -15.571813     6A    -15.557033
       7A    -11.396107     8A    -11.365003     9A    -11.320143
      10A    -11.307036    11A    -11.289443    12A    -11.248491
      13A     -1.390910    14A     -1.360277    15A     -1.334671
      16A     -1.219427    17A     -1.215655    18A     -1.190648
      19A     -1.028606    20A     -0.986917    21A     -0.903596
      22A     -0.882298    23A     -0.807748    24A     -0.766598
      25A     -0.741511    26A     -0.729130    27A     -0.692649
      28A     -0.670033    29A     -0.653148    30A     -0.641773
      31A     -0.626872    32A     -0.612566    33A     -0.592695
      34A     -0.573312    35A     -0.561008    36A     -0.541327
      37A     -0.494008    38A     -0.459852    39A     -0.439989
      40A     -0.429699    41A     -0.428643    42A     -0.393730
      43A     -0.297925

  @DF-RHF Final Energy:  -578.62878533156243

   => Energetics <=

    Nuclear Repulsion Energy =            693.0805195789746449
    One-Electron Energy =               -2163.1816495787488748
    Two-Electron Energy =                 891.4723446682118038
    Total Energy =                       -578.6287853315624261
  Basis Set: (AUG-CC-PVTZ AUX)
    Blend: AUG-CC-PVTZ-RI
    Molecular point group: c1

    Geometry (in Angstrom), charge = 0, multiplicity = 1:

       Center              X                  Y                   Z               Mass
    ------------   -----------------  -----------------  -----------------  -----------------
         O           -1.471825597870     2.563543201906     0.084178930589    15.994914619570
         N            1.939601302130    -0.571895798094    -0.095600369411    14.003074004430
         N           -1.912330597870     0.305242201906     0.052285930589    14.003074004430
         N           -0.344768597870    -1.468092798094    -0.034971069411    14.003074004430
         N            1.514592402130     1.640042201906    -0.006780069411    14.003074004430
         N           -2.631480597870    -1.917787798094     0.114857930589    14.003074004430
         C            0.555646402130    -0.437773798094    -0.025751069411    12.000000000000
         C            0.331705402130     0.938815201906    -0.005621069411    12.000000000000
         C           -1.024216597870     1.422854201906     0.038957930589    12.000000000000
         C            2.437010402130     0.688633201906    -0.066142069411    12.000000000000
         C           -1.575109597870    -1.026902798094     0.022582930589    12.000000000000
         C            2.633317402130    -1.846178798094    -0.061741069411    12.000000000000
         H            3.507209402130     0.858223201906    -0.082828069411     1.007825032230
         H            2.394381902130    -2.458751098094     0.809492130589     1.007825032230
         H            2.377420402130    -2.414935798094    -0.956728069411     1.007825032230
         H            3.702087402130    -1.631443798094    -0.055455069411     1.007825032230
         H           -2.890033597870     0.568289201906     0.173094930589     1.007825032230
         H           -2.327855597870    -2.868550798094    -0.060461069411     1.007825032230
         H           -3.461745597870    -1.673495798094    -0.413572069411     1.007825032230

  Basis Set: AUG-CC-PVTZ
    Blend: AUG-CC-PVTZ
  Basis Set: (AUG-CC-PVTZ AUX)
    Blend: AUG-CC-PVTZ-JKFIT
	 Reference Energy          =    -578.6287853315624261 [Eh]
	 Singles Energy            =      -0.0000000000000000 [Eh]
	 Same-Spin Energy          =      -0.6162132497437909 [Eh]
	 Opposite-Spin Energy      =      -1.8200431072092755 [Eh]
	 Correlation Energy        =      -2.4362563569530664 [Eh]
	 Total Energy              =    -581.0650416885155209 [Eh]

	 ================> DF-SCS-MP2 Energies <==================
	-----------------------------------------------------------
	 SCS Same-Spin Scale       =       0.3333333333333333 [-]
	 SCS Opposite-Spin Scale   =       1.2000000000000000 [-]
	 SCS Same-Spin Energy      =      -0.2054044165812636 [Eh]
	 SCS Opposite-Spin Energy  =      -2.1840517286511307 [Eh]
	 SCS Correlation Energy    =      -2.3894561452323941 [Eh]
	 SCS Total Energy          =    -581.0182414767948558 [Eh]
	-----------------------------------------------------------

  Dipole Moment: [D]
     X:    -0.0669      Y:    -6.8011      Z:    -0.9092     Total:     6.8619

*** Psi4 exiting successfully. Buy a developer a beer!
