                               Psi4 1.3.2 release

  ==> Input File <==

--------------------------------------------------------------------------
#psi4
#
memory 32 gb

molecule  {
0 1
  O       -1.4697740     2.5644010     0.0803940
  N        1.9203855    -0.5712402    -0.0555198
  N       -1.9102790     0.3061000     0.0485010
  N       -0.3427170    -1.4672350    -0.0387560
  N        1.5166440     1.6409000    -0.0105650
  N       -2.6294290    -1.9169300     0.1110730
  C        0.5576980    -0.4369160    -0.0295360
  C        0.3457777     0.9415775    -0.0095990
  C       -1.0221650     1.4237120     0.0351730
  C        2.4390620     0.6894910    -0.0699270
  C       -1.5730580    -1.0260450     0.0187980
  C        2.6353690    -1.8453210    -0.0655260
  H        3.5092610     0.8590810    -0.0866130
  H        2.3729340    -2.4304260     0.8177420
  H        2.3794720    -2.4140780    -0.9605130
  H        3.7041390    -1.6305860    -0.0592400
  H       -2.8879820     0.5691470     0.1693100
  H       -2.3258040    -2.8676930    -0.0642460
  H       -3.4596940    -1.6726380    -0.4173570
units angstrom
no_reorient  #important for SAPT in psi4, default
symmetry c1  #important for SAPT in psi4, default
}

set PROPERTIES_ORIGIN ["COM"]
properties('MP2/aug-cc-pvtz', properties = ['dipole'])
--------------------------------------------------------------------------

    Molecular point group: c1
  Charge       = 0
  Multiplicity = 1
  Basis Set: AUG-CC-PVTZ
    Blend: AUG-CC-PVTZ
  Basis Set: (AUG-CC-PVTZ AUX)
    Blend: AUG-CC-PVTZ-JKFIT

    Orbital Energies [Eh]
    ---------------------

    Doubly Occupied:

       1A    -20.521666     2A    -15.633110     3A    -15.629433
       4A    -15.610437     5A    -15.570848     6A    -15.557538
       7A    -11.395639     8A    -11.365049     9A    -11.316841
      10A    -11.305526    11A    -11.290264    12A    -11.247166
      13A     -1.390933    14A     -1.362346    15A     -1.334600
      16A     -1.218735    17A     -1.216436    18A     -1.190704
      19A     -1.028294    20A     -0.986194    21A     -0.901896
      22A     -0.881945    23A     -0.807780    24A     -0.766038
      25A     -0.742027    26A     -0.729171    27A     -0.692129
      28A     -0.670992    29A     -0.648497    30A     -0.642238
      31A     -0.626218    32A     -0.610279    33A     -0.593423
      34A     -0.578596    35A     -0.562454    36A     -0.541710
      37A     -0.493559    38A     -0.459249    39A     -0.440769
      40A     -0.429163    41A     -0.427987    42A     -0.394016
      43A     -0.296790

  @DF-RHF Final Energy:  -578.63049200875355

   => Energetics <=

    Nuclear Repulsion Energy =            693.5423338035733423
    One-Electron Energy =               -2164.1282896828811317
    Two-Electron Energy =                 891.9554638705541265
    Total Energy =                       -578.6304920087535493
  Basis Set: (AUG-CC-PVTZ AUX)
    Blend: AUG-CC-PVTZ-RI
    Molecular point group: c1

    Geometry (in Angstrom), charge = 0, multiplicity = 1:

       Center              X                  Y                   Z               Mass
    ------------   -----------------  -----------------  -----------------  -----------------
         O           -1.470751815444     2.563254195796     0.080398210333    15.994914619570
         N            1.919407684556    -0.572387004204    -0.055515589667    14.003074004430
         N           -1.911256815444     0.304953195796     0.048505210333    14.003074004430
         N           -0.343694815444    -1.468381804204    -0.038751789667    14.003074004430
         N            1.515666184556     1.639753195796    -0.010560789667    14.003074004430
         N           -2.630406815444    -1.918076804204     0.111077210333    14.003074004430
         C            0.556720184556    -0.438062804204    -0.029531789667    12.000000000000
         C            0.344799884556     0.940430695796    -0.009594789667    12.000000000000
         C           -1.023142815444     1.422565195796     0.035177210333    12.000000000000
         C            2.438084184556     0.688344195796    -0.069922789667    12.000000000000
         C           -1.574035815444    -1.027191804204     0.018802210333    12.000000000000
         C            2.634391184556    -1.846467804204    -0.065521789667    12.000000000000
         H            3.508283184556     0.857934195796    -0.086608789667     1.007825032230
         H            2.371956184556    -2.431572804204     0.817746210333     1.007825032230
         H            2.378494184556    -2.415224804204    -0.960508789667     1.007825032230
         H            3.703161184556    -1.631732804204    -0.059235789667     1.007825032230
         H           -2.888959815444     0.568000195796     0.169314210333     1.007825032230
         H           -2.326781815444    -2.868839804204    -0.064241789667     1.007825032230
         H           -3.460671815444    -1.673784804204    -0.417352789667     1.007825032230

  Basis Set: AUG-CC-PVTZ
    Blend: AUG-CC-PVTZ
  Basis Set: (AUG-CC-PVTZ AUX)
    Blend: AUG-CC-PVTZ-JKFIT
	 Reference Energy          =    -578.6304920087535493 [Eh]
	 Singles Energy            =      -0.0000000000000000 [Eh]
	 Same-Spin Energy          =      -0.6161576552531624 [Eh]
	 Opposite-Spin Energy      =      -1.8197065634764136 [Eh]
	 Correlation Energy        =      -2.4358642187295758 [Eh]
	 Total Energy              =    -581.0663562274830838 [Eh]

	 ================> DF-SCS-MP2 Energies <==================
	-----------------------------------------------------------
	 SCS Same-Spin Scale       =       0.3333333333333333 [-]
	 SCS Opposite-Spin Scale   =       1.2000000000000000 [-]
	 SCS Same-Spin Energy      =      -0.2053858850843874 [Eh]
	 SCS Opposite-Spin Energy  =      -2.1836478761716962 [Eh]
	 SCS Correlation Energy    =      -2.3890337612560835 [Eh]
	 SCS Total Energy          =    -581.0195257700096363 [Eh]
	-----------------------------------------------------------

  Dipole Moment: [D]
     X:    -0.0149      Y:    -6.7956      Z:    -0.9376     Total:     6.8600

*** Psi4 exiting successfully. Buy a developer a beer!
