                               Psi4 1.3.2 release

  ==> Input File <==

--------------------------------------------------------------------------
#psi4
#
memory 32 gb

molecule  {
0 1
  O       -1.4697740     2.5644010     0.0803940
  N        1.9191590    -0.5831280    -0.0556370
  N       -1.9102790     0.3061000     0.0485010
  N       -0.3427170    -1.4672350    -0.0387560
  N        1.5166440     1.6409000    -0.0105650
  N       -2.6294290    -1.9169300     0.1110730
  C        0.5604551    -0.4131733    -0.0296671
  C        0.3337570     0.9396730    -0.0094060
  C       -1.0221650     1.4237120     0.0351730
  C        2.4167761     0.6983738    -0.0695209
  C       -1.5730580    -1.0260450     0.0187980
  C        2.6353690    -1.8453210    -0.0655260
  H        3.5092610     0.8590810    -0.0866130
  H        2.3729340    -2.4304260     0.8177420
  H        2.3794720    -2.4140780    -0.9605130
  H        3.7041390    -1.6305860    -0.0592400
  H       -2.8879820     0.5691470     0.1693100
  H       -2.3258040    -2.8676930    -0.0642460
  H       -3.4596940    -1.6726380    -0.4173570
units angstrom
no_reorient  #important for SAPT in psi4, default
symmetry c1  #important for SAPT in psi4, default
}

set PROPERTIES_ORIGIN ["COM"]
properties('MP2/aug-cc-pvtz', properties = ['dipole'])
--------------------------------------------------------------------------

    Molecular point group: c1
  Charge       = 0
  Multiplicity = 1
  Basis Set: AUG-CC-PVTZ
    Blend: AUG-CC-PVTZ
  Basis Set: (AUG-CC-PVTZ AUX)
    Blend: AUG-CC-PVTZ-JKFIT

    Orbital Energies [Eh]
    ---------------------

    Doubly Occupied:

       1A    -20.522313     2A    -15.630794     3A    -15.628455
       4A    -15.609697     5A    -15.570363     6A    -15.557524
       7A    -11.394402     8A    -11.365341     9A    -11.317262
      10A    -11.307291    11A    -11.290009    12A    -11.245681
      13A     -1.391441    14A     -1.363213    15A     -1.333842
      16A     -1.218784    17A     -1.215091    18A     -1.192028
      19A     -1.033530    20A     -0.987556    21A     -0.899111
      22A     -0.880452    23A     -0.805459    24A     -0.769679
      25A     -0.741382    26A     -0.726833    27A     -0.691302
      28A     -0.671451    29A     -0.652162    30A     -0.637809
      31A     -0.625154    32A     -0.612047    33A     -0.591791
      34A     -0.577470    35A     -0.563587    36A     -0.541276
      37A     -0.493845    38A     -0.457932    39A     -0.440593
      40A     -0.431395    41A     -0.428621    42A     -0.393892
      43A     -0.304012

  @DF-RHF Final Energy:  -578.63141441589653

   => Energetics <=

    Nuclear Repulsion Energy =            694.0872631531811976
    One-Electron Energy =               -2165.2136130921189761
    Two-Electron Energy =                 892.4949355230413630
    Total Energy =                       -578.6314144158965291
  Basis Set: (AUG-CC-PVTZ AUX)
    Blend: AUG-CC-PVTZ-RI
    Molecular point group: c1

    Geometry (in Angstrom), charge = 0, multiplicity = 1:

       Center              X                  Y                   Z               Mass
    ------------   -----------------  -----------------  -----------------  -----------------
         O           -1.468354162236     2.562029307518     0.080374129890    15.994914619570
         N            1.920578837764    -0.585499692482    -0.055656870110    14.003074004430
         N           -1.908859162236     0.303728307518     0.048481129890    14.003074004430
         N           -0.341297162236    -1.469606692482    -0.038775870110    14.003074004430
         N            1.518063837764     1.638528307518    -0.010584870110    14.003074004430
         N           -2.628009162236    -1.919301692482     0.111053129890    14.003074004430
         C            0.561874937764    -0.415544992482    -0.029686970110    12.000000000000
         C            0.335176837764     0.937301307518    -0.009425870110    12.000000000000
         C           -1.020745162236     1.421340307518     0.035153129890    12.000000000000
         C            2.418195937764     0.696002107518    -0.069540770110    12.000000000000
         C           -1.571638162236    -1.028416692482     0.018778129890    12.000000000000
         C            2.636788837764    -1.847692692482    -0.065545870110    12.000000000000
         H            3.510680837764     0.856709307518    -0.086632870110     1.007825032230
         H            2.374353837764    -2.432797692482     0.817722129890     1.007825032230
         H            2.380891837764    -2.416449692482    -0.960532870110     1.007825032230
         H            3.705558837764    -1.632957692482    -0.059259870110     1.007825032230
         H           -2.886562162236     0.566775307518     0.169290129890     1.007825032230
         H           -2.324384162236    -2.870064692482    -0.064265870110     1.007825032230
         H           -3.458274162236    -1.675009692482    -0.417376870110     1.007825032230

  Basis Set: AUG-CC-PVTZ
    Blend: AUG-CC-PVTZ
  Basis Set: (AUG-CC-PVTZ AUX)
    Blend: AUG-CC-PVTZ-JKFIT
	 Reference Energy          =    -578.6314144158965291 [Eh]
	 Singles Energy            =      -0.0000000000000000 [Eh]
	 Same-Spin Energy          =      -0.6150702549371015 [Eh]
	 Opposite-Spin Energy      =      -1.8185824279892535 [Eh]
	 Correlation Energy        =      -2.4336526829263549 [Eh]
	 Total Energy              =    -581.0650670988228512 [Eh]

	 ================> DF-SCS-MP2 Energies <==================
	-----------------------------------------------------------
	 SCS Same-Spin Scale       =       0.3333333333333333 [-]
	 SCS Opposite-Spin Scale   =       1.2000000000000000 [-]
	 SCS Same-Spin Energy      =      -0.2050234183123672 [Eh]
	 SCS Opposite-Spin Energy  =      -2.1822989135871040 [Eh]
	 SCS Correlation Energy    =      -2.3873223318994712 [Eh]
	 SCS Total Energy          =    -581.0187367477959697 [Eh]
	-----------------------------------------------------------

  Dipole Moment: [D]
     X:    -0.0086      Y:    -6.7144      Z:    -0.9364     Total:     6.7794

*** Psi4 exiting successfully. Buy a developer a beer!
