                               Psi4 1.3.2 release

  ==> Input File <==

--------------------------------------------------------------------------
#psi4
#
memory 32 gb

molecule  {
0 1
  O       -1.4697740     2.5644010     0.0803940
  N        1.9178264    -0.5950021    -0.0558938
  N       -1.9102790     0.3061000     0.0485010
  N       -0.3336934    -1.4750487    -0.0390898
  N        1.5166440     1.6409000    -0.0105650
  N       -2.6294290    -1.9169300     0.1110730
  C        0.5576980    -0.4369160    -0.0295360
  C        0.3337570     0.9396730    -0.0094060
  C       -1.0221650     1.4237120     0.0351730
  C        2.4390620     0.6894910    -0.0699270
  C       -1.5730580    -1.0260450     0.0187980
  C        2.6353690    -1.8453210    -0.0655260
  H        3.5092610     0.8590810    -0.0866130
  H        2.3729340    -2.4304260     0.8177420
  H        2.3794720    -2.4140780    -0.9605130
  H        3.7041390    -1.6305860    -0.0592400
  H       -2.8879820     0.5691470     0.1693100
  H       -2.3258040    -2.8676930    -0.0642460
  H       -3.4596940    -1.6726380    -0.4173570
units angstrom
no_reorient  #important for SAPT in psi4, default
symmetry c1  #important for SAPT in psi4, default
}

set PROPERTIES_ORIGIN ["COM"]
properties('MP2/aug-cc-pvtz', properties = ['dipole'])
--------------------------------------------------------------------------

    Molecular point group: c1
  Charge       = 0
  Multiplicity = 1
  Basis Set: AUG-CC-PVTZ
    Blend: AUG-CC-PVTZ
  Basis Set: (AUG-CC-PVTZ AUX)
    Blend: AUG-CC-PVTZ-JKFIT

    Orbital Energies [Eh]
    ---------------------

    Doubly Occupied:

       1A    -20.521063     2A    -15.631722     3A    -15.630686
       4A    -15.611924     5A    -15.571992     6A    -15.560838
       7A    -11.398468     8A    -11.364559     9A    -11.319557
      10A    -11.308099    11A    -11.287774    12A    -11.246889
      13A     -1.390370    14A     -1.359248    15A     -1.332831
      16A     -1.219913    17A     -1.216010    18A     -1.191196
      19A     -1.028508    20A     -0.986119    21A     -0.899797
      22A     -0.882949    23A     -0.807058    24A     -0.767262
      25A     -0.741087    26A     -0.729230    27A     -0.692502
      28A     -0.670755    29A     -0.650368    30A     -0.640742
      31A     -0.626045    32A     -0.610649    33A     -0.594133
      34A     -0.577183    35A     -0.559861    36A     -0.541133
      37A     -0.494933    38A     -0.459382    39A     -0.440647
      40A     -0.429811    41A     -0.429369    42A     -0.391983
      43A     -0.297880

  @DF-RHF Final Energy:  -578.62944103287862

   => Energetics <=

    Nuclear Repulsion Energy =            693.1165419128215035
    One-Electron Energy =               -2163.2669153562778774
    Two-Electron Energy =                 891.5209324105777569
    Total Energy =                       -578.6294410328786171
  Basis Set: (AUG-CC-PVTZ AUX)
    Blend: AUG-CC-PVTZ-RI
    Molecular point group: c1

    Geometry (in Angstrom), charge = 0, multiplicity = 1:

       Center              X                  Y                   Z               Mass
    ------------   -----------------  -----------------  -----------------  -----------------
         O           -1.470426334521     2.566071324169     0.080444224770    15.994914619570
         N            1.917174065479    -0.593331775831    -0.055843575230    14.003074004430
         N           -1.910931334521     0.307770324169     0.048551224770    14.003074004430
         N           -0.334345734521    -1.473378375831    -0.039039575230    14.003074004430
         N            1.515991665479     1.642570324169    -0.010514775230    14.003074004430
         N           -2.630081334521    -1.915259675831     0.111123224770    14.003074004430
         C            0.557045665479    -0.435245675831    -0.029485775230    12.000000000000
         C            0.333104665479     0.941343324169    -0.009355775230    12.000000000000
         C           -1.022817334521     1.425382324169     0.035223224770    12.000000000000
         C            2.438409665479     0.691161324169    -0.069876775230    12.000000000000
         C           -1.573710334521    -1.024374675831     0.018848224770    12.000000000000
         C            2.634716665479    -1.843650675831    -0.065475775230    12.000000000000
         H            3.508608665479     0.860751324169    -0.086562775230     1.007825032230
         H            2.372281665479    -2.428755675831     0.817792224770     1.007825032230
         H            2.378819665479    -2.412407675831    -0.960462775230     1.007825032230
         H            3.703486665479    -1.628915675831    -0.059189775230     1.007825032230
         H           -2.888634334521     0.570817324169     0.169360224770     1.007825032230
         H           -2.326456334521    -2.866022675831    -0.064195775230     1.007825032230
         H           -3.460346334521    -1.670967675831    -0.417306775230     1.007825032230

  Basis Set: AUG-CC-PVTZ
    Blend: AUG-CC-PVTZ
  Basis Set: (AUG-CC-PVTZ AUX)
    Blend: AUG-CC-PVTZ-JKFIT
	 Reference Energy          =    -578.6294410328786171 [Eh]
	 Singles Energy            =      -0.0000000000000000 [Eh]
	 Same-Spin Energy          =      -0.6162373599001593 [Eh]
	 Opposite-Spin Energy      =      -1.8203257588738488 [Eh]
	 Correlation Energy        =      -2.4365631187740080 [Eh]
	 Total Energy              =    -581.0660041516525780 [Eh]

	 ================> DF-SCS-MP2 Energies <==================
	-----------------------------------------------------------
	 SCS Same-Spin Scale       =       0.3333333333333333 [-]
	 SCS Opposite-Spin Scale   =       1.2000000000000000 [-]
	 SCS Same-Spin Energy      =      -0.2054124533000531 [Eh]
	 SCS Opposite-Spin Energy  =      -2.1843909106486183 [Eh]
	 SCS Correlation Energy    =      -2.3898033639486713 [Eh]
	 SCS Total Energy          =    -581.0192443968272755 [Eh]
	-----------------------------------------------------------

  Dipole Moment: [D]
     X:    -0.0783      Y:    -6.7527      Z:    -0.9341     Total:     6.8175

*** Psi4 exiting successfully. Buy a developer a beer!
