                               Psi4 1.3.2 release

  ==> Input File <==

--------------------------------------------------------------------------
#psi4
#
memory 32 gb

molecule  {
0 1
  O       -1.4697740     2.5644010     0.0803940
  N        1.9191590    -0.5831280    -0.0556370
  N       -1.8870669     0.3118052     0.0464713
  N       -0.3427170    -1.4672350    -0.0387560
  N        1.5166440     1.6409000    -0.0105650
  N       -2.6137794    -1.9353007     0.1097012
  C        0.5576980    -0.4369160    -0.0295360
  C        0.3337570     0.9396730    -0.0094060
  C       -1.0221650     1.4237120     0.0351730
  C        2.4390620     0.6894910    -0.0699270
  C       -1.5730580    -1.0260450     0.0187980
  C        2.6353690    -1.8453210    -0.0655260
  H        3.5092610     0.8590810    -0.0866130
  H        2.3729340    -2.4304260     0.8177420
  H        2.3794720    -2.4140780    -0.9605130
  H        3.7041390    -1.6305860    -0.0592400
  H       -2.8879820     0.5691470     0.1693100
  H       -2.3258040    -2.8676930    -0.0642460
  H       -3.4596940    -1.6726380    -0.4173570
units angstrom
no_reorient  #important for SAPT in psi4, default
symmetry c1  #important for SAPT in psi4, default
}

set PROPERTIES_ORIGIN ["COM"]
properties('MP2/aug-cc-pvtz', properties = ['dipole'])
--------------------------------------------------------------------------

    Molecular point group: c1
  Charge       = 0
  Multiplicity = 1
  Basis Set: AUG-CC-PVTZ
    Blend: AUG-CC-PVTZ
  Basis Set: (AUG-CC-PVTZ AUX)
    Blend: AUG-CC-PVTZ-JKFIT

    Orbital Energies [Eh]
    ---------------------

    Doubly Occupied:

       1A    -20.519400     2A    -15.632466     3A    -15.632220
       4A    -15.611755     5A    -15.569974     6A    -15.558852
       7A    -11.396361     8A    -11.362785     9A    -11.317964
      10A    -11.306753    11A    -11.288974    12A    -11.246122
      13A     -1.391844    14A     -1.360036    15A     -1.334068
      16A     -1.223157    17A     -1.214889    18A     -1.189725
      19A     -1.029754    20A     -0.986060    21A     -0.902985
      22A     -0.883240    23A     -0.807778    24A     -0.765807
      25A     -0.737380    26A     -0.730908    27A     -0.696444
      28A     -0.671265    29A     -0.650633    30A     -0.640577
      31A     -0.626811    32A     -0.610632    33A     -0.592085
      34A     -0.577940    35A     -0.560550    36A     -0.542612
      37A     -0.492644    38A     -0.459264    39A     -0.439701
      40A     -0.428834    41A     -0.428283    42A     -0.392040
      43A     -0.297903

  @DF-RHF Final Energy:  -578.62870205591639

   => Energetics <=

    Nuclear Repulsion Energy =            693.9408362780409334
    One-Electron Energy =               -2164.9201235248010562
    Two-Electron Energy =                 892.3505851908437307
    Total Energy =                       -578.6287020559163921
  Basis Set: (AUG-CC-PVTZ AUX)
    Blend: AUG-CC-PVTZ-RI
    Molecular point group: c1

    Geometry (in Angstrom), charge = 0, multiplicity = 1:

       Center              X                  Y                   Z               Mass
    ------------   -----------------  -----------------  -----------------  -----------------
         O           -1.473070659245     2.565475596722     0.080682683719    15.994914619570
         N            1.915862340755    -0.582053403278    -0.055348316281    14.003074004430
         N           -1.890363559245     0.312879796722     0.046759983719    14.003074004430
         N           -0.346013659245    -1.466160403278    -0.038467316281    14.003074004430
         N            1.513347340755     1.641974596722    -0.010276316281    14.003074004430
         N           -2.617076059245    -1.934226103278     0.109989883719    14.003074004430
         C            0.554401340755    -0.435841403278    -0.029247316281    12.000000000000
         C            0.330460340755     0.940747596722    -0.009117316281    12.000000000000
         C           -1.025461659245     1.424786596722     0.035461683719    12.000000000000
         C            2.435765340755     0.690565596722    -0.069638316281    12.000000000000
         C           -1.576354659245    -1.024970403278     0.019086683719    12.000000000000
         C            2.632072340755    -1.844246403278    -0.065237316281    12.000000000000
         H            3.505964340755     0.860155596722    -0.086324316281     1.007825032230
         H            2.369637340755    -2.429351403278     0.818030683719     1.007825032230
         H            2.376175340755    -2.413003403278    -0.960224316281     1.007825032230
         H            3.700842340755    -1.629511403278    -0.058951316281     1.007825032230
         H           -2.891278659245     0.570221596722     0.169598683719     1.007825032230
         H           -2.329100659245    -2.866618403278    -0.063957316281     1.007825032230
         H           -3.462990659245    -1.671563403278    -0.417068316281     1.007825032230

  Basis Set: AUG-CC-PVTZ
    Blend: AUG-CC-PVTZ
  Basis Set: (AUG-CC-PVTZ AUX)
    Blend: AUG-CC-PVTZ-JKFIT
	 Reference Energy          =    -578.6287020559163921 [Eh]
	 Singles Energy            =      -0.0000000000000000 [Eh]
	 Same-Spin Energy          =      -0.6163213079083716 [Eh]
	 Opposite-Spin Energy      =      -1.8199818027692440 [Eh]
	 Correlation Energy        =      -2.4363031106776156 [Eh]
	 Total Energy              =    -581.0650051665940055 [Eh]

	 ================> DF-SCS-MP2 Energies <==================
	-----------------------------------------------------------
	 SCS Same-Spin Scale       =       0.3333333333333333 [-]
	 SCS Opposite-Spin Scale   =       1.2000000000000000 [-]
	 SCS Same-Spin Energy      =      -0.2054404359694572 [Eh]
	 SCS Opposite-Spin Energy  =      -2.1839781633230926 [Eh]
	 SCS Correlation Energy    =      -2.3894185992925498 [Eh]
	 SCS Total Energy          =    -581.0181206552089179 [Eh]
	-----------------------------------------------------------

  Dipole Moment: [D]
     X:    -0.0942      Y:    -6.8420      Z:    -0.9295     Total:     6.9055

*** Psi4 exiting successfully. Buy a developer a beer!
