                               Psi4 1.3.2 release

  ==> Input File <==

--------------------------------------------------------------------------
#psi4
#
memory 32 gb

molecule  {
0 1
  O       -1.4797163     2.5604457     0.0804875
  N        1.9191590    -0.5831280    -0.0556370
  N       -1.9102790     0.3061000     0.0485010
  N       -0.3427170    -1.4672350    -0.0387560
  N        1.5166440     1.6409000    -0.0105650
  N       -2.6294290    -1.9169300     0.1110730
  C        0.5576980    -0.4369160    -0.0295360
  C        0.3294723     0.9278590    -0.0096801
  C       -1.0221650     1.4237120     0.0351730
  C        2.4390620     0.6894910    -0.0699270
  C       -1.5730580    -1.0260450     0.0187980
  C        2.6353690    -1.8453210    -0.0655260
  H        3.5092610     0.8590810    -0.0866130
  H        2.3729340    -2.4304260     0.8177420
  H        2.3794720    -2.4140780    -0.9605130
  H        3.7041390    -1.6305860    -0.0592400
  H       -2.8879820     0.5691470     0.1693100
  H       -2.3258040    -2.8676930    -0.0642460
  H       -3.4596940    -1.6726380    -0.4173570
units angstrom
no_reorient  #important for SAPT in psi4, default
symmetry c1  #important for SAPT in psi4, default
}

set PROPERTIES_ORIGIN ["COM"]
properties('MP2/aug-cc-pvtz', properties = ['dipole'])
--------------------------------------------------------------------------

    Molecular point group: c1
  Charge       = 0
  Multiplicity = 1
  Basis Set: AUG-CC-PVTZ
    Blend: AUG-CC-PVTZ
  Basis Set: (AUG-CC-PVTZ AUX)
    Blend: AUG-CC-PVTZ-JKFIT

    Orbital Energies [Eh]
    ---------------------

    Doubly Occupied:

       1A    -20.521581     2A    -15.632299     3A    -15.628587
       4A    -15.610495     5A    -15.570486     6A    -15.559886
       7A    -11.395817     8A    -11.364746     9A    -11.318687
      10A    -11.307762    11A    -11.289280    12A    -11.246560
      13A     -1.391078    14A     -1.360821    15A     -1.333719
      16A     -1.218949    17A     -1.215477    18A     -1.189319
      19A     -1.031134    20A     -0.986082    21A     -0.901606
      22A     -0.881978    23A     -0.808121    24A     -0.768118
      25A     -0.740201    26A     -0.728811    27A     -0.692065
      28A     -0.671331    29A     -0.650399    30A     -0.641681
      31A     -0.626449    32A     -0.611496    33A     -0.592022
      34A     -0.578458    35A     -0.560791    36A     -0.541765
      37A     -0.493302    38A     -0.459042    39A     -0.439480
      40A     -0.430826    41A     -0.428844    42A     -0.391814
      43A     -0.300611

  @DF-RHF Final Energy:  -578.63090297843985

   => Energetics <=

    Nuclear Repulsion Energy =            693.5609828850164149
    One-Electron Energy =               -2164.1598234478424274
    Two-Electron Energy =                 891.9679375843860498
    Total Energy =                       -578.6309029784398490
  Basis Set: (AUG-CC-PVTZ AUX)
    Blend: AUG-CC-PVTZ-RI
    Molecular point group: c1

    Geometry (in Angstrom), charge = 0, multiplicity = 1:

       Center              X                  Y                   Z               Mass
    ------------   -----------------  -----------------  -----------------  -----------------
         O           -1.478441271564     2.561687968500     0.080498488483    15.994914619570
         N            1.920434028436    -0.581885731500    -0.055626011517    14.003074004430
         N           -1.909003971564     0.307342268500     0.048511988483    14.003074004430
         N           -0.341441971564    -1.465992731500    -0.038745011517    14.003074004430
         N            1.517919028436     1.642142268500    -0.010554011517    14.003074004430
         N           -2.628153971564    -1.915687731500     0.111083988483    14.003074004430
         C            0.558973028436    -0.435673731500    -0.029525011517    12.000000000000
         C            0.330747328436     0.929101268500    -0.009669111517    12.000000000000
         C           -1.020889971564     1.424954268500     0.035183988483    12.000000000000
         C            2.440337028436     0.690733268500    -0.069916011517    12.000000000000
         C           -1.571782971564    -1.024802731500     0.018808988483    12.000000000000
         C            2.636644028436    -1.844078731500    -0.065515011517    12.000000000000
         H            3.510536028436     0.860323268500    -0.086602011517     1.007825032230
         H            2.374209028436    -2.429183731500     0.817752988483     1.007825032230
         H            2.380747028436    -2.412835731500    -0.960502011517     1.007825032230
         H            3.705414028436    -1.629343731500    -0.059229011517     1.007825032230
         H           -2.886706971564     0.570389268500     0.169320988483     1.007825032230
         H           -2.324528971564    -2.866450731500    -0.064235011517     1.007825032230
         H           -3.458418971564    -1.671395731500    -0.417346011517     1.007825032230

  Basis Set: AUG-CC-PVTZ
    Blend: AUG-CC-PVTZ
  Basis Set: (AUG-CC-PVTZ AUX)
    Blend: AUG-CC-PVTZ-JKFIT
	 Reference Energy          =    -578.6309029784398490 [Eh]
	 Singles Energy            =      -0.0000000000000000 [Eh]
	 Same-Spin Energy          =      -0.6158291362453008 [Eh]
	 Opposite-Spin Energy      =      -1.8196352355820373 [Eh]
	 Correlation Energy        =      -2.4354643718273383 [Eh]
	 Total Energy              =    -581.0663673502672282 [Eh]

	 ================> DF-SCS-MP2 Energies <==================
	-----------------------------------------------------------
	 SCS Same-Spin Scale       =       0.3333333333333333 [-]
	 SCS Opposite-Spin Scale   =       1.2000000000000000 [-]
	 SCS Same-Spin Energy      =      -0.2052763787484336 [Eh]
	 SCS Opposite-Spin Energy  =      -2.1835622826984449 [Eh]
	 SCS Correlation Energy    =      -2.3888386614468784 [Eh]
	 SCS Total Energy          =    -581.0197416398867745 [Eh]
	-----------------------------------------------------------

  Dipole Moment: [D]
     X:    -0.0042      Y:    -6.7789      Z:    -0.9374     Total:     6.8434

*** Psi4 exiting successfully. Buy a developer a beer!
