                               Psi4 1.3.2 release

  ==> Input File <==

--------------------------------------------------------------------------
#psi4
#
memory 32 gb

molecule  {
0 1
  O       -1.4697740     2.5644010     0.0803940
  N        1.9191590    -0.5831280    -0.0556370
  N       -1.9102790     0.3061000     0.0485010
  N       -0.3427170    -1.4672350    -0.0387560
  N        1.5166440     1.6409000    -0.0105650
  N       -2.6294290    -1.9169300     0.1110730
  C        0.5636261    -0.3894823    -0.0298061
  C        0.3337570     0.9396730    -0.0094060
  C       -1.0221650     1.4237120     0.0351730
  C        2.3943386     0.7068663    -0.0691105
  C       -1.5730580    -1.0260450     0.0187980
  C        2.6353690    -1.8453210    -0.0655260
  H        3.5092610     0.8590810    -0.0866130
  H        2.3729340    -2.4304260     0.8177420
  H        2.3794720    -2.4140780    -0.9605130
  H        3.7041390    -1.6305860    -0.0592400
  H       -2.8879820     0.5691470     0.1693100
  H       -2.3258040    -2.8676930    -0.0642460
  H       -3.4596940    -1.6726380    -0.4173570
units angstrom
no_reorient  #important for SAPT in psi4, default
symmetry c1  #important for SAPT in psi4, default
}

set PROPERTIES_ORIGIN ["COM"]
properties('MP2/aug-cc-pvtz', properties = ['dipole'])
--------------------------------------------------------------------------

    Molecular point group: c1
  Charge       = 0
  Multiplicity = 1
  Basis Set: AUG-CC-PVTZ
    Blend: AUG-CC-PVTZ
  Basis Set: (AUG-CC-PVTZ AUX)
    Blend: AUG-CC-PVTZ-JKFIT

    Orbital Energies [Eh]
    ---------------------

    Doubly Occupied:

       1A    -20.523895     2A    -15.628744     3A    -15.627711
       4A    -15.608760     5A    -15.569882     6A    -15.555523
       7A    -11.392825     8A    -11.366556     9A    -11.315399
      10A    -11.307267    11A    -11.290604    12A    -11.244451
      13A     -1.392643    14A     -1.366480    15A     -1.333530
      16A     -1.219182    17A     -1.215675    18A     -1.191259
      19A     -1.038099    20A     -0.988682    21A     -0.896644
      22A     -0.878899    23A     -0.803432    24A     -0.772384
      25A     -0.741447    26A     -0.724565    27A     -0.690533
      28A     -0.672045    29A     -0.654980    30A     -0.634588
      31A     -0.623427    32A     -0.613797    33A     -0.589349
      34A     -0.575690    35A     -0.566068    36A     -0.541062
      37A     -0.493540    38A     -0.456762    39A     -0.441143
      40A     -0.433614    41A     -0.428367    42A     -0.395000
      43A     -0.309746

  @DF-RHF Final Energy:  -578.62829743177190

   => Energetics <=

    Nuclear Repulsion Energy =            694.7490972693580034
    One-Electron Energy =               -2166.5262908479353428
    Two-Electron Energy =                 893.1488961468053276
    Total Energy =                       -578.6282974317718981
  Basis Set: (AUG-CC-PVTZ AUX)
    Blend: AUG-CC-PVTZ-RI
    Molecular point group: c1

    Geometry (in Angstrom), charge = 0, multiplicity = 1:

       Center              X                  Y                   Z               Mass
    ------------   -----------------  -----------------  -----------------  -----------------
         O           -1.466953514515     2.559689611884     0.080354399488    15.994914619570
         N            1.921979485485    -0.587839388116    -0.055676600512    14.003074004430
         N           -1.907458514515     0.301388611884     0.048461399488    14.003074004430
         N           -0.339896514515    -1.471946388116    -0.038795600512    14.003074004430
         N            1.519464485485     1.636188611884    -0.010604600512    14.003074004430
         N           -2.626608514515    -1.921641388116     0.111033399488    14.003074004430
         C            0.566446585485    -0.394193688116    -0.029845700512    12.000000000000
         C            0.336577485485     0.934961611884    -0.009445600512    12.000000000000
         C           -1.019344514515     1.419000611884     0.035133399488    12.000000000000
         C            2.397159085485     0.702154911884    -0.069150100512    12.000000000000
         C           -1.570237514515    -1.030756388116     0.018758399488    12.000000000000
         C            2.638189485485    -1.850032388116    -0.065565600512    12.000000000000
         H            3.512081485485     0.854369611884    -0.086652600512     1.007825032230
         H            2.375754485485    -2.435137388116     0.817702399488     1.007825032230
         H            2.382292485485    -2.418789388116    -0.960552600512     1.007825032230
         H            3.706959485485    -1.635297388116    -0.059279600512     1.007825032230
         H           -2.885161514515     0.564435611884     0.169270399488     1.007825032230
         H           -2.322983514515    -2.872404388116    -0.064285600512     1.007825032230
         H           -3.456873514515    -1.677349388116    -0.417396600512     1.007825032230

  Basis Set: AUG-CC-PVTZ
    Blend: AUG-CC-PVTZ
  Basis Set: (AUG-CC-PVTZ AUX)
    Blend: AUG-CC-PVTZ-JKFIT
	 Reference Energy          =    -578.6282974317718981 [Eh]
	 Singles Energy            =      -0.0000000000000000 [Eh]
	 Same-Spin Energy          =      -0.6141718388128652 [Eh]
	 Opposite-Spin Energy      =      -1.8175729610548927 [Eh]
	 Correlation Energy        =      -2.4317447998677579 [Eh]
	 Total Energy              =    -581.0600422316396134 [Eh]

	 ================> DF-SCS-MP2 Energies <==================
	-----------------------------------------------------------
	 SCS Same-Spin Scale       =       0.3333333333333333 [-]
	 SCS Opposite-Spin Scale   =       1.2000000000000000 [-]
	 SCS Same-Spin Energy      =      -0.2047239462709551 [Eh]
	 SCS Opposite-Spin Energy  =      -2.1810875532658711 [Eh]
	 SCS Correlation Energy    =      -2.3858114995368260 [Eh]
	 SCS Total Energy          =    -581.0141089313086695 [Eh]
	-----------------------------------------------------------

  Dipole Moment: [D]
     X:    -0.0142      Y:    -6.6357      Z:    -0.9350     Total:     6.7012

*** Psi4 exiting successfully. Buy a developer a beer!
