                               Psi4 1.3.2 release

  ==> Input File <==

--------------------------------------------------------------------------
#psi4
#
memory 32 gb

molecule  {
0 1
  O       -1.4697740     2.5644010     0.0803940
  N        1.9864710    -0.6086013    -0.0564987
  N       -1.9102790     0.3061000     0.0485010
  N       -0.3427170    -1.4672350    -0.0387560
  N        1.5166440     1.6409000    -0.0105650
  N       -2.6294290    -1.9169300     0.1110730
  C        0.5576980    -0.4369160    -0.0295360
  C        0.3337570     0.9396730    -0.0094060
  C       -1.0221650     1.4237120     0.0351730
  C        2.4390620     0.6894910    -0.0699270
  C       -1.5730580    -1.0260450     0.0187980
  C        2.6353690    -1.8453210    -0.0655260
  H        3.5166734     0.8028327    -0.0864302
  H        2.3729340    -2.4304260     0.8177420
  H        2.3794720    -2.4140780    -0.9605130
  H        3.7041390    -1.6305860    -0.0592400
  H       -2.8879820     0.5691470     0.1693100
  H       -2.3258040    -2.8676930    -0.0642460
  H       -3.4596940    -1.6726380    -0.4173570
units angstrom
no_reorient  #important for SAPT in psi4, default
symmetry c1  #important for SAPT in psi4, default
}

set PROPERTIES_ORIGIN ["COM"]
properties('MP2/aug-cc-pvtz', properties = ['dipole'])
--------------------------------------------------------------------------

    Molecular point group: c1
  Charge       = 0
  Multiplicity = 1
  Basis Set: AUG-CC-PVTZ
    Blend: AUG-CC-PVTZ
  Basis Set: (AUG-CC-PVTZ AUX)
    Blend: AUG-CC-PVTZ-JKFIT

    Orbital Energies [Eh]
    ---------------------

    Doubly Occupied:

       1A    -20.523601     2A    -15.631650     3A    -15.631137
       4A    -15.611360     5A    -15.572972     6A    -15.560099
       7A    -11.396909     8A    -11.367273     9A    -11.325143
      10A    -11.313019    11A    -11.283558    12A    -11.252910
      13A     -1.391343    14A     -1.354964    15A     -1.333609
      16A     -1.220927    17A     -1.216584    18A     -1.199470
      19A     -1.026796    20A     -0.988436    21A     -0.901323
      22A     -0.882909    23A     -0.808070    24A     -0.766672
      25A     -0.741391    26A     -0.727934    27A     -0.693167
      28A     -0.670495    29A     -0.660376    30A     -0.641499
      31A     -0.629170    32A     -0.616113    33A     -0.595918
      34A     -0.563292    35A     -0.556002    36A     -0.540266
      37A     -0.497113    38A     -0.460423    39A     -0.441903
      40A     -0.430893    41A     -0.429981    42A     -0.392386
      43A     -0.298496

  @DF-RHF Final Energy:  -578.62023597951213

   => Energetics <=

    Nuclear Repulsion Energy =            692.2038028640555467
    One-Electron Energy =               -2161.3529728250550761
    Two-Electron Energy =                 890.5289339814875120
    Total Energy =                       -578.6202359795121311
  Basis Set: (AUG-CC-PVTZ AUX)
    Blend: AUG-CC-PVTZ-RI
    Molecular point group: c1

    Geometry (in Angstrom), charge = 0, multiplicity = 1:

       Center              X                  Y                   Z               Mass
    ------------   -----------------  -----------------  -----------------  -----------------
         O           -1.475529459786     2.566905560254     0.080466107069    15.994914619570
         N            1.980715540214    -0.606096739746    -0.056426592931    14.003074004430
         N           -1.916034459786     0.308604560254     0.048573107069    14.003074004430
         N           -0.348472459786    -1.464730439746    -0.038683892931    14.003074004430
         N            1.510888540214     1.643404560254    -0.010492892931    14.003074004430
         N           -2.635184459786    -1.914425439746     0.111145107069    14.003074004430
         C            0.551942540214    -0.434411439746    -0.029463892931    12.000000000000
         C            0.328001540214     0.942177560254    -0.009333892931    12.000000000000
         C           -1.027920459786     1.426216560254     0.035245107069    12.000000000000
         C            2.433306540214     0.691995560254    -0.069854892931    12.000000000000
         C           -1.578813459786    -1.023540439746     0.018870107069    12.000000000000
         C            2.629613540214    -1.842816439746    -0.065453892931    12.000000000000
         H            3.510917940214     0.805337260254    -0.086358092931     1.007825032230
         H            2.367178540214    -2.427921439746     0.817814107069     1.007825032230
         H            2.373716540214    -2.411573439746    -0.960440892931     1.007825032230
         H            3.698383540214    -1.628081439746    -0.059167892931     1.007825032230
         H           -2.893737459786     0.571651560254     0.169382107069     1.007825032230
         H           -2.331559459786    -2.865188439746    -0.064173892931     1.007825032230
         H           -3.465449459786    -1.670133439746    -0.417284892931     1.007825032230

  Basis Set: AUG-CC-PVTZ
    Blend: AUG-CC-PVTZ
  Basis Set: (AUG-CC-PVTZ AUX)
    Blend: AUG-CC-PVTZ-JKFIT
	 Reference Energy          =    -578.6202359795121311 [Eh]
	 Singles Energy            =      -0.0000000000000000 [Eh]
	 Same-Spin Energy          =      -0.6168749891663484 [Eh]
	 Opposite-Spin Energy      =      -1.8216951524214380 [Eh]
	 Correlation Energy        =      -2.4385701415877863 [Eh]
	 Total Energy              =    -581.0588061210999058 [Eh]

	 ================> DF-SCS-MP2 Energies <==================
	-----------------------------------------------------------
	 SCS Same-Spin Scale       =       0.3333333333333333 [-]
	 SCS Opposite-Spin Scale   =       1.2000000000000000 [-]
	 SCS Same-Spin Energy      =      -0.2056249963887828 [Eh]
	 SCS Opposite-Spin Energy  =      -2.1860341829057255 [Eh]
	 SCS Correlation Energy    =      -2.3916591792945083 [Eh]
	 SCS Total Energy          =    -581.0118951588066238 [Eh]
	-----------------------------------------------------------

  Dipole Moment: [D]
     X:    -0.2404      Y:    -6.6868      Z:    -0.9321     Total:     6.7557

*** Psi4 exiting successfully. Buy a developer a beer!
