                               Psi4 1.3.2 release

  ==> Input File <==

--------------------------------------------------------------------------
#psi4
#
memory 32 gb

molecule  {
0 1
  O       -1.4697740     2.5644010     0.0803940
  N        1.9191590    -0.5831280    -0.0556370
  N       -1.9102790     0.3061000     0.0485010
  N       -0.3427170    -1.4672350    -0.0387560
  N        1.5166440     1.6409000    -0.0105650
  N       -2.6294290    -1.9169300     0.1110730
  C        0.5576980    -0.4369160    -0.0295360
  C        0.3337570     0.9396730    -0.0094060
  C       -1.0221650     1.4237120     0.0351730
  C        2.4390620     0.6894910    -0.0699270
  C       -1.5500491    -1.0199385     0.0158364
  C        2.6353690    -1.8453210    -0.0655260
  H        3.5092610     0.8590810    -0.0866130
  H        2.3729340    -2.4304260     0.8177420
  H        2.3794720    -2.4140780    -0.9605130
  H        3.7041390    -1.6305860    -0.0592400
  H       -2.8832988     0.5862991     0.1685539
  H       -2.3258040    -2.8676930    -0.0642460
  H       -3.4596940    -1.6726380    -0.4173570
units angstrom
no_reorient  #important for SAPT in psi4, default
symmetry c1  #important for SAPT in psi4, default
}

set PROPERTIES_ORIGIN ["COM"]
properties('MP2/aug-cc-pvtz', properties = ['dipole'])
--------------------------------------------------------------------------

    Molecular point group: c1
  Charge       = 0
  Multiplicity = 1
  Basis Set: AUG-CC-PVTZ
    Blend: AUG-CC-PVTZ
  Basis Set: (AUG-CC-PVTZ AUX)
    Blend: AUG-CC-PVTZ-JKFIT

    Orbital Energies [Eh]
    ---------------------

    Doubly Occupied:

       1A    -20.521532     2A    -15.634435     3A    -15.628767
       4A    -15.606451     5A    -15.572721     6A    -15.560863
       7A    -11.394414     8A    -11.364203     9A    -11.320522
      10A    -11.308493    11A    -11.290528    12A    -11.248764
      13A     -1.391900    14A     -1.362107    15A     -1.333705
      16A     -1.220741    17A     -1.211947    18A     -1.193091
      19A     -1.031152    20A     -0.987561    21A     -0.902246
      22A     -0.881732    23A     -0.809622    24A     -0.768058
      25A     -0.741594    26A     -0.724154    27A     -0.688923
      28A     -0.672524    29A     -0.650453    30A     -0.641180
      31A     -0.627147    32A     -0.611394    33A     -0.594671
      34A     -0.579647    35A     -0.560939    36A     -0.542020
      37A     -0.497088    38A     -0.458202    39A     -0.440828
      40A     -0.430474    41A     -0.429592    42A     -0.394088
      43A     -0.301259

  @DF-RHF Final Energy:  -578.63021235228211

   => Energetics <=

    Nuclear Repulsion Energy =            693.7507223383535120
    One-Electron Energy =               -2164.4984094454221122
    Two-Electron Energy =                 892.1174747547863717
    Total Energy =                       -578.6302123522821148
  Basis Set: (AUG-CC-PVTZ AUX)
    Blend: AUG-CC-PVTZ-RI
    Molecular point group: c1

    Geometry (in Angstrom), charge = 0, multiplicity = 1:

       Center              X                  Y                   Z               Mass
    ------------   -----------------  -----------------  -----------------  -----------------
         O           -1.471475187647     2.563852477634     0.080614042665    15.994914619570
         N            1.917457812353    -0.583676522366    -0.055416957335    14.003074004430
         N           -1.911980187647     0.305551477634     0.048721042665    14.003074004430
         N           -0.344418187647    -1.467783522366    -0.038535957335    14.003074004430
         N            1.514942812353     1.640351477634    -0.010344957335    14.003074004430
         N           -2.631130187647    -1.917478522366     0.111293042665    14.003074004430
         C            0.555996812353    -0.437464522366    -0.029315957335    12.000000000000
         C            0.332055812353     0.939124477634    -0.009185957335    12.000000000000
         C           -1.023866187647     1.423163477634     0.035393042665    12.000000000000
         C            2.437360812353     0.688942477634    -0.069706957335    12.000000000000
         C           -1.551750287647    -1.020487022366     0.016056442665    12.000000000000
         C            2.633667812353    -1.845869522366    -0.065305957335    12.000000000000
         H            3.507559812353     0.858532477634    -0.086392957335     1.007825032230
         H            2.371232812353    -2.430974522366     0.817962042665     1.007825032230
         H            2.377770812353    -2.414626522366    -0.960292957335     1.007825032230
         H            3.702437812353    -1.631134522366    -0.059019957335     1.007825032230
         H           -2.884999987647     0.585750577634     0.168773942665     1.007825032230
         H           -2.327505187647    -2.868241522366    -0.064025957335     1.007825032230
         H           -3.461395187647    -1.673186522366    -0.417136957335     1.007825032230

  Basis Set: AUG-CC-PVTZ
    Blend: AUG-CC-PVTZ
  Basis Set: (AUG-CC-PVTZ AUX)
    Blend: AUG-CC-PVTZ-JKFIT
	 Reference Energy          =    -578.6302123522821148 [Eh]
	 Singles Energy            =      -0.0000000000000000 [Eh]
	 Same-Spin Energy          =      -0.6158701272848497 [Eh]
	 Opposite-Spin Energy      =      -1.8196955971574105 [Eh]
	 Correlation Energy        =      -2.4355657244422604 [Eh]
	 Total Energy              =    -581.0657780767244276 [Eh]

	 ================> DF-SCS-MP2 Energies <==================
	-----------------------------------------------------------
	 SCS Same-Spin Scale       =       0.3333333333333333 [-]
	 SCS Opposite-Spin Scale   =       1.2000000000000000 [-]
	 SCS Same-Spin Energy      =      -0.2052900424282832 [Eh]
	 SCS Opposite-Spin Energy  =      -2.1836347165888923 [Eh]
	 SCS Correlation Energy    =      -2.3889247590171756 [Eh]
	 SCS Total Energy          =    -581.0191371112993011 [Eh]
	-----------------------------------------------------------

  Dipole Moment: [D]
     X:     0.1915      Y:    -6.6911      Z:    -0.9497     Total:     6.7609

*** Psi4 exiting successfully. Buy a developer a beer!
