                               Psi4 1.3.2 release

  ==> Input File <==

--------------------------------------------------------------------------
#psi4
#
memory 32 gb

molecule  {
0 1
  O       -1.4697740     2.5644010     0.0803940
  N        1.9191590    -0.5831280    -0.0556370
  N       -1.9102790     0.3061000     0.0485010
  N       -0.3427170    -1.4672350    -0.0387560
  N        1.5166440     1.6409000    -0.0105650
  N       -2.6294290    -1.9169300     0.1110730
  C        0.5576980    -0.4369160    -0.0295360
  C        0.3337570     0.9396730    -0.0094060
  C       -1.0221650     1.4237120     0.0351730
  C        2.4390620     0.6894910    -0.0699270
  C       -1.5730580    -1.0260450     0.0187980
  C        2.6353690    -1.8453210    -0.0655260
  H        3.5092610     0.8590810    -0.0866130
  H        2.3729340    -2.4304260     0.8177420
  H        2.3794720    -2.4140780    -0.9605130
  H        3.7041390    -1.6305860    -0.0592400
  H       -2.8879820     0.5691470     0.1693100
  H       -2.3190763    -2.8665401    -0.0586238
  H       -3.4595428    -1.6645458    -0.4137795
units angstrom
no_reorient  #important for SAPT in psi4, default
symmetry c1  #important for SAPT in psi4, default
}

set PROPERTIES_ORIGIN ["COM"]
properties('MP2/aug-cc-pvtz', properties = ['dipole'])
--------------------------------------------------------------------------

    Molecular point group: c1
  Charge       = 0
  Multiplicity = 1
  Basis Set: AUG-CC-PVTZ
    Blend: AUG-CC-PVTZ
  Basis Set: (AUG-CC-PVTZ AUX)
    Blend: AUG-CC-PVTZ-JKFIT

    Orbital Energies [Eh]
    ---------------------

    Doubly Occupied:

       1A    -20.520882     2A    -15.632849     3A    -15.629276
       4A    -15.610750     5A    -15.570797     6A    -15.559571
       7A    -11.395879     8A    -11.364258     9A    -11.319124
      10A    -11.307240    11A    -11.289378    12A    -11.246908
      13A     -1.390679    14A     -1.360554    15A     -1.334059
      16A     -1.219067    17A     -1.216193    18A     -1.190636
      19A     -1.029322    20A     -0.986456    21A     -0.901649
      22A     -0.881831    23A     -0.808073    24A     -0.766937
      25A     -0.741303    26A     -0.728573    27A     -0.693350
      28A     -0.671171    29A     -0.649674    30A     -0.641975
      31A     -0.626625    32A     -0.610453    33A     -0.593682
      34A     -0.578510    35A     -0.561034    36A     -0.541588
      37A     -0.493708    38A     -0.459088    39A     -0.439912
      40A     -0.429326    41A     -0.428811    42A     -0.392705
      43A     -0.298347

  @DF-RHF Final Energy:  -578.63073866784828

   => Energetics <=

    Nuclear Repulsion Energy =            693.4766481213715679
    One-Electron Energy =               -2163.9903682907142866
    Two-Electron Energy =                 891.8829815014945552
    Total Energy =                       -578.6307386678482771
  Basis Set: (AUG-CC-PVTZ AUX)
    Blend: AUG-CC-PVTZ-RI
    Molecular point group: c1

    Geometry (in Angstrom), charge = 0, multiplicity = 1:

       Center              X                  Y                   Z               Mass
    ------------   -----------------  -----------------  -----------------  -----------------
         O           -1.469815878773     2.564344688842     0.080337952107    15.994914619570
         N            1.919117121227    -0.583184311158    -0.055693047893    14.003074004430
         N           -1.910320878773     0.306043688842     0.048444952107    14.003074004430
         N           -0.342758878773    -1.467291311158    -0.038812047893    14.003074004430
         N            1.516602121227     1.640843688842    -0.010621047893    14.003074004430
         N           -2.629470878773    -1.916986311158     0.111016952107    14.003074004430
         C            0.557656121227    -0.436972311158    -0.029592047893    12.000000000000
         C            0.333715121227     0.939616688842    -0.009462047893    12.000000000000
         C           -1.022206878773     1.423655688842     0.035116952107    12.000000000000
         C            2.439020121227     0.689434688842    -0.069983047893    12.000000000000
         C           -1.573099878773    -1.026101311158     0.018741952107    12.000000000000
         C            2.635327121227    -1.845377311158    -0.065582047893    12.000000000000
         H            3.509219121227     0.859024688842    -0.086669047893     1.007825032230
         H            2.372892121227    -2.430482311158     0.817685952107     1.007825032230
         H            2.379430121227    -2.414134311158    -0.960569047893     1.007825032230
         H            3.704097121227    -1.630642311158    -0.059296047893     1.007825032230
         H           -2.888023878773     0.569090688842     0.169253952107     1.007825032230
         H           -2.319118178773    -2.866596411158    -0.058679847893     1.007825032230
         H           -3.459584678773    -1.664602111158    -0.413835547893     1.007825032230

  Basis Set: AUG-CC-PVTZ
    Blend: AUG-CC-PVTZ
  Basis Set: (AUG-CC-PVTZ AUX)
    Blend: AUG-CC-PVTZ-JKFIT
	 Reference Energy          =    -578.6307386678482771 [Eh]
	 Singles Energy            =      -0.0000000000000000 [Eh]
	 Same-Spin Energy          =      -0.6160788250106336 [Eh]
	 Opposite-Spin Energy      =      -1.8198121428223435 [Eh]
	 Correlation Energy        =      -2.4358909678329770 [Eh]
	 Total Energy              =    -581.0666296356812381 [Eh]

	 ================> DF-SCS-MP2 Energies <==================
	-----------------------------------------------------------
	 SCS Same-Spin Scale       =       0.3333333333333333 [-]
	 SCS Opposite-Spin Scale   =       1.2000000000000000 [-]
	 SCS Same-Spin Energy      =      -0.2053596083368779 [Eh]
	 SCS Opposite-Spin Energy  =      -2.1837745713868122 [Eh]
	 SCS Correlation Energy    =      -2.3891341797236900 [Eh]
	 SCS Total Energy          =    -581.0198728475719463 [Eh]
	-----------------------------------------------------------

  Dipole Moment: [D]
     X:    -0.0148      Y:    -6.7878      Z:    -0.9262     Total:     6.8507

*** Psi4 exiting successfully. Buy a developer a beer!
