                               Psi4 1.4a3.dev225

  ==> Input File <==

--------------------------------------------------------------------------
#psi4
#
memory 32 gb

molecule  {
0 1
  O        1.6617960     2.5152110     0.0229320
  N       -1.9329240    -0.4005880    -0.0147920
  N        1.9545050     0.2323110     0.0113410
  N        0.2669280    -1.4301930    -0.0208730
  N       -1.3834780     1.7915450    -0.0193170
  N        2.5221760    -2.0364130     0.0734370
  C       -0.5756239    -0.3283882    -0.0024270
  C       -0.2488450     1.0144850    -0.0147620
  C        1.1380320     1.4076430     0.0031510
  C       -2.3683130     0.9036150    -0.0164120
  C        1.5275980    -1.0721200    -0.0057920
  C       -2.7322540    -1.6127190     0.0339130
  H       -3.4247340     1.1445090    -0.0228960
  H       -2.2735910    -2.3629350    -0.6109560
  H       -2.7853950    -1.9995380     1.0543320
  H       -3.7366260    -1.3828770    -0.3245450
  H        2.9468270     0.4301980     0.1174830
  H        2.1372730    -2.9631930    -0.0801050
  H        3.3349710    -1.8642740    -0.5097710
units angstrom
no_reorient  #important for SAPT in psi4, default
symmetry c1  #important for SAPT in psi4, default
}

set PROPERTIES_ORIGIN ["COM"]
properties('MP2/aug-cc-pvtz', properties = ['dipole'])
--------------------------------------------------------------------------

    Molecular point group: c1
  Charge       = 0
  Multiplicity = 1
  Basis Set: AUG-CC-PVTZ
    Blend: AUG-CC-PVTZ
  Basis Set: (AUG-CC-PVTZ AUX)
    Blend: AUG-CC-PVTZ-JKFIT

    Orbital Energies [Eh]
    ---------------------

    Doubly Occupied:

       1A    -20.522731     2A    -15.633639     3A    -15.628378
       4A    -15.609638     5A    -15.570331     6A    -15.560296
       7A    -11.394339     8A    -11.366038     9A    -11.318115
      10A    -11.307099    11A    -11.290227    12A    -11.246513
      13A     -1.391111    14A     -1.363226    15A     -1.333059
      16A     -1.218127    17A     -1.211910    18A     -1.190248
      19A     -1.030958    20A     -0.988015    21A     -0.901601
      22A     -0.879333    23A     -0.806542    24A     -0.768367
      25A     -0.741458    26A     -0.727559    27A     -0.690749
      28A     -0.671725    29A     -0.651160    30A     -0.640109
      31A     -0.624226    32A     -0.611619    33A     -0.594902
      34A     -0.579842    35A     -0.562488    36A     -0.541328
      37A     -0.491734    38A     -0.458186    39A     -0.440164
      40A     -0.430217    41A     -0.428156    42A     -0.393790
      43A     -0.301262

  @DF-RHF Final Energy:  -578.63066984424051

   => Energetics <=

    Nuclear Repulsion Energy =            693.2497623391861907
    One-Electron Energy =               -2163.5398334587921454
    Two-Electron Energy =                 891.6594012753654397
    Total Energy =                       -578.6306698442405150
  Basis Set: (AUG-CC-PVTZ AUX)
    Blend: AUG-CC-PVTZ-RI
    Molecular point group: c1

    Geometry (in Angstrom), charge = 0, multiplicity = 1:

       Center              X                  Y                   Z               Mass
    ------------   -----------------  -----------------  -----------------  -----------------
         O            1.639855078770     2.460082095842     0.020649995684    15.994914619570
         N           -1.954864921230    -0.455716904158    -0.017074004316    14.003074004430
         N            1.932564078770     0.177182095842     0.009058995684    14.003074004430
         N            0.244987078770    -1.485321904158    -0.023155004316    14.003074004430
         N           -1.405418921230     1.736416095842    -0.021599004316    14.003074004430
         N            2.500235078770    -2.091541904158     0.071154995684    14.003074004430
         C           -0.597564821230    -0.383517104158    -0.004709004316    12.000000000000
         C           -0.270785921230     0.959356095842    -0.017044004316    12.000000000000
         C            1.116091078770     1.352514095842     0.000868995684    12.000000000000
         C           -2.390253921230     0.848486095842    -0.018694004316    12.000000000000
         C            1.505657078770    -1.127248904158    -0.008074004316    12.000000000000
         C           -2.754194921230    -1.667847904158     0.031630995684    12.000000000000
         H           -3.446674921230     1.089380095842    -0.025178004316     1.007825032230
         H           -2.295531921230    -2.418063904158    -0.613238004316     1.007825032230
         H           -2.807335921230    -2.054666904158     1.052049995684     1.007825032230
         H           -3.758566921230    -1.438005904158    -0.326827004316     1.007825032230
         H            2.924886078770     0.375069095842     0.115200995684     1.007825032230
         H            2.115332078770    -3.018321904158    -0.082387004316     1.007825032230
         H            3.313030078770    -1.919402904158    -0.512053004316     1.007825032230

  Basis Set: AUG-CC-PVTZ
    Blend: AUG-CC-PVTZ
  Basis Set: (AUG-CC-PVTZ AUX)
    Blend: AUG-CC-PVTZ-JKFIT
	 Reference Energy          =    -578.6306698442405150 [Eh]
	 Singles Energy            =      -0.0000000000000000 [Eh]
	 Same-Spin Energy          =      -0.6156963804350302 [Eh]
	 Opposite-Spin Energy      =      -1.8195975139732417 [Eh]
	 Correlation Energy        =      -2.4352938944082716 [Eh]
	 Total Energy              =    -581.0659637386487475 [Eh]

	 ================> DF-SCS-MP2 Energies <==================
	-----------------------------------------------------------
	 SCS Same-Spin Scale       =       0.3333333333333333 [-]
	 SCS Opposite-Spin Scale   =       1.2000000000000000 [-]
	 SCS Same-Spin Energy      =      -0.2052321268116767 [Eh]
	 SCS Opposite-Spin Energy  =      -2.1835170167678899 [Eh]
	 SCS Correlation Energy    =      -2.3887491435795667 [Eh]
	 SCS Total Energy          =    -581.0194189878201314 [Eh]
	-----------------------------------------------------------

  Dipole Moment: [D]
     X:    -0.5798      Y:    -6.7049      Z:    -0.8500     Total:     6.7834

*** Psi4 exiting successfully. Buy a developer a beer!
