                               Psi4 1.3.2 release

  ==> Input File <==

--------------------------------------------------------------------------
#psi4
#
memory 32 gb

molecule  {
0 1
  O       -1.5288902     2.5393770     0.0809031
  N        1.9191590    -0.5831280    -0.0556370
  N       -1.9102790     0.3061000     0.0485010
  N       -0.3427170    -1.4672350    -0.0387560
  N        1.5166440     1.6409000    -0.0105650
  N       -2.6294290    -1.9169300     0.1110730
  C        0.5576980    -0.4369160    -0.0295360
  C        0.3065118     0.8693732    -0.0109990
  C       -1.0221650     1.4237120     0.0351730
  C        2.4390620     0.6894910    -0.0699270
  C       -1.5730580    -1.0260450     0.0187980
  C        2.6353690    -1.8453210    -0.0655260
  H        3.5092610     0.8590810    -0.0866130
  H        2.3729340    -2.4304260     0.8177420
  H        2.3794720    -2.4140780    -0.9605130
  H        3.7041390    -1.6305860    -0.0592400
  H       -2.8879820     0.5691470     0.1693100
  H       -2.3258040    -2.8676930    -0.0642460
  H       -3.4596940    -1.6726380    -0.4173570
units angstrom
no_reorient  #important for SAPT in psi4, default
symmetry c1  #important for SAPT in psi4, default
}

set PROPERTIES_ORIGIN ["COM"]
properties('MP2/aug-cc-pvtz', properties = ['dipole'])
--------------------------------------------------------------------------

    Molecular point group: c1
  Charge       = 0
  Multiplicity = 1
  Basis Set: AUG-CC-PVTZ
    Blend: AUG-CC-PVTZ
  Basis Set: (AUG-CC-PVTZ AUX)
    Blend: AUG-CC-PVTZ-JKFIT

    Orbital Energies [Eh]
    ---------------------

    Doubly Occupied:

       1A    -20.525393     2A    -15.629421     3A    -15.625077
       4A    -15.609413     5A    -15.568358     6A    -15.561196
       7A    -11.394455     8A    -11.367741     9A    -11.315702
      10A    -11.309952    11A    -11.288691    12A    -11.244889
      13A     -1.393564    14A     -1.362222    15A     -1.332298
      16A     -1.218597    17A     -1.212345    18A     -1.182303
      19A     -1.039820    20A     -0.984248    21A     -0.901712
      22A     -0.881022    23A     -0.810139    24A     -0.774397
      25A     -0.735117    26A     -0.726012    27A     -0.691484
      28A     -0.672341    29A     -0.654061    30A     -0.639607
      31A     -0.625917    32A     -0.617011    33A     -0.583560
      34A     -0.576987    35A     -0.559721    36A     -0.542822
      37A     -0.491141    38A     -0.458195    39A     -0.438544
      40A     -0.436353    41A     -0.427921    42A     -0.387348
      43A     -0.311574

  @DF-RHF Final Energy:  -578.62450038484940

   => Energetics <=

    Nuclear Repulsion Energy =            694.1622231082574217
    One-Electron Energy =               -2165.3561035658149194
    Two-Electron Energy =                 892.5693800727080998
    Total Energy =                       -578.6245003848493980
  Basis Set: (AUG-CC-PVTZ AUX)
    Blend: AUG-CC-PVTZ-RI
    Molecular point group: c1

    Geometry (in Angstrom), charge = 0, multiplicity = 1:

       Center              X                  Y                   Z               Mass
    ------------   -----------------  -----------------  -----------------  -----------------
         O           -1.521180991412     2.546912675830     0.080969698759    15.994914619570
         N            1.926868208588    -0.575592324170    -0.055570401241    14.003074004430
         N           -1.902569791412     0.313635675830     0.048567598759    14.003074004430
         N           -0.335007791412    -1.459699324170    -0.038689401241    14.003074004430
         N            1.524353208588     1.648435675830    -0.010498401241    14.003074004430
         N           -2.621719791412    -1.909394324170     0.111139598759    14.003074004430
         C            0.565407208588    -0.429380324170    -0.029469401241    12.000000000000
         C            0.314221008588     0.876908875830    -0.010932401241    12.000000000000
         C           -1.014455791412     1.431247675830     0.035239598759    12.000000000000
         C            2.446771208588     0.697026675830    -0.069860401241    12.000000000000
         C           -1.565348791412    -1.018509324170     0.018864598759    12.000000000000
         C            2.643078208588    -1.837785324170    -0.065459401241    12.000000000000
         H            3.516970208588     0.866616675830    -0.086546401241     1.007825032230
         H            2.380643208588    -2.422890324170     0.817808598759     1.007825032230
         H            2.387181208588    -2.406542324170    -0.960446401241     1.007825032230
         H            3.711848208588    -1.623050324170    -0.059173401241     1.007825032230
         H           -2.880272791412     0.576682675830     0.169376598759     1.007825032230
         H           -2.318094791412    -2.860157324170    -0.064179401241     1.007825032230
         H           -3.451984791412    -1.665102324170    -0.417290401241     1.007825032230

  Basis Set: AUG-CC-PVTZ
    Blend: AUG-CC-PVTZ
  Basis Set: (AUG-CC-PVTZ AUX)
    Blend: AUG-CC-PVTZ-JKFIT
	 Reference Energy          =    -578.6245003848493980 [Eh]
	 Singles Energy            =      -0.0000000000000000 [Eh]
	 Same-Spin Energy          =      -0.6148664608977924 [Eh]
	 Opposite-Spin Energy      =      -1.8191807004276979 [Eh]
	 Correlation Energy        =      -2.4340471613254904 [Eh]
	 Total Energy              =    -581.0585475461748501 [Eh]

	 ================> DF-SCS-MP2 Energies <==================
	-----------------------------------------------------------
	 SCS Same-Spin Scale       =       0.3333333333333333 [-]
	 SCS Opposite-Spin Scale   =       1.2000000000000000 [-]
	 SCS Same-Spin Energy      =      -0.2049554869659308 [Eh]
	 SCS Opposite-Spin Energy  =      -2.1830168405132375 [Eh]
	 SCS Correlation Energy    =      -2.3879723274791682 [Eh]
	 SCS Total Energy          =    -581.0124727123285311 [Eh]
	-----------------------------------------------------------

  Dipole Moment: [D]
     X:     0.0373      Y:    -6.6966      Z:    -0.9361     Total:     6.7619

*** Psi4 exiting successfully. Buy a developer a beer!
