                               Psi4 1.3.2 release

  ==> Input File <==

--------------------------------------------------------------------------
#psi4
#
memory 32 gb

molecule  {
0 1
  O       -1.4697740     2.5644010     0.0803940
  N        1.9191590    -0.5831280    -0.0556370
  N       -1.9102790     0.3061000     0.0485010
  N       -0.3427170    -1.4672350    -0.0387560
  N        1.5166440     1.6409000    -0.0105650
  N       -2.6294290    -1.9169300     0.1110730
  C        0.5576980    -0.4369160    -0.0295360
  C        0.3498121     0.8409808    -0.0108492
  C       -1.0221650     1.4237120     0.0351730
  C        2.4390620     0.6894910    -0.0699270
  C       -1.5730580    -1.0260450     0.0187980
  C        2.6353690    -1.8453210    -0.0655260
  H        3.5092610     0.8590810    -0.0866130
  H        2.3729340    -2.4304260     0.8177420
  H        2.3794720    -2.4140780    -0.9605130
  H        3.7041390    -1.6305860    -0.0592400
  H       -2.8879820     0.5691470     0.1693100
  H       -2.3258040    -2.8676930    -0.0642460
  H       -3.4596940    -1.6726380    -0.4173570
units angstrom
no_reorient  #important for SAPT in psi4, default
symmetry c1  #important for SAPT in psi4, default
}

set PROPERTIES_ORIGIN ["COM"]
properties('MP2/aug-cc-pvtz', properties = ['dipole'])
--------------------------------------------------------------------------

    Molecular point group: c1
  Charge       = 0
  Multiplicity = 1
  Basis Set: AUG-CC-PVTZ
    Blend: AUG-CC-PVTZ
  Basis Set: (AUG-CC-PVTZ AUX)
    Blend: AUG-CC-PVTZ-JKFIT

    Orbital Energies [Eh]
    ---------------------

    Doubly Occupied:

       1A    -20.531502     2A    -15.628066     3A    -15.625389
       4A    -15.609449     5A    -15.567327     6A    -15.558635
       7A    -11.394520     8A    -11.372590     9A    -11.308216
      10A    -11.304027    11A    -11.286064    12A    -11.242081
      13A     -1.393882    14A     -1.364316    15A     -1.334015
      16A     -1.219277    17A     -1.213243    18A     -1.183722
      19A     -1.040397    20A     -0.979606    21A     -0.896464
      22A     -0.881275    23A     -0.811576    24A     -0.775323
      25A     -0.734349    26A     -0.725096    27A     -0.691657
      28A     -0.671819    29A     -0.652892    30A     -0.637958
      31A     -0.624985    32A     -0.617972    33A     -0.580587
      34A     -0.572746    35A     -0.560769    36A     -0.542714
      37A     -0.491205    38A     -0.458337    39A     -0.441712
      40A     -0.437245    41A     -0.430105    42A     -0.386835
      43A     -0.311908

  @DF-RHF Final Energy:  -578.61903533748261

   => Energetics <=

    Nuclear Repulsion Energy =            694.5551643116621108
    One-Electron Energy =               -2166.1646864249996725
    Two-Electron Energy =                 892.9904867758549472
    Total Energy =                       -578.6190353374826145
  Basis Set: (AUG-CC-PVTZ AUX)
    Blend: AUG-CC-PVTZ-RI
    Molecular point group: c1

    Geometry (in Angstrom), charge = 0, multiplicity = 1:

       Center              X                  Y                   Z               Mass
    ------------   -----------------  -----------------  -----------------  -----------------
         O           -1.470941062216     2.571575921449     0.080499040638    15.994914619570
         N            1.917991937784    -0.575953078551    -0.055531959362    14.003074004430
         N           -1.911446062216     0.313274921449     0.048606040638    14.003074004430
         N           -0.343884062216    -1.460060078551    -0.038650959362    14.003074004430
         N            1.515476937784     1.648074921449    -0.010459959362    14.003074004430
         N           -2.630596062216    -1.909755078551     0.111178040638    14.003074004430
         C            0.556530937784    -0.429741078551    -0.029430959362    12.000000000000
         C            0.348645037784     0.848155721449    -0.010744159362    12.000000000000
         C           -1.023332062216     1.430886921449     0.035278040638    12.000000000000
         C            2.437894937784     0.696665921449    -0.069821959362    12.000000000000
         C           -1.574225062216    -1.018870078551     0.018903040638    12.000000000000
         C            2.634201937784    -1.838146078551    -0.065420959362    12.000000000000
         H            3.508093937784     0.866255921449    -0.086507959362     1.007825032230
         H            2.371766937784    -2.423251078551     0.817847040638     1.007825032230
         H            2.378304937784    -2.406903078551    -0.960407959362     1.007825032230
         H            3.702971937784    -1.623411078551    -0.059134959362     1.007825032230
         H           -2.889149062216     0.576321921449     0.169415040638     1.007825032230
         H           -2.326971062216    -2.860518078551    -0.064140959362     1.007825032230
         H           -3.460861062216    -1.665463078551    -0.417251959362     1.007825032230

  Basis Set: AUG-CC-PVTZ
    Blend: AUG-CC-PVTZ
  Basis Set: (AUG-CC-PVTZ AUX)
    Blend: AUG-CC-PVTZ-JKFIT
	 Reference Energy          =    -578.6190353374826145 [Eh]
	 Singles Energy            =      -0.0000000000000000 [Eh]
	 Same-Spin Energy          =      -0.6145142804310642 [Eh]
	 Opposite-Spin Energy      =      -1.8189281216129909 [Eh]
	 Correlation Energy        =      -2.4334424020440553 [Eh]
	 Total Energy              =    -581.0524777395266938 [Eh]

	 ================> DF-SCS-MP2 Energies <==================
	-----------------------------------------------------------
	 SCS Same-Spin Scale       =       0.3333333333333333 [-]
	 SCS Opposite-Spin Scale   =       1.2000000000000000 [-]
	 SCS Same-Spin Energy      =      -0.2048380934770214 [Eh]
	 SCS Opposite-Spin Energy  =      -2.1827137459355890 [Eh]
	 SCS Correlation Energy    =      -2.3875518394126103 [Eh]
	 SCS Total Energy          =    -581.0065871768952093 [Eh]
	-----------------------------------------------------------

  Dipole Moment: [D]
     X:    -0.2305      Y:    -6.5778      Z:    -0.9281     Total:     6.6470

*** Psi4 exiting successfully. Buy a developer a beer!
