                               Psi4 1.3.2 release

  ==> Input File <==

--------------------------------------------------------------------------
#psi4
#
memory 32 gb

molecule  {
0 1
  O       -1.4697740     2.5644010     0.0803940
  N        1.9191590    -0.5831280    -0.0556370
  N       -1.9102790     0.3061000     0.0485010
  N       -0.3427170    -1.4672350    -0.0387560
  N        1.5166440     1.6409000    -0.0105650
  N       -2.6294290    -1.9169300     0.1110730
  C        0.5395960    -0.4213838    -0.0283462
  C        0.3337570     0.9396730    -0.0094060
  C       -1.0221650     1.4237120     0.0351730
  C        2.4390620     0.6894910    -0.0699270
  C       -1.5651425    -1.0046337     0.0193478
  C        2.6353690    -1.8453210    -0.0655260
  H        3.5092610     0.8590810    -0.0866130
  H        2.3729340    -2.4304260     0.8177420
  H        2.3794720    -2.4140780    -0.9605130
  H        3.7041390    -1.6305860    -0.0592400
  H       -2.8879820     0.5691470     0.1693100
  H       -2.3258040    -2.8676930    -0.0642460
  H       -3.4596940    -1.6726380    -0.4173570
units angstrom
no_reorient  #important for SAPT in psi4, default
symmetry c1  #important for SAPT in psi4, default
}

set PROPERTIES_ORIGIN ["COM"]
properties('MP2/aug-cc-pvtz', properties = ['dipole'])
--------------------------------------------------------------------------

    Molecular point group: c1
  Charge       = 0
  Multiplicity = 1
  Basis Set: AUG-CC-PVTZ
    Blend: AUG-CC-PVTZ
  Basis Set: (AUG-CC-PVTZ AUX)
    Blend: AUG-CC-PVTZ-JKFIT

    Orbital Energies [Eh]
    ---------------------

    Doubly Occupied:

       1A    -20.523465     2A    -15.632697     3A    -15.630762
       4A    -15.607811     5A    -15.572108     6A    -15.558468
       7A    -11.395418     8A    -11.366352     9A    -11.318549
      10A    -11.308672    11A    -11.288463    12A    -11.247449
      13A     -1.393819    14A     -1.358934    15A     -1.334199
      16A     -1.221046    17A     -1.213073    18A     -1.190241
      19A     -1.032319    20A     -0.984854    21A     -0.901856
      22A     -0.884087    23A     -0.808280    24A     -0.768639
      25A     -0.742318    26A     -0.724504    27A     -0.690623
      28A     -0.670238    29A     -0.652144    30A     -0.638676
      31A     -0.626404    32A     -0.612350    33A     -0.594775
      34A     -0.575259    35A     -0.559988    36A     -0.541076
      37A     -0.497458    38A     -0.458079    39A     -0.442334
      40A     -0.431838    41A     -0.431035    42A     -0.392205
      43A     -0.301359

  @DF-RHF Final Energy:  -578.62970995684202

   => Energetics <=

    Nuclear Repulsion Energy =            693.8350699865783326
    One-Electron Energy =               -2164.6811130193814279
    Two-Electron Energy =                 892.2163330759611881
    Total Energy =                       -578.6297099568420208
  Basis Set: (AUG-CC-PVTZ AUX)
    Blend: AUG-CC-PVTZ-RI
    Molecular point group: c1

    Geometry (in Angstrom), charge = 0, multiplicity = 1:

       Center              X                  Y                   Z               Mass
    ------------   -----------------  -----------------  -----------------  -----------------
         O           -1.469033334437     2.561715394931     0.080267655510    15.994914619570
         N            1.919899665563    -0.585813605069    -0.055763344490    14.003074004430
         N           -1.909538334437     0.303414394931     0.048374655510    14.003074004430
         N           -0.341976334437    -1.469920605069    -0.038882344490    14.003074004430
         N            1.517384665563     1.638214394931    -0.010691344490    14.003074004430
         N           -2.628688334437    -1.919615605069     0.110946655510    14.003074004430
         C            0.540336665563    -0.424069405069    -0.028472544490    12.000000000000
         C            0.334497665563     0.936987394931    -0.009532344490    12.000000000000
         C           -1.021424334437     1.421026394931     0.035046655510    12.000000000000
         C            2.439802665563     0.686805394931    -0.070053344490    12.000000000000
         C           -1.564401834437    -1.007319305069     0.019221455510    12.000000000000
         C            2.636109665563    -1.848006605069    -0.065652344490    12.000000000000
         H            3.510001665563     0.856395394931    -0.086739344490     1.007825032230
         H            2.373674665563    -2.433111605069     0.817615655510     1.007825032230
         H            2.380212665563    -2.416763605069    -0.960639344490     1.007825032230
         H            3.704879665563    -1.633271605069    -0.059366344490     1.007825032230
         H           -2.887241334437     0.566461394931     0.169183655510     1.007825032230
         H           -2.325063334437    -2.870378605069    -0.064372344490     1.007825032230
         H           -3.458953334437    -1.675323605069    -0.417483344490     1.007825032230

  Basis Set: AUG-CC-PVTZ
    Blend: AUG-CC-PVTZ
  Basis Set: (AUG-CC-PVTZ AUX)
    Blend: AUG-CC-PVTZ-JKFIT
	 Reference Energy          =    -578.6297099568420208 [Eh]
	 Singles Energy            =      -0.0000000000000000 [Eh]
	 Same-Spin Energy          =      -0.6158113424218370 [Eh]
	 Opposite-Spin Energy      =      -1.8198210103473611 [Eh]
	 Correlation Energy        =      -2.4356323527691979 [Eh]
	 Total Energy              =    -581.0653423096111965 [Eh]

	 ================> DF-SCS-MP2 Energies <==================
	-----------------------------------------------------------
	 SCS Same-Spin Scale       =       0.3333333333333333 [-]
	 SCS Opposite-Spin Scale   =       1.2000000000000000 [-]
	 SCS Same-Spin Energy      =      -0.2052704474739457 [Eh]
	 SCS Opposite-Spin Energy  =      -2.1837852124168333 [Eh]
	 SCS Correlation Energy    =      -2.3890556598907788 [Eh]
	 SCS Total Energy          =    -581.0187656167328214 [Eh]
	-----------------------------------------------------------

  Dipole Moment: [D]
     X:    -0.0139      Y:    -6.6205      Z:    -0.9379     Total:     6.6866

*** Psi4 exiting successfully. Buy a developer a beer!
