                               Psi4 1.3.2 release

  ==> Input File <==

--------------------------------------------------------------------------
#psi4
#
memory 32 gb

molecule  {
0 1
  O       -1.4697740     2.5644010     0.0803940
  N        1.9191590    -0.5831280    -0.0556370
  N       -1.9102790     0.3061000     0.0485010
  N       -0.3427170    -1.4672350    -0.0387560
  N        1.5166440     1.6409000    -0.0105650
  N       -2.6294290    -1.9169300     0.1110730
  C        0.5576980    -0.4369160    -0.0295360
  C        0.3337570     0.9396730    -0.0094060
  C       -0.8338972     1.3565039     0.0289833
  C        2.4390620     0.6894910    -0.0699270
  C       -1.5730580    -1.0260450     0.0187980
  C        2.6353690    -1.8453210    -0.0655260
  H        3.5092610     0.8590810    -0.0866130
  H        2.3729340    -2.4304260     0.8177420
  H        2.3794720    -2.4140780    -0.9605130
  H        3.7041390    -1.6305860    -0.0592400
  H       -2.8879820     0.5691470     0.1693100
  H       -2.3258040    -2.8676930    -0.0642460
  H       -3.4596940    -1.6726380    -0.4173570
units angstrom
no_reorient  #important for SAPT in psi4, default
symmetry c1  #important for SAPT in psi4, default
}

set PROPERTIES_ORIGIN ["COM"]
properties('MP2/aug-cc-pvtz', properties = ['dipole'])
--------------------------------------------------------------------------

    Molecular point group: c1
  Charge       = 0
  Multiplicity = 1
  Basis Set: AUG-CC-PVTZ
    Blend: AUG-CC-PVTZ
  Basis Set: (AUG-CC-PVTZ AUX)
    Blend: AUG-CC-PVTZ-JKFIT

    Orbital Energies [Eh]
    ---------------------

    Doubly Occupied:

       1A    -20.481137     2A    -15.649976     3A    -15.626132
       4A    -15.613139     5A    -15.581310     6A    -15.572616
       7A    -11.399174     8A    -11.351481     9A    -11.347045
      10A    -11.327225    11A    -11.301241    12A    -11.241053
      13A     -1.392504    14A     -1.348272    15A     -1.277110
      16A     -1.226411    17A     -1.209957    18A     -1.184282
      19A     -1.073690    20A     -1.009150    21A     -0.929914
      22A     -0.872312    23A     -0.810093    24A     -0.782762
      25A     -0.747863    26A     -0.739562    27A     -0.690945
      28A     -0.684507    29A     -0.658415    30A     -0.651319
      31A     -0.627596    32A     -0.611045    33A     -0.592889
      34A     -0.573912    35A     -0.541516    36A     -0.515709
      37A     -0.503364    38A     -0.466312    39A     -0.444380
      40A     -0.416041    41A     -0.396380    42A     -0.394960
      43A     -0.315474

  @DF-RHF Final Energy:  -578.55659799043553

   => Energetics <=

    Nuclear Repulsion Energy =            695.0070064469468889
    One-Electron Energy =               -2166.7668593313915153
    Two-Electron Energy =                 893.2032548940090919
    Total Energy =                       -578.5565979904355345
  Basis Set: (AUG-CC-PVTZ AUX)
    Blend: AUG-CC-PVTZ-RI
    Molecular point group: c1

    Geometry (in Angstrom), charge = 0, multiplicity = 1:

       Center              X                  Y                   Z               Mass
    ------------   -----------------  -----------------  -----------------  -----------------
         O           -1.483460685701     2.569287071220     0.080844104578    15.994914619570
         N            1.905472314299    -0.578241928780    -0.055186895422    14.003074004430
         N           -1.923965685701     0.310986071220     0.048951104578    14.003074004430
         N           -0.356403685701    -1.462348928780    -0.038305895422    14.003074004430
         N            1.502957314299     1.645786071220    -0.010114895422    14.003074004430
         N           -2.643115685701    -1.912043928780     0.111523104578    14.003074004430
         C            0.544011314299    -0.432029928780    -0.029085895422    12.000000000000
         C            0.320070314299     0.944559071220    -0.008955895422    12.000000000000
         C           -0.847583885701     1.361389971220     0.029433404578    12.000000000000
         C            2.425375314299     0.694377071220    -0.069476895422    12.000000000000
         C           -1.586744685701    -1.021158928780     0.019248104578    12.000000000000
         C            2.621682314299    -1.840434928780    -0.065075895422    12.000000000000
         H            3.495574314299     0.863967071220    -0.086162895422     1.007825032230
         H            2.359247314299    -2.425539928780     0.818192104578     1.007825032230
         H            2.365785314299    -2.409191928780    -0.960062895422     1.007825032230
         H            3.690452314299    -1.625699928780    -0.058789895422     1.007825032230
         H           -2.901668685701     0.574033071220     0.169760104578     1.007825032230
         H           -2.339490685701    -2.862806928780    -0.063795895422     1.007825032230
         H           -3.473380685701    -1.667751928780    -0.416906895422     1.007825032230

  Basis Set: AUG-CC-PVTZ
    Blend: AUG-CC-PVTZ
  Basis Set: (AUG-CC-PVTZ AUX)
    Blend: AUG-CC-PVTZ-JKFIT
	 Reference Energy          =    -578.5565979904355345 [Eh]
	 Singles Energy            =      -0.0000000000000000 [Eh]
	 Same-Spin Energy          =      -0.6188488728500638 [Eh]
	 Opposite-Spin Energy      =      -1.8260363874970245 [Eh]
	 Correlation Energy        =      -2.4448852603470881 [Eh]
	 Total Energy              =    -581.0014832507825986 [Eh]

	 ================> DF-SCS-MP2 Energies <==================
	-----------------------------------------------------------
	 SCS Same-Spin Scale       =       0.3333333333333333 [-]
	 SCS Opposite-Spin Scale   =       1.2000000000000000 [-]
	 SCS Same-Spin Energy      =      -0.2062829576166879 [Eh]
	 SCS Opposite-Spin Energy  =      -2.1912436649964291 [Eh]
	 SCS Correlation Energy    =      -2.3975266226131171 [Eh]
	 SCS Total Energy          =    -580.9541246130486343 [Eh]
	-----------------------------------------------------------

  Dipole Moment: [D]
     X:     1.1601      Y:    -7.8692      Z:    -0.9805     Total:     8.0145

*** Psi4 exiting successfully. Buy a developer a beer!
