                               Psi4 1.3.2 release

  ==> Input File <==

--------------------------------------------------------------------------
#psi4
#
memory 32 gb

molecule  {
0 1
  O       -1.4697740     2.5644010     0.0803940
  N        1.9191590    -0.5831280    -0.0556370
  N       -1.9102790     0.3061000     0.0485010
  N       -0.3427170    -1.4672350    -0.0387560
  N        1.5334133     1.6568589    -0.0102813
  N       -2.6294290    -1.9169300     0.1110730
  C        0.5576980    -0.4369160    -0.0295360
  C        0.3337570     0.9396730    -0.0094060
  C       -1.0221650     1.4237120     0.0351730
  C        2.4390620     0.6894910    -0.0699270
  C       -1.5730580    -1.0260450     0.0187980
  C        2.6353690    -1.8453210    -0.0655260
  H        3.5061534     0.8777189    -0.0857806
  H        2.3729340    -2.4304260     0.8177420
  H        2.3794720    -2.4140780    -0.9605130
  H        3.7041390    -1.6305860    -0.0592400
  H       -2.8879820     0.5691470     0.1693100
  H       -2.3258040    -2.8676930    -0.0642460
  H       -3.4596940    -1.6726380    -0.4173570
units angstrom
no_reorient  #important for SAPT in psi4, default
symmetry c1  #important for SAPT in psi4, default
}

set PROPERTIES_ORIGIN ["COM"]
properties('MP2/aug-cc-pvtz', properties = ['dipole'])
--------------------------------------------------------------------------

    Molecular point group: c1
  Charge       = 0
  Multiplicity = 1
  Basis Set: AUG-CC-PVTZ
    Blend: AUG-CC-PVTZ
  Basis Set: (AUG-CC-PVTZ AUX)
    Blend: AUG-CC-PVTZ-JKFIT

    Orbital Energies [Eh]
    ---------------------

    Doubly Occupied:

       1A    -20.520351     2A    -15.633135     3A    -15.629465
       4A    -15.611154     5A    -15.571558     6A    -15.561907
       7A    -11.396765     8A    -11.364077     9A    -11.320825
      10A    -11.308071    11A    -11.289639    12A    -11.248092
      13A     -1.390276    14A     -1.359639    15A     -1.333757
      16A     -1.219347    17A     -1.215661    18A     -1.188496
      19A     -1.030468    20A     -0.985674    21A     -0.900930
      22A     -0.882661    23A     -0.807343    24A     -0.766612
      25A     -0.740016    26A     -0.729483    27A     -0.692268
      28A     -0.671117    29A     -0.650008    30A     -0.642649
      31A     -0.626837    32A     -0.610291    33A     -0.587952
      34A     -0.578670    35A     -0.560076    36A     -0.541625
      37A     -0.494295    38A     -0.459529    39A     -0.439887
      40A     -0.430756    41A     -0.429289    42A     -0.391084
      43A     -0.300250

  @DF-RHF Final Energy:  -578.62978668573965

   => Energetics <=

    Nuclear Repulsion Energy =            692.7712747092353993
    One-Electron Energy =               -2162.5781526695172943
    Two-Electron Energy =                 891.1770912745421356
    Total Energy =                       -578.6297866857396457
  Basis Set: (AUG-CC-PVTZ AUX)
    Blend: AUG-CC-PVTZ-RI
    Molecular point group: c1

    Geometry (in Angstrom), charge = 0, multiplicity = 1:

       Center              X                  Y                   Z               Mass
    ------------   -----------------  -----------------  -----------------  -----------------
         O           -1.471177506148     2.562933487968     0.080364972376    15.994914619570
         N            1.917755493852    -0.584595512032    -0.055666027624    14.003074004430
         N           -1.911682506148     0.304632487968     0.048471972376    14.003074004430
         N           -0.344120506148    -1.468702512032    -0.038785027624    14.003074004430
         N            1.532009793852     1.655391387968    -0.010310327624    14.003074004430
         N           -2.630832506148    -1.918397512032     0.111043972376    14.003074004430
         C            0.556294493852    -0.438383512032    -0.029565027624    12.000000000000
         C            0.332353493852     0.938205487968    -0.009435027624    12.000000000000
         C           -1.023568506148     1.422244487968     0.035143972376    12.000000000000
         C            2.437658493852     0.688023487968    -0.069956027624    12.000000000000
         C           -1.574461506148    -1.027512512032     0.018768972376    12.000000000000
         C            2.633965493852    -1.846788512032    -0.065555027624    12.000000000000
         H            3.504749893852     0.876251387968    -0.085809627624     1.007825032230
         H            2.371530493852    -2.431893512032     0.817712972376     1.007825032230
         H            2.378068493852    -2.415545512032    -0.960542027624     1.007825032230
         H            3.702735493852    -1.632053512032    -0.059269027624     1.007825032230
         H           -2.889385506148     0.567679487968     0.169280972376     1.007825032230
         H           -2.327207506148    -2.869160512032    -0.064275027624     1.007825032230
         H           -3.461097506148    -1.674105512032    -0.417386027624     1.007825032230

  Basis Set: AUG-CC-PVTZ
    Blend: AUG-CC-PVTZ
  Basis Set: (AUG-CC-PVTZ AUX)
    Blend: AUG-CC-PVTZ-JKFIT
	 Reference Energy          =    -578.6297866857396457 [Eh]
	 Singles Energy            =      -0.0000000000000000 [Eh]
	 Same-Spin Energy          =      -0.6158463782821038 [Eh]
	 Opposite-Spin Energy      =      -1.8200086202531405 [Eh]
	 Correlation Energy        =      -2.4358549985352442 [Eh]
	 Total Energy              =    -581.0656416842748513 [Eh]

	 ================> DF-SCS-MP2 Energies <==================
	-----------------------------------------------------------
	 SCS Same-Spin Scale       =       0.3333333333333333 [-]
	 SCS Opposite-Spin Scale   =       1.2000000000000000 [-]
	 SCS Same-Spin Energy      =      -0.2052821260940346 [Eh]
	 SCS Opposite-Spin Energy  =      -2.1840103443037684 [Eh]
	 SCS Correlation Energy    =      -2.3892924703978031 [Eh]
	 SCS Total Energy          =    -581.0190791561374226 [Eh]
	-----------------------------------------------------------

  Dipole Moment: [D]
     X:    -0.0434      Y:    -6.8230      Z:    -0.9370     Total:     6.8872

*** Psi4 exiting successfully. Buy a developer a beer!
