                               Psi4 1.4a3.dev225

  ==> Input File <==

--------------------------------------------------------------------------
#psi4
#
memory 32 gb

molecule  {
0 1
  O        1.6617960     2.5152110     0.0229320
  N       -1.9329240    -0.4005880    -0.0147920
  N        1.9545050     0.2323110     0.0113410
  N        0.2669280    -1.4301930    -0.0208730
  N       -1.3834780     1.7915450    -0.0193170
  N        2.5221760    -2.0364130     0.0734370
  C       -0.5634760    -0.3442740    -0.0026930
  C       -0.2488450     1.0144850    -0.0147620
  C        1.1380320     1.4076430     0.0031510
  C       -2.3683130     0.9036150    -0.0164120
  C        1.5634371    -1.1068678    -0.0029370
  C       -2.7322540    -1.6127190     0.0339130
  H       -3.4247340     1.1445090    -0.0228960
  H       -2.2735910    -2.3629350    -0.6109560
  H       -2.7853950    -1.9995380     1.0543320
  H       -3.7366260    -1.3828770    -0.3245450
  H        2.9468270     0.4301980     0.1174830
  H        2.1372730    -2.9631930    -0.0801050
  H        3.3349710    -1.8642740    -0.5097710
units angstrom
no_reorient  #important for SAPT in psi4, default
symmetry c1  #important for SAPT in psi4, default
}

set PROPERTIES_ORIGIN ["COM"]
properties('MP2/aug-cc-pvtz', properties = ['dipole'])
--------------------------------------------------------------------------

    Molecular point group: c1
  Charge       = 0
  Multiplicity = 1
  Basis Set: AUG-CC-PVTZ
    Blend: AUG-CC-PVTZ
  Basis Set: (AUG-CC-PVTZ AUX)
    Blend: AUG-CC-PVTZ-JKFIT

    Orbital Energies [Eh]
    ---------------------

    Doubly Occupied:

       1A    -20.519247     2A    -15.630390     3A    -15.626753
       4A    -15.619361     5A    -15.568182     6A    -15.557647
       7A    -11.399569     8A    -11.363299     9A    -11.317304
      10A    -11.304710    11A    -11.287269    12A    -11.243959
      13A     -1.387384    14A     -1.357897    15A     -1.337210
      16A     -1.230504    17A     -1.208537    18A     -1.184781
      19A     -1.026062    20A     -0.983811    21A     -0.898379
      22A     -0.882063    23A     -0.806147    24A     -0.765356
      25A     -0.742488    26A     -0.734752    27A     -0.696459
      28A     -0.668112    29A     -0.649171    30A     -0.642287
      31A     -0.623837    32A     -0.608415    33A     -0.591592
      34A     -0.576629    35A     -0.562653    36A     -0.541757
      37A     -0.486434    38A     -0.462015    39A     -0.437302
      40A     -0.426424    41A     -0.425711    42A     -0.390240
      43A     -0.294165

  @DF-RHF Final Energy:  -578.62574773536721

   => Energetics <=

    Nuclear Repulsion Energy =            692.5308407873768601
    One-Electron Energy =               -2162.1806512386724535
    Two-Electron Energy =                 891.0240627159284941
    Total Energy =                       -578.6257477353672130
  Basis Set: (AUG-CC-PVTZ AUX)
    Blend: AUG-CC-PVTZ-RI
    Molecular point group: c1

    Geometry (in Angstrom), charge = 0, multiplicity = 1:

       Center              X                  Y                   Z               Mass
    ------------   -----------------  -----------------  -----------------  -----------------
         O            1.636366490692     2.463763088055     0.020461778989    15.994914619570
         N           -1.958353509308    -0.452035911945    -0.017262221011    14.003074004430
         N            1.929075490692     0.180863088055     0.008870778989    14.003074004430
         N            0.241498490692    -1.481640911945    -0.023343221011    14.003074004430
         N           -1.408907509308     1.740097088055    -0.021787221011    14.003074004430
         N            2.496746490692    -2.087860911945     0.070966778989    14.003074004430
         C           -0.588905509308    -0.395721911945    -0.005163221011    12.000000000000
         C           -0.274274509308     0.963037088055    -0.017232221011    12.000000000000
         C            1.112602490692     1.356195088055     0.000680778989    12.000000000000
         C           -2.393742509308     0.852167088055    -0.018882221011    12.000000000000
         C            1.538007590692    -1.158315711945    -0.005407221011    12.000000000000
         C           -2.757683509308    -1.664166911945     0.031442778989    12.000000000000
         H           -3.450163509308     1.093061088055    -0.025366221011     1.007825032230
         H           -2.299020509308    -2.414382911945    -0.613426221011     1.007825032230
         H           -2.810824509308    -2.050985911945     1.051861778989     1.007825032230
         H           -3.762055509308    -1.434324911945    -0.327015221011     1.007825032230
         H            2.921397490692     0.378750088055     0.115012778989     1.007825032230
         H            2.111843490692    -3.014640911945    -0.082575221011     1.007825032230
         H            3.309541490692    -1.915721911945    -0.512241221011     1.007825032230

  Basis Set: AUG-CC-PVTZ
    Blend: AUG-CC-PVTZ
  Basis Set: (AUG-CC-PVTZ AUX)
    Blend: AUG-CC-PVTZ-JKFIT
	 Reference Energy          =    -578.6257477353672130 [Eh]
	 Singles Energy            =      -0.0000000000000000 [Eh]
	 Same-Spin Energy          =      -0.6165610365700080 [Eh]
	 Opposite-Spin Energy      =      -1.8202835195590057 [Eh]
	 Correlation Energy        =      -2.4368445561290137 [Eh]
	 Total Energy              =    -581.0625922914962302 [Eh]

	 ================> DF-SCS-MP2 Energies <==================
	-----------------------------------------------------------
	 SCS Same-Spin Scale       =       0.3333333333333333 [-]
	 SCS Opposite-Spin Scale   =       1.2000000000000000 [-]
	 SCS Same-Spin Energy      =      -0.2055203455233360 [Eh]
	 SCS Opposite-Spin Energy  =      -2.1843402234708069 [Eh]
	 SCS Correlation Energy    =      -2.3898605689941430 [Eh]
	 SCS Total Energy          =    -581.0156083043613080 [Eh]
	-----------------------------------------------------------

  Dipole Moment: [D]
     X:    -0.1844      Y:    -7.0510      Z:    -0.8407     Total:     7.1033

*** Psi4 exiting successfully. Buy a developer a beer!
