                               Psi4 1.3.2 release

  ==> Input File <==

--------------------------------------------------------------------------
#psi4
#
memory 32 gb

molecule  {
0 1
  O       -1.4697740     2.5644010     0.0803940
  N        1.9191590    -0.5831280    -0.0556370
  N       -1.9102790     0.3061000     0.0485010
  N       -0.3427170    -1.4672350    -0.0387560
  N        1.5166440     1.6409000    -0.0105650
  N       -2.6294290    -1.9169300     0.1110730
  C        0.5576980    -0.4369160    -0.0295360
  C        0.3337570     0.9396730    -0.0094060
  C       -1.0221650     1.4237120     0.0351730
  C        2.4611895     0.6802205    -0.0703291
  C       -1.5730580    -1.0260450     0.0187980
  C        2.6572833    -1.8326283    -0.0659953
  H        3.5092610     0.8590810    -0.0866130
  H        2.3729340    -2.4304260     0.8177420
  H        2.3794720    -2.4140780    -0.9605130
  H        3.7041390    -1.6305860    -0.0592400
  H       -2.8879820     0.5691470     0.1693100
  H       -2.3258040    -2.8676930    -0.0642460
  H       -3.4596940    -1.6726380    -0.4173570
units angstrom
no_reorient  #important for SAPT in psi4, default
symmetry c1  #important for SAPT in psi4, default
}

set PROPERTIES_ORIGIN ["COM"]
properties('MP2/aug-cc-pvtz', properties = ['dipole'])
--------------------------------------------------------------------------

    Molecular point group: c1
  Charge       = 0
  Multiplicity = 1
  Basis Set: AUG-CC-PVTZ
    Blend: AUG-CC-PVTZ
  Basis Set: (AUG-CC-PVTZ AUX)
    Blend: AUG-CC-PVTZ-JKFIT

    Orbital Energies [Eh]
    ---------------------

    Doubly Occupied:

       1A    -20.521612     2A    -15.634624     3A    -15.629524
       4A    -15.610604     5A    -15.570950     6A    -15.560831
       7A    -11.395908     8A    -11.364933     9A    -11.319289
      10A    -11.307291    11A    -11.289181    12A    -11.247601
      13A     -1.390628    14A     -1.359273    15A     -1.333417
      16A     -1.219193    17A     -1.214199    18A     -1.187456
      19A     -1.028939    20A     -0.986292    21A     -0.903273
      22A     -0.881513    23A     -0.810075    24A     -0.766824
      25A     -0.740092    26A     -0.730932    27A     -0.692466
      28A     -0.669226    29A     -0.649771    30A     -0.644130
      31A     -0.625819    32A     -0.610219    33A     -0.595400
      34A     -0.585404    35A     -0.557219    36A     -0.540742
      37A     -0.492592    38A     -0.458507    39A     -0.439764
      40A     -0.428789    41A     -0.428190    42A     -0.390969
      43A     -0.296900

  @DF-RHF Final Energy:  -578.62736355080256

   => Energetics <=

    Nuclear Repulsion Energy =            692.8752173305107362
    One-Electron Energy =               -2162.7840378442433575
    Two-Electron Energy =                 891.2814569629301786
    Total Energy =                       -578.6273635508025563
  Basis Set: (AUG-CC-PVTZ AUX)
    Blend: AUG-CC-PVTZ-RI
    Molecular point group: c1

    Geometry (in Angstrom), charge = 0, multiplicity = 1:

       Center              X                  Y                   Z               Mass
    ------------   -----------------  -----------------  -----------------  -----------------
         O           -1.472975656335     2.564152346763     0.080457471574    15.994914619570
         N            1.915957343665    -0.583376653237    -0.055573528426    14.003074004430
         N           -1.913480656335     0.305851346763     0.048564471574    14.003074004430
         N           -0.345918656335    -1.467483653237    -0.038692528426    14.003074004430
         N            1.513442343665     1.640651346763    -0.010501528426    14.003074004430
         N           -2.632630656335    -1.917178653237     0.111136471574    14.003074004430
         C            0.554496343665    -0.437164653237    -0.029472528426    12.000000000000
         C            0.330555343665     0.939424346763    -0.009342528426    12.000000000000
         C           -1.025366656335     1.423463346763     0.035236471574    12.000000000000
         C            2.457987843665     0.679971846763    -0.070265628426    12.000000000000
         C           -1.576259656335    -1.026293653237     0.018861471574    12.000000000000
         C            2.654081643665    -1.832876953237    -0.065931828426    12.000000000000
         H            3.506059343665     0.858832346763    -0.086549528426     1.007825032230
         H            2.369732343665    -2.430674653237     0.817805471574     1.007825032230
         H            2.376270343665    -2.414326653237    -0.960449528426     1.007825032230
         H            3.700937343665    -1.630834653237    -0.059176528426     1.007825032230
         H           -2.891183656335     0.568898346763     0.169373471574     1.007825032230
         H           -2.329005656335    -2.867941653237    -0.064182528426     1.007825032230
         H           -3.462895656335    -1.672886653237    -0.417293528426     1.007825032230

  Basis Set: AUG-CC-PVTZ
    Blend: AUG-CC-PVTZ
  Basis Set: (AUG-CC-PVTZ AUX)
    Blend: AUG-CC-PVTZ-JKFIT
	 Reference Energy          =    -578.6273635508025563 [Eh]
	 Singles Energy            =      -0.0000000000000000 [Eh]
	 Same-Spin Energy          =      -0.6166264296583531 [Eh]
	 Opposite-Spin Energy      =      -1.8209394880639529 [Eh]
	 Correlation Energy        =      -2.4375659177223059 [Eh]
	 Total Energy              =    -581.0649294685248378 [Eh]

	 ================> DF-SCS-MP2 Energies <==================
	-----------------------------------------------------------
	 SCS Same-Spin Scale       =       0.3333333333333333 [-]
	 SCS Opposite-Spin Scale   =       1.2000000000000000 [-]
	 SCS Same-Spin Energy      =      -0.2055421432194510 [Eh]
	 SCS Opposite-Spin Energy  =      -2.1851273856767435 [Eh]
	 SCS Correlation Energy    =      -2.3906695288961943 [Eh]
	 SCS Total Energy          =    -581.0180330796987391 [Eh]
	-----------------------------------------------------------

  Dipole Moment: [D]
     X:    -0.0031      Y:    -6.8019      Z:    -0.9378     Total:     6.8663

*** Psi4 exiting successfully. Buy a developer a beer!
