                               Psi4 1.4a3.dev225

  ==> Input File <==

--------------------------------------------------------------------------
#psi4
#
memory 32 gb

molecule  {
0 1
  O        1.6617960     2.5152110     0.0229320
  N       -1.9329240    -0.4005880    -0.0147920
  N        1.9545050     0.2323110     0.0113410
  N        0.2669280    -1.4301930    -0.0208730
  N       -1.3834780     1.7915450    -0.0193170
  N        2.5221760    -2.0364130     0.0734370
  C       -0.5634760    -0.3442740    -0.0026930
  C       -0.2488450     1.0144850    -0.0147620
  C        1.1380320     1.4076430     0.0031510
  C       -2.3683130     0.9036150    -0.0164120
  C        1.5756923    -1.0584596    -0.0052167
  C       -2.7322540    -1.6127190     0.0339130
  H       -3.4247340     1.1445090    -0.0228960
  H       -2.2735910    -2.3629350    -0.6109560
  H       -2.7853950    -1.9995380     1.0543320
  H       -3.7366260    -1.3828770    -0.3245450
  H        2.9468270     0.4301980     0.1174830
  H        2.1372730    -2.9631930    -0.0801050
  H        3.3349710    -1.8642740    -0.5097710
units angstrom
no_reorient  #important for SAPT in psi4, default
symmetry c1  #important for SAPT in psi4, default
}

set PROPERTIES_ORIGIN ["COM"]
properties('MP2/aug-cc-pvtz', properties = ['dipole'])
--------------------------------------------------------------------------

    Molecular point group: c1
  Charge       = 0
  Multiplicity = 1
  Basis Set: AUG-CC-PVTZ
    Blend: AUG-CC-PVTZ
  Basis Set: (AUG-CC-PVTZ AUX)
    Blend: AUG-CC-PVTZ-JKFIT

    Orbital Energies [Eh]
    ---------------------

    Doubly Occupied:

       1A    -20.522039     2A    -15.634737     3A    -15.629261
       4A    -15.616595     5A    -15.567378     6A    -15.557500
       7A    -11.399709     8A    -11.366351     9A    -11.317063
      10A    -11.304929    11A    -11.286787    12A    -11.243615
      13A     -1.392560    14A     -1.358105    15A     -1.337246
      16A     -1.230018    17A     -1.208136    18A     -1.185022
      19A     -1.025449    20A     -0.984075    21A     -0.902464
      22A     -0.885603    23A     -0.804857    24A     -0.765522
      25A     -0.744279    26A     -0.734902    27A     -0.696685
      28A     -0.668485    29A     -0.650924    30A     -0.639457
      31A     -0.623411    32A     -0.609715    33A     -0.592872
      34A     -0.575749    35A     -0.560934    36A     -0.540566
      37A     -0.487920    38A     -0.460877    39A     -0.440886
      40A     -0.430796    41A     -0.426175    42A     -0.390361
      43A     -0.292307

  @DF-RHF Final Energy:  -578.62592508371381

   => Energetics <=

    Nuclear Repulsion Energy =            692.8327115484501064
    One-Electron Energy =               -2162.7326282907074528
    Two-Electron Energy =                 891.2739916585435367
    Total Energy =                       -578.6259250837138097
  Basis Set: (AUG-CC-PVTZ AUX)
    Blend: AUG-CC-PVTZ-RI
    Molecular point group: c1

    Geometry (in Angstrom), charge = 0, multiplicity = 1:

       Center              X                  Y                   Z               Mass
    ------------   -----------------  -----------------  -----------------  -----------------
         O            1.635475554717     2.460243879323     0.020627510004    15.994914619570
         N           -1.959244445283    -0.455555120677    -0.017096489996    14.003074004430
         N            1.928184554717     0.177343879323     0.009036510004    14.003074004430
         N            0.240607554717    -1.485160120677    -0.023177489996    14.003074004430
         N           -1.409798445283     1.736577879323    -0.021621489996    14.003074004430
         N            2.495855554717    -2.091380120677     0.071132510004    14.003074004430
         C           -0.589796445283    -0.399241120677    -0.004997489996    12.000000000000
         C           -0.275165445283     0.959517879323    -0.017066489996    12.000000000000
         C            1.111711554717     1.352675879323     0.000846510004    12.000000000000
         C           -2.394633445283     0.848647879323    -0.018716489996    12.000000000000
         C            1.549371854717    -1.113426720677    -0.007521189996    12.000000000000
         C           -2.758574445283    -1.667686120677     0.031608510004    12.000000000000
         H           -3.451054445283     1.089541879323    -0.025200489996     1.007825032230
         H           -2.299911445283    -2.417902120677    -0.613260489996     1.007825032230
         H           -2.811715445283    -2.054505120677     1.052027510004     1.007825032230
         H           -3.762946445283    -1.437844120677    -0.326849489996     1.007825032230
         H            2.920506554717     0.375230879323     0.115178510004     1.007825032230
         H            2.110952554717    -3.018160120677    -0.082409489996     1.007825032230
         H            3.308650554717    -1.919241120677    -0.512075489996     1.007825032230

  Basis Set: AUG-CC-PVTZ
    Blend: AUG-CC-PVTZ
  Basis Set: (AUG-CC-PVTZ AUX)
    Blend: AUG-CC-PVTZ-JKFIT
	 Reference Energy          =    -578.6259250837138097 [Eh]
	 Singles Energy            =      -0.0000000000000000 [Eh]
	 Same-Spin Energy          =      -0.6166116987313237 [Eh]
	 Opposite-Spin Energy      =      -1.8203569410485143 [Eh]
	 Correlation Energy        =      -2.4369686397798382 [Eh]
	 Total Energy              =    -581.0628937234936302 [Eh]

	 ================> DF-SCS-MP2 Energies <==================
	-----------------------------------------------------------
	 SCS Same-Spin Scale       =       0.3333333333333333 [-]
	 SCS Opposite-Spin Scale   =       1.2000000000000000 [-]
	 SCS Same-Spin Energy      =      -0.2055372329104412 [Eh]
	 SCS Opposite-Spin Energy  =      -2.1844283292582172 [Eh]
	 SCS Correlation Energy    =      -2.3899655621686584 [Eh]
	 SCS Total Energy          =    -581.0158906458824504 [Eh]
	-----------------------------------------------------------

  Dipole Moment: [D]
     X:    -0.1559      Y:    -6.7944      Z:    -0.8412     Total:     6.8480

*** Psi4 exiting successfully. Buy a developer a beer!
