                               Psi4 1.4a3.dev225

  ==> Input File <==

--------------------------------------------------------------------------
#psi4
#
memory 32 gb

molecule  {
0 1
  O        1.6617960     2.5152110     0.0229320
  N       -1.9329240    -0.4005880    -0.0147920
  N        1.9545050     0.2323110     0.0113410
  N        0.2669280    -1.4301930    -0.0208730
  N       -1.3834780     1.7915450    -0.0193170
  N        2.5221760    -2.0364130     0.0734370
  C       -0.5634760    -0.3442740    -0.0026930
  C       -0.2488450     1.0144850    -0.0147620
  C        1.1294830     1.3895651     0.0028281
  C       -2.3683130     0.9036150    -0.0164120
  C        1.5275980    -1.0721200    -0.0057920
  C       -2.7322540    -1.6127190     0.0339130
  H       -3.4247340     1.1445090    -0.0228960
  H       -2.2735910    -2.3629350    -0.6109560
  H       -2.7853950    -1.9995380     1.0543320
  H       -3.7366260    -1.3828770    -0.3245450
  H        2.9468270     0.4301980     0.1174830
  H        2.1372730    -2.9631930    -0.0801050
  H        3.3349710    -1.8642740    -0.5097710
units angstrom
no_reorient  #important for SAPT in psi4, default
symmetry c1  #important for SAPT in psi4, default
}

set PROPERTIES_ORIGIN ["COM"]
properties('MP2/aug-cc-pvtz', properties = ['dipole'])
--------------------------------------------------------------------------

    Molecular point group: c1
  Charge       = 0
  Multiplicity = 1
  Basis Set: AUG-CC-PVTZ
    Blend: AUG-CC-PVTZ
  Basis Set: (AUG-CC-PVTZ AUX)
    Blend: AUG-CC-PVTZ-JKFIT

    Orbital Energies [Eh]
    ---------------------

    Doubly Occupied:

       1A    -20.516181     2A    -15.634020     3A    -15.631873
       4A    -15.611943     5A    -15.573093     6A    -15.561173
       7A    -11.397469     8A    -11.363887     9A    -11.321539
      10A    -11.308711    11A    -11.290101    12A    -11.247745
      13A     -1.387269    14A     -1.356390    15A     -1.330978
      16A     -1.219935    17A     -1.217327    18A     -1.191995
      19A     -1.032105    20A     -0.987601    21A     -0.904316
      22A     -0.883836    23A     -0.808737    24A     -0.767623
      25A     -0.744318    26A     -0.730079    27A     -0.692065
      28A     -0.672044    29A     -0.648576    30A     -0.643907
      31A     -0.626530    32A     -0.603855    33A     -0.595526
      34A     -0.578685    35A     -0.562201    36A     -0.537612
      37A     -0.494542    38A     -0.461052    39A     -0.438558
      40A     -0.427959    41A     -0.427584    42A     -0.393831
      43A     -0.300008

  @DF-RHF Final Energy:  -578.62860148756215

   => Energetics <=

    Nuclear Repulsion Energy =            693.3392095196486480
    One-Electron Energy =               -2163.6860675411126067
    Two-Electron Energy =                 891.7182565339018083
    Total Energy =                       -578.6286014875621504
  Basis Set: (AUG-CC-PVTZ AUX)
    Blend: AUG-CC-PVTZ-RI
    Molecular point group: c1

    Geometry (in Angstrom), charge = 0, multiplicity = 1:

       Center              X                  Y                   Z               Mass
    ------------   -----------------  -----------------  -----------------  -----------------
         O            1.639593443751     2.462551209538     0.020692807894    15.994914619570
         N           -1.955126556249    -0.453247790462    -0.017031192106    14.003074004430
         N            1.932302443751     0.179651209538     0.009101807894    14.003074004430
         N            0.244725443751    -1.482852790462    -0.023112192106    14.003074004430
         N           -1.405680556249     1.738885209538    -0.021556192106    14.003074004430
         N            2.499973443751    -2.089072790462     0.071197807894    14.003074004430
         C           -0.585678556249    -0.396933790462    -0.004932192106    12.000000000000
         C           -0.271047556249     0.961825209538    -0.017001192106    12.000000000000
         C            1.107280443751     1.336905309538     0.000588907894    12.000000000000
         C           -2.390515556249     0.850955209538    -0.018651192106    12.000000000000
         C            1.505395443751    -1.124779790462    -0.008031192106    12.000000000000
         C           -2.754456556249    -1.665378790462     0.031673807894    12.000000000000
         H           -3.446936556249     1.091849209538    -0.025135192106     1.007825032230
         H           -2.295793556249    -2.415594790462    -0.613195192106     1.007825032230
         H           -2.807597556249    -2.052197790462     1.052092807894     1.007825032230
         H           -3.758828556249    -1.435536790462    -0.326784192106     1.007825032230
         H            2.924624443751     0.377538209538     0.115243807894     1.007825032230
         H            2.115070443751    -3.015852790462    -0.082344192106     1.007825032230
         H            3.312768443751    -1.916933790462    -0.512010192106     1.007825032230

  Basis Set: AUG-CC-PVTZ
    Blend: AUG-CC-PVTZ
  Basis Set: (AUG-CC-PVTZ AUX)
    Blend: AUG-CC-PVTZ-JKFIT
	 Reference Energy          =    -578.6286014875621504 [Eh]
	 Singles Energy            =      -0.0000000000000000 [Eh]
	 Same-Spin Energy          =      -0.6164820965860313 [Eh]
	 Opposite-Spin Energy      =      -1.8205477629715912 [Eh]
	 Correlation Energy        =      -2.4370298595576223 [Eh]
	 Total Energy              =    -581.0656313471197336 [Eh]

	 ================> DF-SCS-MP2 Energies <==================
	-----------------------------------------------------------
	 SCS Same-Spin Scale       =       0.3333333333333333 [-]
	 SCS Opposite-Spin Scale   =       1.2000000000000000 [-]
	 SCS Same-Spin Energy      =      -0.2054940321953437 [Eh]
	 SCS Opposite-Spin Energy  =      -2.1846573155659095 [Eh]
	 SCS Correlation Energy    =      -2.3901513477612530 [Eh]
	 SCS Total Energy          =    -581.0187528353234256 [Eh]
	-----------------------------------------------------------

  Dipole Moment: [D]
     X:    -0.6143      Y:    -6.9385      Z:    -0.8529     Total:     7.0176

*** Psi4 exiting successfully. Buy a developer a beer!
