                               Psi4 1.3.2 release

  ==> Input File <==

--------------------------------------------------------------------------
#psi4
#
memory 32 gb

molecule  {
0 1
  O       -1.4697740     2.5644010     0.0803940
  N        1.9191590    -0.5831280    -0.0556370
  N       -1.9102790     0.3061000     0.0485010
  N       -0.3427170    -1.4672350    -0.0387560
  N        1.5166440     1.6409000    -0.0105650
  N       -2.6294290    -1.9169300     0.1110730
  C        0.5576980    -0.4369160    -0.0295360
  C        0.3337570     0.9396730    -0.0094060
  C       -1.0221650     1.4237120     0.0351730
  C        2.4390620     0.6894910    -0.0699270
  C       -1.5730580    -1.0260450     0.0187980
  C        2.6353690    -1.8453210    -0.0655260
  H        3.5092610     0.8590810    -0.0866130
  H        2.3911700    -2.4300027     0.8232352
  H        2.3794720    -2.4140780    -0.9605130
  H        3.7057868    -1.6401098    -0.0428514
  H       -2.8879820     0.5691470     0.1693100
  H       -2.3258040    -2.8676930    -0.0642460
  H       -3.4596940    -1.6726380    -0.4173570
units angstrom
no_reorient  #important for SAPT in psi4, default
symmetry c1  #important for SAPT in psi4, default
}

set PROPERTIES_ORIGIN ["COM"]
properties('MP2/aug-cc-pvtz', properties = ['dipole'])
--------------------------------------------------------------------------

    Molecular point group: c1
  Charge       = 0
  Multiplicity = 1
  Basis Set: AUG-CC-PVTZ
    Blend: AUG-CC-PVTZ
  Basis Set: (AUG-CC-PVTZ AUX)
    Blend: AUG-CC-PVTZ-JKFIT

    Orbital Energies [Eh]
    ---------------------

    Doubly Occupied:

       1A    -20.520887     2A    -15.633103     3A    -15.629285
       4A    -15.610659     5A    -15.570825     6A    -15.559644
       7A    -11.396013     8A    -11.364278     9A    -11.319234
      10A    -11.307315    11A    -11.289313    12A    -11.246984
      13A     -1.390675    14A     -1.360586    15A     -1.333996
      16A     -1.219057    17A     -1.216186    18A     -1.190598
      19A     -1.029424    20A     -0.986486    21A     -0.901581
      22A     -0.882167    23A     -0.807977    24A     -0.767257
      25A     -0.741067    26A     -0.729300    27A     -0.692180
      28A     -0.671485    29A     -0.649952    30A     -0.641469
      31A     -0.627161    32A     -0.610285    33A     -0.593695
      34A     -0.576827    35A     -0.561586    36A     -0.541644
      37A     -0.493698    38A     -0.459235    39A     -0.439928
      40A     -0.429315    41A     -0.428812    42A     -0.392958
      43A     -0.298412

  @DF-RHF Final Energy:  -578.63068552932748

   => Energetics <=

    Nuclear Repulsion Energy =            693.4036175027514446
    One-Electron Energy =               -2163.8435255122599301
    Two-Electron Energy =                 891.8092224801811199
    Total Energy =                       -578.6306855293274793
  Basis Set: (AUG-CC-PVTZ AUX)
    Blend: AUG-CC-PVTZ-RI
    Molecular point group: c1

    Geometry (in Angstrom), charge = 0, multiplicity = 1:

       Center              X                  Y                   Z               Mass
    ------------   -----------------  -----------------  -----------------  -----------------
         O           -1.469895281790     2.564456700160     0.080260519985    15.994914619570
         N            1.919037718210    -0.583072299840    -0.055770480015    14.003074004430
         N           -1.910400281790     0.306155700160     0.048367519985    14.003074004430
         N           -0.342838281790    -1.467179299840    -0.038889480015    14.003074004430
         N            1.516522718210     1.640955700160    -0.010698480015    14.003074004430
         N           -2.629550281790    -1.916874299840     0.110939519985    14.003074004430
         C            0.557576718210    -0.436860299840    -0.029669480015    12.000000000000
         C            0.333635718210     0.939728700160    -0.009539480015    12.000000000000
         C           -1.022286281790     1.423767700160     0.035039519985    12.000000000000
         C            2.438940718210     0.689546700160    -0.070060480015    12.000000000000
         C           -1.573179281790    -1.025989299840     0.018664519985    12.000000000000
         C            2.635247718210    -1.845265299840    -0.065659480015    12.000000000000
         H            3.509139718210     0.859136700160    -0.086746480015     1.007825032230
         H            2.391048718210    -2.429946999840     0.823101719985     1.007825032230
         H            2.379350718210    -2.414022299840    -0.960646480015     1.007825032230
         H            3.705665518210    -1.640054099840    -0.042984880015     1.007825032230
         H           -2.888103281790     0.569202700160     0.169176519985     1.007825032230
         H           -2.325925281790    -2.867637299840    -0.064379480015     1.007825032230
         H           -3.459815281790    -1.672582299840    -0.417490480015     1.007825032230

  Basis Set: AUG-CC-PVTZ
    Blend: AUG-CC-PVTZ
  Basis Set: (AUG-CC-PVTZ AUX)
    Blend: AUG-CC-PVTZ-JKFIT
	 Reference Energy          =    -578.6306855293274793 [Eh]
	 Singles Energy            =      -0.0000000000000000 [Eh]
	 Same-Spin Energy          =      -0.6160563448673275 [Eh]
	 Opposite-Spin Energy      =      -1.8197848996862813 [Eh]
	 Correlation Energy        =      -2.4358412445536088 [Eh]
	 Total Energy              =    -581.0665267738810371 [Eh]

	 ================> DF-SCS-MP2 Energies <==================
	-----------------------------------------------------------
	 SCS Same-Spin Scale       =       0.3333333333333333 [-]
	 SCS Opposite-Spin Scale   =       1.2000000000000000 [-]
	 SCS Same-Spin Energy      =      -0.2053521149557758 [Eh]
	 SCS Opposite-Spin Energy  =      -2.1837418796235375 [Eh]
	 SCS Correlation Energy    =      -2.3890939945793135 [Eh]
	 SCS Total Energy          =    -581.0197795239067773 [Eh]
	-----------------------------------------------------------

  Dipole Moment: [D]
     X:    -0.0052      Y:    -6.7908      Z:    -0.9262     Total:     6.8536

*** Psi4 exiting successfully. Buy a developer a beer!
