                               Psi4 1.4a3.dev225

  ==> Input File <==

--------------------------------------------------------------------------
#psi4
#
memory 32 gb

molecule  {
0 1
  O        1.6617960     2.5152110     0.0229320
  N       -1.9329240    -0.4005880    -0.0147920
  N        1.9545050     0.2323110     0.0113410
  N        0.2669280    -1.4301930    -0.0208730
  N       -1.3834780     1.7915450    -0.0193170
  N        2.5221760    -2.0364130     0.0734370
  C       -0.5634760    -0.3442740    -0.0026930
  C       -0.2488450     1.0144850    -0.0147620
  C        1.1380320     1.4076430     0.0031510
  C       -2.3683130     0.9036150    -0.0164120
  C        1.5275980    -1.0721200    -0.0057920
  C       -2.7322540    -1.6127190     0.0339130
  H       -3.4247340     1.1445090    -0.0228960
  H       -2.2735910    -2.3629350    -0.6109560
  H       -2.7853950    -1.9995380     1.0543320
  H       -3.7366260    -1.3828770    -0.3245450
  H        2.9468270     0.4301980     0.1174830
  H        2.1183161    -3.0088378    -0.0876671
  H        3.3349710    -1.8642740    -0.5097710
units angstrom
no_reorient  #important for SAPT in psi4, default
symmetry c1  #important for SAPT in psi4, default
}

set PROPERTIES_ORIGIN ["COM"]
properties('MP2/aug-cc-pvtz', properties = ['dipole'])
--------------------------------------------------------------------------

    Molecular point group: c1
  Charge       = 0
  Multiplicity = 1
  Basis Set: AUG-CC-PVTZ
    Blend: AUG-CC-PVTZ
  Basis Set: (AUG-CC-PVTZ AUX)
    Blend: AUG-CC-PVTZ-JKFIT

    Orbital Energies [Eh]
    ---------------------

    Doubly Occupied:

       1A    -20.521341     2A    -15.632657     3A    -15.629353
       4A    -15.614910     5A    -15.570783     6A    -15.559876
       7A    -11.395889     8A    -11.364862     9A    -11.319467
      10A    -11.306956    11A    -11.289111    12A    -11.247097
      13A     -1.390576    14A     -1.360483    15A     -1.332619
      16A     -1.216644    17A     -1.212460    18A     -1.190249
      19A     -1.028317    20A     -0.985902    21A     -0.900931
      22A     -0.879815    23A     -0.806751    24A     -0.765896
      25A     -0.740877    26A     -0.726846    27A     -0.682099
      28A     -0.670076    29A     -0.647903    30A     -0.641897
      31A     -0.624960    32A     -0.610387    33A     -0.594237
      34A     -0.578226    35A     -0.560867    36A     -0.541264
      37A     -0.492977    38A     -0.459473    39A     -0.440044
      40A     -0.429555    41A     -0.428898    42A     -0.392714
      43A     -0.298351

  @DF-RHF Final Energy:  -578.62700313015137

   => Energetics <=

    Nuclear Repulsion Energy =            692.9064055696617288
    One-Electron Energy =               -2162.8976278444670243
    Two-Electron Energy =                 891.3642191446539300
    Total Energy =                       -578.6270031301513654
  Basis Set: (AUG-CC-PVTZ AUX)
    Blend: AUG-CC-PVTZ-RI
    Molecular point group: c1

    Geometry (in Angstrom), charge = 0, multiplicity = 1:

       Center              X                  Y                   Z               Mass
    ------------   -----------------  -----------------  -----------------  -----------------
         O            1.639087687041     2.461515661323     0.020715504845    15.994914619570
         N           -1.955632312959    -0.454283338677    -0.017008495155    14.003074004430
         N            1.931796687041     0.178615661323     0.009124504845    14.003074004430
         N            0.244219687041    -1.483888338677    -0.023089495155    14.003074004430
         N           -1.406186312959     1.737849661323    -0.021533495155    14.003074004430
         N            2.499467687041    -2.090108338677     0.071220504845    14.003074004430
         C           -0.586184312959    -0.397969338677    -0.004909495155    12.000000000000
         C           -0.271553312959     0.960789661323    -0.016978495155    12.000000000000
         C            1.115323687041     1.353947661323     0.000934504845    12.000000000000
         C           -2.391021312959     0.849919661323    -0.018628495155    12.000000000000
         C            1.504889687041    -1.125815338677    -0.008008495155    12.000000000000
         C           -2.754962312959    -1.666414338677     0.031696504845    12.000000000000
         H           -3.447442312959     1.090813661323    -0.025112495155     1.007825032230
         H           -2.296299312959    -2.416630338677    -0.613172495155     1.007825032230
         H           -2.808103312959    -2.053233338677     1.052115504845     1.007825032230
         H           -3.759334312959    -1.436572338677    -0.326761495155     1.007825032230
         H            2.924118687041     0.376502661323     0.115266504845     1.007825032230
         H            2.095607787041    -3.062533138677    -0.089883595155     1.007825032230
         H            3.312262687041    -1.917969338677    -0.511987495155     1.007825032230

  Basis Set: AUG-CC-PVTZ
    Blend: AUG-CC-PVTZ
  Basis Set: (AUG-CC-PVTZ AUX)
    Blend: AUG-CC-PVTZ-JKFIT
	 Reference Energy          =    -578.6270031301513654 [Eh]
	 Singles Energy            =      -0.0000000000000000 [Eh]
	 Same-Spin Energy          =      -0.6163848703407935 [Eh]
	 Opposite-Spin Energy      =      -1.8206916276323790 [Eh]
	 Correlation Energy        =      -2.4370764979731723 [Eh]
	 Total Energy              =    -581.0640796281245457 [Eh]

	 ================> DF-SCS-MP2 Energies <==================
	-----------------------------------------------------------
	 SCS Same-Spin Scale       =       0.3333333333333333 [-]
	 SCS Opposite-Spin Scale   =       1.2000000000000000 [-]
	 SCS Same-Spin Energy      =      -0.2054616234469311 [Eh]
	 SCS Opposite-Spin Energy  =      -2.1848299531588546 [Eh]
	 SCS Correlation Energy    =      -2.3902915766057857 [Eh]
	 SCS Total Energy          =    -581.0172947067571840 [Eh]
	-----------------------------------------------------------

  Dipole Moment: [D]
     X:    -0.5329      Y:    -6.7939      Z:    -0.8527     Total:     6.8679

*** Psi4 exiting successfully. Buy a developer a beer!
