                               Psi4 1.3.2 release

  ==> Input File <==

--------------------------------------------------------------------------
#psi4
#
memory 32 gb

molecule  {
0 1
  O       -1.4697740     2.5644010     0.0803940
  N        1.9191590    -0.5831280    -0.0556370
  N       -1.8707577     0.2757875     0.0470224
  N       -0.3427170    -1.4672350    -0.0387560
  N        1.5166440     1.6409000    -0.0105650
  N       -2.6294290    -1.9169300     0.1110730
  C        0.5576980    -0.4369160    -0.0295360
  C        0.3160292     0.8926246    -0.0094136
  C       -1.0221650     1.4237120     0.0351730
  C        2.4390620     0.6894910    -0.0699270
  C       -1.5730580    -1.0260450     0.0187980
  C        2.6353690    -1.8453210    -0.0655260
  H        3.5092610     0.8590810    -0.0866130
  H        2.3729340    -2.4304260     0.8177420
  H        2.3794720    -2.4140780    -0.9605130
  H        3.7041390    -1.6305860    -0.0592400
  H       -2.8879820     0.5691470     0.1693100
  H       -2.3258040    -2.8676930    -0.0642460
  H       -3.4596940    -1.6726380    -0.4173570
units angstrom
no_reorient  #important for SAPT in psi4, default
symmetry c1  #important for SAPT in psi4, default
}

set PROPERTIES_ORIGIN ["COM"]
properties('MP2/aug-cc-pvtz', properties = ['dipole'])
--------------------------------------------------------------------------

    Molecular point group: c1
  Charge       = 0
  Multiplicity = 1
  Basis Set: AUG-CC-PVTZ
    Blend: AUG-CC-PVTZ
  Basis Set: (AUG-CC-PVTZ AUX)
    Blend: AUG-CC-PVTZ-JKFIT

    Orbital Energies [Eh]
    ---------------------

    Doubly Occupied:

       1A    -20.527749     2A    -15.632732     3A    -15.628784
       4A    -15.609544     5A    -15.565647     6A    -15.558817
       7A    -11.391408     8A    -11.368666     9A    -11.314923
      10A    -11.308072    11A    -11.287712    12A    -11.243029
      13A     -1.395378    14A     -1.361027    15A     -1.338155
      16A     -1.222022    17A     -1.212086    18A     -1.183366
      19A     -1.037036    20A     -0.983934    21A     -0.904731
      22A     -0.882262    23A     -0.810118    24A     -0.770517
      25A     -0.731632    26A     -0.727415    27A     -0.691485
      28A     -0.671925    29A     -0.653802    30A     -0.638726
      31A     -0.627045    32A     -0.617280    33A     -0.583018
      34A     -0.576448    35A     -0.560060    36A     -0.542067
      37A     -0.489459    38A     -0.459365    39A     -0.440151
      40A     -0.433812    41A     -0.430298    42A     -0.387356
      43A     -0.305860

  @DF-RHF Final Energy:  -578.62341802094920

   => Energetics <=

    Nuclear Repulsion Energy =            694.9673692245471557
    One-Electron Energy =               -2166.9717350338924007
    Two-Electron Energy =                 893.3809477883960426
    Total Energy =                       -578.6234180209492024
  Basis Set: (AUG-CC-PVTZ AUX)
    Blend: AUG-CC-PVTZ-RI
    Molecular point group: c1

    Geometry (in Angstrom), charge = 0, multiplicity = 1:

       Center              X                  Y                   Z               Mass
    ------------   -----------------  -----------------  -----------------  -----------------
         O           -1.471837829156     2.570393009575     0.080520109574    15.994914619570
         N            1.917095170844    -0.577135990425    -0.055510890426    14.003074004430
         N           -1.872821529156     0.281779509575     0.047148509574    14.003074004430
         N           -0.344780829156    -1.461242990425    -0.038629890426    14.003074004430
         N            1.514580170844     1.646892009575    -0.010438890426    14.003074004430
         N           -2.631492829156    -1.910937990425     0.111199109574    14.003074004430
         C            0.555634170844    -0.430923990425    -0.029409890426    12.000000000000
         C            0.313965370844     0.898616609575    -0.009287490426    12.000000000000
         C           -1.024228829156     1.429704009575     0.035299109574    12.000000000000
         C            2.436998170844     0.695483009575    -0.069800890426    12.000000000000
         C           -1.575121829156    -1.020052990425     0.018924109574    12.000000000000
         C            2.633305170844    -1.839328990425    -0.065399890426    12.000000000000
         H            3.507197170844     0.865073009575    -0.086486890426     1.007825032230
         H            2.370870170844    -2.424433990425     0.817868109574     1.007825032230
         H            2.377408170844    -2.408085990425    -0.960386890426     1.007825032230
         H            3.702075170844    -1.624593990425    -0.059113890426     1.007825032230
         H           -2.890045829156     0.575139009575     0.169436109574     1.007825032230
         H           -2.327867829156    -2.861700990425    -0.064119890426     1.007825032230
         H           -3.461757829156    -1.666645990425    -0.417230890426     1.007825032230

  Basis Set: AUG-CC-PVTZ
    Blend: AUG-CC-PVTZ
  Basis Set: (AUG-CC-PVTZ AUX)
    Blend: AUG-CC-PVTZ-JKFIT
	 Reference Energy          =    -578.6234180209492024 [Eh]
	 Singles Energy            =      -0.0000000000000000 [Eh]
	 Same-Spin Energy          =      -0.6160500992700059 [Eh]
	 Opposite-Spin Energy      =      -1.8202909855819771 [Eh]
	 Correlation Energy        =      -2.4363410848519829 [Eh]
	 Total Energy              =    -581.0597591058011631 [Eh]

	 ================> DF-SCS-MP2 Energies <==================
	-----------------------------------------------------------
	 SCS Same-Spin Scale       =       0.3333333333333333 [-]
	 SCS Opposite-Spin Scale   =       1.2000000000000000 [-]
	 SCS Same-Spin Energy      =      -0.2053500330900019 [Eh]
	 SCS Opposite-Spin Energy  =      -2.1843491826983725 [Eh]
	 SCS Correlation Energy    =      -2.3896992157883745 [Eh]
	 SCS Total Energy          =    -581.0131172367375711 [Eh]
	-----------------------------------------------------------

  Dipole Moment: [D]
     X:    -0.1633      Y:    -6.6284      Z:    -0.9381     Total:     6.6964

*** Psi4 exiting successfully. Buy a developer a beer!
