                               Psi4 1.4a3.dev225

  ==> Input File <==

--------------------------------------------------------------------------
#psi4
#
memory 32 gb

molecule  {
0 1
  O        1.6617960     2.5152110     0.0229320
  N       -1.9329240    -0.4005880    -0.0147920
  N        1.9545050     0.2323110     0.0113410
  N        0.2669280    -1.4301930    -0.0208730
  N       -1.3834780     1.7915450    -0.0193170
  N        2.5221760    -2.0364130     0.0734370
  C       -0.5634760    -0.3442740    -0.0026930
  C       -0.2375660     1.0631943    -0.0151947
  C        1.1380320     1.4076430     0.0031510
  C       -2.3683130     0.9036150    -0.0164120
  C        1.5275980    -1.0721200    -0.0057920
  C       -2.7322540    -1.6127190     0.0339130
  H       -3.4247340     1.1445090    -0.0228960
  H       -2.2735910    -2.3629350    -0.6109560
  H       -2.7853950    -1.9995380     1.0543320
  H       -3.7366260    -1.3828770    -0.3245450
  H        2.9468270     0.4301980     0.1174830
  H        2.1372730    -2.9631930    -0.0801050
  H        3.3349710    -1.8642740    -0.5097710
units angstrom
no_reorient  #important for SAPT in psi4, default
symmetry c1  #important for SAPT in psi4, default
}

set PROPERTIES_ORIGIN ["COM"]
properties('MP2/aug-cc-pvtz', properties = ['dipole'])
--------------------------------------------------------------------------

    Molecular point group: c1
  Charge       = 0
  Multiplicity = 1
  Basis Set: AUG-CC-PVTZ
    Blend: AUG-CC-PVTZ
  Basis Set: (AUG-CC-PVTZ AUX)
    Blend: AUG-CC-PVTZ-JKFIT

    Orbital Energies [Eh]
    ---------------------

    Doubly Occupied:

       1A    -20.515989     2A    -15.636225     3A    -15.630089
       4A    -15.611461     5A    -15.572721     6A    -15.560617
       7A    -11.396982     8A    -11.360845     9A    -11.325840
      10A    -11.306798    11A    -11.290703    12A    -11.249672
      13A     -1.389420    14A     -1.359060    15A     -1.333823
      16A     -1.218707    17A     -1.217693    18A     -1.193301
      19A     -1.025451    20A     -0.989075    21A     -0.904582
      22A     -0.882314    23A     -0.806366    24A     -0.761583
      25A     -0.744183    26A     -0.730968    27A     -0.691548
      28A     -0.670618    29A     -0.648668    30A     -0.643568
      31A     -0.626354    32A     -0.606309    33A     -0.601145
      34A     -0.579601    35A     -0.561630    36A     -0.541215
      37A     -0.494239    38A     -0.461217    39A     -0.438958
      40A     -0.429314    41A     -0.423018    42A     -0.395484
      43A     -0.292673

  @DF-RHF Final Energy:  -578.62621663242646

   => Energetics <=

    Nuclear Repulsion Energy =            692.6553638233802985
    One-Electron Energy =               -2162.3231101380974906
    Two-Electron Energy =                 891.0415296822906157
    Total Energy =                       -578.6262166324264626
  Basis Set: (AUG-CC-PVTZ AUX)
    Blend: AUG-CC-PVTZ-RI
    Molecular point group: c1

    Geometry (in Angstrom), charge = 0, multiplicity = 1:

       Center              X                  Y                   Z               Mass
    ------------   -----------------  -----------------  -----------------  -----------------
         O            1.638151975762     2.457695873099     0.020700790201    15.994914619570
         N           -1.956568024238    -0.458103126901    -0.017023209799    14.003074004430
         N            1.930860975762     0.174795873099     0.009109790201    14.003074004430
         N            0.243283975762    -1.487708126901    -0.023104209799    14.003074004430
         N           -1.407122024238     1.734029873099    -0.021548209799    14.003074004430
         N            2.498531975762    -2.093928126901     0.071205790201    14.003074004430
         C           -0.587120024238    -0.401789126901    -0.004924209799    12.000000000000
         C           -0.261210024238     1.005679173099    -0.017425909799    12.000000000000
         C            1.114387975762     1.350127873099     0.000919790201    12.000000000000
         C           -2.391957024238     0.846099873099    -0.018643209799    12.000000000000
         C            1.503953975762    -1.129635126901    -0.008023209799    12.000000000000
         C           -2.755898024238    -1.670234126901     0.031681790201    12.000000000000
         H           -3.448378024238     1.086993873099    -0.025127209799     1.007825032230
         H           -2.297235024238    -2.420450126901    -0.613187209799     1.007825032230
         H           -2.809039024238    -2.057053126901     1.052100790201     1.007825032230
         H           -3.760270024238    -1.440392126901    -0.326776209799     1.007825032230
         H            2.923182975762     0.372682873099     0.115251790201     1.007825032230
         H            2.113628975762    -3.020708126901    -0.082336209799     1.007825032230
         H            3.311326975762    -1.921789126901    -0.512002209799     1.007825032230

  Basis Set: AUG-CC-PVTZ
    Blend: AUG-CC-PVTZ
  Basis Set: (AUG-CC-PVTZ AUX)
    Blend: AUG-CC-PVTZ-JKFIT
	 Reference Energy          =    -578.6262166324264626 [Eh]
	 Singles Energy            =      -0.0000000000000000 [Eh]
	 Same-Spin Energy          =      -0.6169822248735444 [Eh]
	 Opposite-Spin Energy      =      -1.8206178545264666 [Eh]
	 Correlation Energy        =      -2.4376000794000108 [Eh]
	 Total Energy              =    -581.0638167118264619 [Eh]

	 ================> DF-SCS-MP2 Energies <==================
	-----------------------------------------------------------
	 SCS Same-Spin Scale       =       0.3333333333333333 [-]
	 SCS Opposite-Spin Scale   =       1.2000000000000000 [-]
	 SCS Same-Spin Energy      =      -0.2056607416245148 [Eh]
	 SCS Opposite-Spin Energy  =      -2.1847414254317599 [Eh]
	 SCS Correlation Energy    =      -2.3904021670562745 [Eh]
	 SCS Total Energy          =    -581.0166187994827851 [Eh]
	-----------------------------------------------------------

  Dipole Moment: [D]
     X:    -0.6306      Y:    -6.8304      Z:    -0.8509     Total:     6.9120

*** Psi4 exiting successfully. Buy a developer a beer!
