                               Psi4 1.3.2 release

  ==> Input File <==

--------------------------------------------------------------------------
#psi4
#
memory 32 gb

molecule  {
0 1
  O       -1.4697740     2.5644010     0.0803940
  N        1.9191590    -0.5831280    -0.0556370
  N       -1.8906506     0.2907712     0.0477636
  N       -0.3427170    -1.4672350    -0.0387560
  N        1.5166440     1.6409000    -0.0105650
  N       -2.6294290    -1.9169300     0.1110730
  C        0.5576980    -0.4369160    -0.0295360
  C        0.3250983     0.9160715    -0.0094166
  C       -1.0221650     1.4237120     0.0351730
  C        2.4390620     0.6894910    -0.0699270
  C       -1.5730580    -1.0260450     0.0187980
  C        2.6353690    -1.8453210    -0.0655260
  H        3.5092610     0.8590810    -0.0866130
  H        2.3729340    -2.4304260     0.8177420
  H        2.3794720    -2.4140780    -0.9605130
  H        3.7041390    -1.6305860    -0.0592400
  H       -2.8879820     0.5691470     0.1693100
  H       -2.3258040    -2.8676930    -0.0642460
  H       -3.4596940    -1.6726380    -0.4173570
units angstrom
no_reorient  #important for SAPT in psi4, default
symmetry c1  #important for SAPT in psi4, default
}

set PROPERTIES_ORIGIN ["COM"]
properties('MP2/aug-cc-pvtz', properties = ['dipole'])
--------------------------------------------------------------------------

    Molecular point group: c1
  Charge       = 0
  Multiplicity = 1
  Basis Set: AUG-CC-PVTZ
    Blend: AUG-CC-PVTZ
  Basis Set: (AUG-CC-PVTZ AUX)
    Blend: AUG-CC-PVTZ-JKFIT

    Orbital Energies [Eh]
    ---------------------

    Doubly Occupied:

       1A    -20.524239     2A    -15.631027     3A    -15.630819
       4A    -15.610116     5A    -15.568277     6A    -15.559220
       7A    -11.393758     8A    -11.366328     9A    -11.317108
      10A    -11.307717    11A    -11.288552    12A    -11.244921
      13A     -1.392861    14A     -1.360678    15A     -1.336071
      16A     -1.220522    17A     -1.214062    18A     -1.187032
      19A     -1.033120    20A     -0.985125    21A     -0.902521
      22A     -0.882778    23A     -0.809017    24A     -0.768682
      25A     -0.735187    26A     -0.729428    27A     -0.692005
      28A     -0.671466    29A     -0.651787    30A     -0.639905
      31A     -0.627192    32A     -0.613751    33A     -0.588421
      34A     -0.577740    35A     -0.560510    36A     -0.541773
      37A     -0.491642    38A     -0.459206    39A     -0.439929
      40A     -0.431834    41A     -0.429737    42A     -0.390006
      43A     -0.302128

  @DF-RHF Final Energy:  -578.62892959048111

   => Energetics <=

    Nuclear Repulsion Energy =            694.2005851373602354
    One-Electron Energy =               -2165.4426347599269320
    Two-Electron Energy =                 892.6131200320857033
    Total Energy =                       -578.6289295904811070
  Basis Set: (AUG-CC-PVTZ AUX)
    Blend: AUG-CC-PVTZ-RI
    Molecular point group: c1

    Geometry (in Angstrom), charge = 0, multiplicity = 1:

       Center              X                  Y                   Z               Mass
    ------------   -----------------  -----------------  -----------------  -----------------
         O           -1.470809552481     2.567417330408     0.080457448957    15.994914619570
         N            1.918123447519    -0.580111669592    -0.055573551043    14.003074004430
         N           -1.891686152481     0.293787530408     0.047827048957    14.003074004430
         N           -0.343752552481    -1.464218669592    -0.038692551043    14.003074004430
         N            1.515608447519     1.643916330408    -0.010501551043    14.003074004430
         N           -2.630464552481    -1.913913669592     0.111136448957    14.003074004430
         C            0.556662447519    -0.433899669592    -0.029472551043    12.000000000000
         C            0.324062747519     0.919087830408    -0.009353151043    12.000000000000
         C           -1.023200552481     1.426728330408     0.035236448957    12.000000000000
         C            2.438026447519     0.692507330408    -0.069863551043    12.000000000000
         C           -1.574093552481    -1.023028669592     0.018861448957    12.000000000000
         C            2.634333447519    -1.842304669592    -0.065462551043    12.000000000000
         H            3.508225447519     0.862097330408    -0.086549551043     1.007825032230
         H            2.371898447519    -2.427409669592     0.817805448957     1.007825032230
         H            2.378436447519    -2.411061669592    -0.960449551043     1.007825032230
         H            3.703103447519    -1.627569669592    -0.059176551043     1.007825032230
         H           -2.889017552481     0.572163330408     0.169373448957     1.007825032230
         H           -2.326839552481    -2.864676669592    -0.064182551043     1.007825032230
         H           -3.460729552481    -1.669621669592    -0.417293551043     1.007825032230

  Basis Set: AUG-CC-PVTZ
    Blend: AUG-CC-PVTZ
  Basis Set: (AUG-CC-PVTZ AUX)
    Blend: AUG-CC-PVTZ-JKFIT
	 Reference Energy          =    -578.6289295904811070 [Eh]
	 Singles Energy            =      -0.0000000000000000 [Eh]
	 Same-Spin Energy          =      -0.6160058862076957 [Eh]
	 Opposite-Spin Energy      =      -1.8199354067769520 [Eh]
	 Correlation Energy        =      -2.4359412929846478 [Eh]
	 Total Energy              =    -581.0648708834658009 [Eh]

	 ================> DF-SCS-MP2 Energies <==================
	-----------------------------------------------------------
	 SCS Same-Spin Scale       =       0.3333333333333333 [-]
	 SCS Opposite-Spin Scale   =       1.2000000000000000 [-]
	 SCS Same-Spin Energy      =      -0.2053352954025652 [Eh]
	 SCS Opposite-Spin Energy  =      -2.1839224881323425 [Eh]
	 SCS Correlation Energy    =      -2.3892577835349078 [Eh]
	 SCS Total Energy          =    -581.0181873740160654 [Eh]
	-----------------------------------------------------------

  Dipole Moment: [D]
     X:    -0.0891      Y:    -6.7116      Z:    -0.9378     Total:     6.7774

*** Psi4 exiting successfully. Buy a developer a beer!
