                               Psi4 1.3.2 release

  ==> Input File <==

--------------------------------------------------------------------------
#psi4
#
memory 32 gb

molecule  {
0 1
  O       -1.4697740     2.5644010     0.0803940
  N        1.9191590    -0.5831280    -0.0556370
  N       -1.9102790     0.3061000     0.0485010
  N       -0.3427170    -1.4672350    -0.0387560
  N        1.5166440     1.6409000    -0.0105650
  N       -2.6294290    -1.9169300     0.1110730
  C        0.5576980    -0.4369160    -0.0295360
  C        0.1617151     0.8376849    -0.0092374
  C       -1.0221650     1.4237120     0.0351730
  C        2.4390620     0.6894910    -0.0699270
  C       -1.5730580    -1.0260450     0.0187980
  C        2.6353690    -1.8453210    -0.0655260
  H        3.5092610     0.8590810    -0.0866130
  H        2.3729340    -2.4304260     0.8177420
  H        2.3794720    -2.4140780    -0.9605130
  H        3.7041390    -1.6305860    -0.0592400
  H       -2.8879820     0.5691470     0.1693100
  H       -2.3258040    -2.8676930    -0.0642460
  H       -3.4596940    -1.6726380    -0.4173570
units angstrom
no_reorient  #important for SAPT in psi4, default
symmetry c1  #important for SAPT in psi4, default
}

set PROPERTIES_ORIGIN ["COM"]
properties('MP2/aug-cc-pvtz', properties = ['dipole'])
--------------------------------------------------------------------------

    Molecular point group: c1
  Charge       = 0
  Multiplicity = 1
  Basis Set: AUG-CC-PVTZ
    Blend: AUG-CC-PVTZ
  Basis Set: (AUG-CC-PVTZ AUX)
    Blend: AUG-CC-PVTZ-JKFIT

    Orbital Energies [Eh]
    ---------------------

    Doubly Occupied:

       1A    -20.516325     2A    -15.631629     3A    -15.625389
       4A    -15.611414     5A    -15.571171     6A    -15.563140
       7A    -11.398007     8A    -11.354496     9A    -11.333109
      10A    -11.313174    11A    -11.291952    12A    -11.240517
      13A     -1.393295    14A     -1.356899    15A     -1.331216
      16A     -1.224842    17A     -1.214142    18A     -1.164407
      19A     -1.052888    20A     -0.990247    21A     -0.915422
      22A     -0.881273    23A     -0.813606    24A     -0.780859
      25A     -0.735090    26A     -0.721514    27A     -0.692228
      28A     -0.674896    29A     -0.664190    30A     -0.642000
      31A     -0.630120    32A     -0.618785    33A     -0.583485
      34A     -0.562137    35A     -0.557116    36A     -0.543574
      37A     -0.488478    38A     -0.459464    39A     -0.439161
      40A     -0.429528    41A     -0.414640    42A     -0.376645
      43A     -0.324558

  @DF-RHF Final Energy:  -578.58567758432650

   => Energetics <=

    Nuclear Repulsion Energy =            694.6925223570730168
    One-Electron Energy =               -2166.3023407712521475
    Two-Electron Energy =                 893.0241408298527404
    Total Energy =                       -578.5856775843265041
  Basis Set: (AUG-CC-PVTZ AUX)
    Blend: AUG-CC-PVTZ-RI
    Molecular point group: c1

    Geometry (in Angstrom), charge = 0, multiplicity = 1:

       Center              X                  Y                   Z               Mass
    ------------   -----------------  -----------------  -----------------  -----------------
         O           -1.457266672240     2.571815528789     0.080381865022    15.994914619570
         N            1.931666327760    -0.575713471211    -0.055649134978    14.003074004430
         N           -1.897771672240     0.313514528789     0.048488865022    14.003074004430
         N           -0.330209672240    -1.459820471211    -0.038768134978    14.003074004430
         N            1.529151327760     1.648314528789    -0.010577134978    14.003074004430
         N           -2.616921672240    -1.909515471211     0.111060865022    14.003074004430
         C            0.570205327760    -0.429501471211    -0.029548134978    12.000000000000
         C            0.174222427760     0.845099428789    -0.009249534978    12.000000000000
         C           -1.009657672240     1.431126528789     0.035160865022    12.000000000000
         C            2.451569327760     0.696905528789    -0.069939134978    12.000000000000
         C           -1.560550672240    -1.018630471211     0.018785865022    12.000000000000
         C            2.647876327760    -1.837906471211    -0.065538134978    12.000000000000
         H            3.521768327760     0.866495528789    -0.086625134978     1.007825032230
         H            2.385441327760    -2.423011471211     0.817729865022     1.007825032230
         H            2.391979327760    -2.406663471211    -0.960525134978     1.007825032230
         H            3.716646327760    -1.623171471211    -0.059252134978     1.007825032230
         H           -2.875474672240     0.576561528789     0.169297865022     1.007825032230
         H           -2.313296672240    -2.860278471211    -0.064258134978     1.007825032230
         H           -3.447186672240    -1.665223471211    -0.417369134978     1.007825032230

  Basis Set: AUG-CC-PVTZ
    Blend: AUG-CC-PVTZ
  Basis Set: (AUG-CC-PVTZ AUX)
    Blend: AUG-CC-PVTZ-JKFIT
	 Reference Energy          =    -578.5856775843265041 [Eh]
	 Singles Energy            =      -0.0000000000000000 [Eh]
	 Same-Spin Energy          =      -0.6159239494674664 [Eh]
	 Opposite-Spin Energy      =      -1.8224619558107864 [Eh]
	 Correlation Energy        =      -2.4383859052782526 [Eh]
	 Total Energy              =    -581.0240634896047141 [Eh]

	 ================> DF-SCS-MP2 Energies <==================
	-----------------------------------------------------------
	 SCS Same-Spin Scale       =       0.3333333333333333 [-]
	 SCS Opposite-Spin Scale   =       1.2000000000000000 [-]
	 SCS Same-Spin Energy      =      -0.2053079831558221 [Eh]
	 SCS Opposite-Spin Energy  =      -2.1869543469729438 [Eh]
	 SCS Correlation Energy    =      -2.3922623301287658 [Eh]
	 SCS Total Energy          =    -580.9779399144553054 [Eh]
	-----------------------------------------------------------

  Dipole Moment: [D]
     X:     0.1230      Y:    -7.0091      Z:    -0.9453     Total:     7.0737

*** Psi4 exiting successfully. Buy a developer a beer!
