                               Psi4 1.3.2 release

  ==> Input File <==

--------------------------------------------------------------------------
#psi4
#
memory 32 gb

molecule  {
0 1
  O       -1.4697740     2.5644010     0.0803940
  N        1.9191590    -0.5831280    -0.0556370
  N       -1.9102790     0.3061000     0.0485010
  N       -0.3427170    -1.4672350    -0.0387560
  N        1.5166440     1.6409000    -0.0105650
  N       -2.6294290    -1.9169300     0.1110730
  C        0.5553556    -0.4607033    -0.0294129
  C        0.3337570     0.9396730    -0.0094060
  C       -1.0221650     1.4237120     0.0351730
  C        2.4611895     0.6802205    -0.0703288
  C       -1.5730580    -1.0260450     0.0187980
  C        2.6353690    -1.8453210    -0.0655260
  H        3.5092610     0.8590810    -0.0866130
  H        2.3729340    -2.4304260     0.8177420
  H        2.3794720    -2.4140780    -0.9605130
  H        3.7041390    -1.6305860    -0.0592400
  H       -2.8879820     0.5691470     0.1693100
  H       -2.3258040    -2.8676930    -0.0642460
  H       -3.4596940    -1.6726380    -0.4173570
units angstrom
no_reorient  #important for SAPT in psi4, default
symmetry c1  #important for SAPT in psi4, default
}

set PROPERTIES_ORIGIN ["COM"]
properties('MP2/aug-cc-pvtz', properties = ['dipole'])
--------------------------------------------------------------------------

    Molecular point group: c1
  Charge       = 0
  Multiplicity = 1
  Basis Set: AUG-CC-PVTZ
    Blend: AUG-CC-PVTZ
  Basis Set: (AUG-CC-PVTZ AUX)
    Blend: AUG-CC-PVTZ-JKFIT

    Orbital Energies [Eh]
    ---------------------

    Doubly Occupied:

       1A    -20.519602     2A    -15.634950     3A    -15.630241
       4A    -15.611731     5A    -15.571390     6A    -15.561693
       7A    -11.397752     8A    -11.363328     9A    -11.320965
      10A    -11.307178    11A    -11.288715    12A    -11.248239
      13A     -1.390266    14A     -1.358592    15A     -1.333967
      16A     -1.220132    17A     -1.218463    18A     -1.187587
      19A     -1.025767    20A     -0.985404    21A     -0.904075
      22A     -0.884196    23A     -0.810608    24A     -0.763816
      25A     -0.740887    26A     -0.732086    27A     -0.693095
      28A     -0.671102    29A     -0.648908    30A     -0.645943
      31A     -0.627764    32A     -0.609211    33A     -0.594484
      34A     -0.579034    35A     -0.558607    36A     -0.542019
      37A     -0.493215    38A     -0.460726    39A     -0.439187
      40A     -0.429708    41A     -0.426544    42A     -0.391491
      43A     -0.292917

  @DF-RHF Final Energy:  -578.62645409702304

   => Energetics <=

    Nuclear Repulsion Energy =            692.8406821186347315
    One-Electron Energy =               -2162.7031064963257450
    Two-Electron Energy =                 891.2359702806679707
    Total Energy =                       -578.6264540970230428
  Basis Set: (AUG-CC-PVTZ AUX)
    Blend: AUG-CC-PVTZ-RI
    Molecular point group: c1

    Geometry (in Angstrom), charge = 0, multiplicity = 1:

       Center              X                  Y                   Z               Mass
    ------------   -----------------  -----------------  -----------------  -----------------
         O           -1.471212228022     2.566804391965     0.080414383109    15.994914619570
         N            1.917720771978    -0.580724608035    -0.055616616891    14.003074004430
         N           -1.911717228022     0.308503391965     0.048521383109    14.003074004430
         N           -0.344155228022    -1.464831608035    -0.038735616891    14.003074004430
         N            1.515205771978     1.643303391965    -0.010544616891    14.003074004430
         N           -2.630867228022    -1.914526608035     0.111093383109    14.003074004430
         C            0.553917371978    -0.458299908035    -0.029392516891    12.000000000000
         C            0.332318771978     0.942076391965    -0.009385616891    12.000000000000
         C           -1.023603228022     1.426115391965     0.035193383109    12.000000000000
         C            2.459751271978     0.682623891965    -0.070308416891    12.000000000000
         C           -1.574496228022    -1.023641608035     0.018818383109    12.000000000000
         C            2.633930771978    -1.842917608035    -0.065505616891    12.000000000000
         H            3.507822771978     0.861484391965    -0.086592616891     1.007825032230
         H            2.371495771978    -2.428022608035     0.817762383109     1.007825032230
         H            2.378033771978    -2.411674608035    -0.960492616891     1.007825032230
         H            3.702700771978    -1.628182608035    -0.059219616891     1.007825032230
         H           -2.889420228022     0.571550391965     0.169330383109     1.007825032230
         H           -2.327242228022    -2.865289608035    -0.064225616891     1.007825032230
         H           -3.461132228022    -1.670234608035    -0.417336616891     1.007825032230

  Basis Set: AUG-CC-PVTZ
    Blend: AUG-CC-PVTZ
  Basis Set: (AUG-CC-PVTZ AUX)
    Blend: AUG-CC-PVTZ-JKFIT
	 Reference Energy          =    -578.6264540970230428 [Eh]
	 Singles Energy            =      -0.0000000000000000 [Eh]
	 Same-Spin Energy          =      -0.6171766914571843 [Eh]
	 Opposite-Spin Energy      =      -1.8212720483094436 [Eh]
	 Correlation Energy        =      -2.4384487397666277 [Eh]
	 Total Energy              =    -581.0649028367896562 [Eh]

	 ================> DF-SCS-MP2 Energies <==================
	-----------------------------------------------------------
	 SCS Same-Spin Scale       =       0.3333333333333333 [-]
	 SCS Opposite-Spin Scale   =       1.2000000000000000 [-]
	 SCS Same-Spin Energy      =      -0.2057255638190614 [Eh]
	 SCS Opposite-Spin Energy  =      -2.1855264579713323 [Eh]
	 SCS Correlation Energy    =      -2.3912520217903936 [Eh]
	 SCS Total Energy          =    -581.0177061188134076 [Eh]
	-----------------------------------------------------------

  Dipole Moment: [D]
     X:    -0.0254      Y:    -6.8656      Z:    -0.9385     Total:     6.9295

*** Psi4 exiting successfully. Buy a developer a beer!
