                               Psi4 1.3.2 release

  ==> Input File <==

--------------------------------------------------------------------------
#psi4
#
memory 32 gb

molecule  {
0 1
  O       -1.4697740     2.5644010     0.0803940
  N        1.9191590    -0.5831280    -0.0556370
  N       -1.9102790     0.3061000     0.0485010
  N       -0.3427170    -1.4672350    -0.0387560
  N        1.5166440     1.6409000    -0.0105650
  N       -2.6294290    -1.9169300     0.1110730
  C        0.5576980    -0.4369160    -0.0295360
  C        0.3337570     0.9396730    -0.0094060
  C       -1.0221650     1.4237120     0.0351730
  C        2.4390620     0.6894910    -0.0699270
  C       -1.5730580    -1.0260450     0.0187980
  C        2.6353690    -1.8453210    -0.0655260
  H        3.5092610     0.8590810    -0.0866130
  H        2.4210208    -2.3232153     0.6558979
  H        2.3794720    -2.4140780    -0.9605130
  H        3.7041390    -1.6305860    -0.0592400
  H       -2.8879820     0.5691470     0.1693100
  H       -2.3258040    -2.8676930    -0.0642460
  H       -3.4596940    -1.6726380    -0.4173570
units angstrom
no_reorient  #important for SAPT in psi4, default
symmetry c1  #important for SAPT in psi4, default
}

set PROPERTIES_ORIGIN ["COM"]
properties('MP2/aug-cc-pvtz', properties = ['dipole'])
--------------------------------------------------------------------------

    Molecular point group: c1
  Charge       = 0
  Multiplicity = 1
  Basis Set: AUG-CC-PVTZ
    Blend: AUG-CC-PVTZ
  Basis Set: (AUG-CC-PVTZ AUX)
    Blend: AUG-CC-PVTZ-JKFIT

    Orbital Energies [Eh]
    ---------------------

    Doubly Occupied:

       1A    -20.520626     2A    -15.631613     3A    -15.629100
       4A    -15.610608     5A    -15.570826     6A    -15.558935
       7A    -11.395941     8A    -11.363985     9A    -11.318808
      10A    -11.306553    11A    -11.266240    12A    -11.246478
      13A     -1.390435    14A     -1.360317    15A     -1.333825
      16A     -1.219005    17A     -1.216184    18A     -1.192228
      19A     -1.030953    20A     -1.007012    21A     -0.902756
      22A     -0.882055    23A     -0.808851    24A     -0.772904
      25A     -0.742185    26A     -0.729402    27A     -0.693284
      28A     -0.684400    29A     -0.654704    30A     -0.645622
      31A     -0.628501    32A     -0.612037    33A     -0.593402
      34A     -0.586364    35A     -0.565098    36A     -0.543042
      37A     -0.494049    38A     -0.459124    39A     -0.439607
      40A     -0.429113    41A     -0.428516    42A     -0.393841
      43A     -0.298056

  @DF-RHF Final Energy:  -578.59644356544948

   => Energetics <=

    Nuclear Repulsion Energy =            694.4631676483849105
    One-Electron Energy =               -2165.8060582099656131
    Two-Electron Energy =                 892.7464469961311124
    Total Energy =                       -578.5964435654494764
  Basis Set: (AUG-CC-PVTZ AUX)
    Blend: AUG-CC-PVTZ-RI
    Molecular point group: c1

    Geometry (in Angstrom), charge = 0, multiplicity = 1:

       Center              X                  Y                   Z               Mass
    ------------   -----------------  -----------------  -----------------  -----------------
         O           -1.470067478677     2.563746547818     0.081382281073    15.994914619570
         N            1.918865521323    -0.583782452182    -0.054648718927    14.003074004430
         N           -1.910572478677     0.305445547818     0.049489281073    14.003074004430
         N           -0.343010478677    -1.467889452182    -0.037767718927    14.003074004430
         N            1.516350521323     1.640245547818    -0.009576718927    14.003074004430
         N           -2.629722478677    -1.917584452182     0.112061281073    14.003074004430
         C            0.557404521323    -0.437570452182    -0.028547718927    12.000000000000
         C            0.333463521323     0.939018547818    -0.008417718927    12.000000000000
         C           -1.022458478677     1.423057547818     0.036161281073    12.000000000000
         C            2.438768521323     0.688836547818    -0.068938718927    12.000000000000
         C           -1.573351478677    -1.026699452182     0.019786281073    12.000000000000
         C            2.635075521323    -1.845975452182    -0.064537718927    12.000000000000
         H            3.508967521323     0.858426547818    -0.085624718927     1.007825032230
         H            2.420727321323    -2.323869752182     0.656886181073     1.007825032230
         H            2.379178521323    -2.414732452182    -0.959524718927     1.007825032230
         H            3.703845521323    -1.631240452182    -0.058251718927     1.007825032230
         H           -2.888275478677     0.568492547818     0.170298281073     1.007825032230
         H           -2.326097478677    -2.868347452182    -0.063257718927     1.007825032230
         H           -3.459987478677    -1.673292452182    -0.416368718927     1.007825032230

  Basis Set: AUG-CC-PVTZ
    Blend: AUG-CC-PVTZ
  Basis Set: (AUG-CC-PVTZ AUX)
    Blend: AUG-CC-PVTZ-JKFIT
	 Reference Energy          =    -578.5964435654494764 [Eh]
	 Singles Energy            =      -0.0000000000000000 [Eh]
	 Same-Spin Energy          =      -0.6160710548037085 [Eh]
	 Opposite-Spin Energy      =      -1.8190933306008623 [Eh]
	 Correlation Energy        =      -2.4351643854045708 [Eh]
	 Total Energy              =    -581.0316079508540952 [Eh]

	 ================> DF-SCS-MP2 Energies <==================
	-----------------------------------------------------------
	 SCS Same-Spin Scale       =       0.3333333333333333 [-]
	 SCS Opposite-Spin Scale   =       1.2000000000000000 [-]
	 SCS Same-Spin Energy      =      -0.2053570182679028 [Eh]
	 SCS Opposite-Spin Energy  =      -2.1829119967210349 [Eh]
	 SCS Correlation Energy    =      -2.3882690149889378 [Eh]
	 SCS Total Energy          =    -580.9847125804384405 [Eh]
	-----------------------------------------------------------

  Dipole Moment: [D]
     X:     0.0226      Y:    -6.8323      Z:    -0.9259     Total:     6.8948

*** Psi4 exiting successfully. Buy a developer a beer!
