                               Psi4 1.3.2 release

  ==> Input File <==

--------------------------------------------------------------------------
#psi4
#
memory 32 gb

molecule  {
0 1
  O       -1.4697740     2.5644010     0.0803940
  N        1.9191590    -0.5831280    -0.0556370
  N       -1.9102790     0.3061000     0.0485010
  N       -0.3427170    -1.4672350    -0.0387560
  N        1.5166440     1.6409000    -0.0105650
  N       -2.6294290    -1.9169300     0.1110730
  C        0.5576980    -0.4369160    -0.0295360
  C        0.3337570     0.9396730    -0.0094060
  C       -1.0221650     1.4237120     0.0351730
  C        2.4390620     0.6894910    -0.0699270
  C       -1.5730580    -1.0260450     0.0187980
  C        2.6353690    -1.8453210    -0.0655260
  H        3.5092610     0.8590810    -0.0866130
  H        2.3729340    -2.4304260     0.8177420
  H        2.3794720    -2.4140780    -0.9605130
  H        3.7041390    -1.6305860    -0.0592400
  H       -3.0797538     0.6207424     0.1930061
  H       -2.3258040    -2.8676930    -0.0642460
  H       -3.4596940    -1.6726380    -0.4173570
units angstrom
no_reorient  #important for SAPT in psi4, default
symmetry c1  #important for SAPT in psi4, default
}

set PROPERTIES_ORIGIN ["COM"]
properties('MP2/aug-cc-pvtz', properties = ['dipole'])
--------------------------------------------------------------------------

    Molecular point group: c1
  Charge       = 0
  Multiplicity = 1
  Basis Set: AUG-CC-PVTZ
    Blend: AUG-CC-PVTZ
  Basis Set: (AUG-CC-PVTZ AUX)
    Blend: AUG-CC-PVTZ-JKFIT

    Orbital Energies [Eh]
    ---------------------

    Doubly Occupied:

       1A    -20.519372     2A    -15.642158     3A    -15.632096
       4A    -15.609000     5A    -15.569927     6A    -15.559047
       7A    -11.394688     8A    -11.363500     9A    -11.318286
      10A    -11.306657    11A    -11.288812    12A    -11.246712
      13A     -1.386559    14A     -1.359345    15A     -1.330509
      16A     -1.216117    17A     -1.208156    18A     -1.184578
      19A     -1.028043    20A     -0.985029    21A     -0.896721
      22A     -0.873628    23A     -0.804689    24A     -0.763886
      25A     -0.730071    26A     -0.707760    27A     -0.687466
      28A     -0.669814    29A     -0.648552    30A     -0.633493
      31A     -0.622696    32A     -0.609066    33A     -0.586531
      34A     -0.577670    35A     -0.560028    36A     -0.540012
      37A     -0.491321    38A     -0.457956    39A     -0.438617
      40A     -0.428187    41A     -0.425912    42A     -0.391850
      43A     -0.297632

  @DF-RHF Final Energy:  -578.60037724262543

   => Energetics <=

    Nuclear Repulsion Energy =            692.2626004732102274
    One-Electron Energy =               -2161.7416615638639996
    Two-Electron Energy =                 890.8786838480284587
    Total Energy =                       -578.6003772426254272
  Basis Set: (AUG-CC-PVTZ AUX)
    Blend: AUG-CC-PVTZ-RI
    Molecular point group: c1

    Geometry (in Angstrom), charge = 0, multiplicity = 1:

       Center              X                  Y                   Z               Mass
    ------------   -----------------  -----------------  -----------------  -----------------
         O           -1.468602992483     2.564086113875     0.080249442553    15.994914619570
         N            1.920330007517    -0.583442886125    -0.055781557447    14.003074004430
         N           -1.909107992483     0.305785113875     0.048356442553    14.003074004430
         N           -0.341545992483    -1.467549886125    -0.038900557447    14.003074004430
         N            1.517815007517     1.640585113875    -0.010709557447    14.003074004430
         N           -2.628257992483    -1.917244886125     0.110928442553    14.003074004430
         C            0.558869007517    -0.437230886125    -0.029680557447    12.000000000000
         C            0.334928007517     0.939358113875    -0.009550557447    12.000000000000
         C           -1.020993992483     1.423397113875     0.035028442553    12.000000000000
         C            2.440233007517     0.689176113875    -0.070071557447    12.000000000000
         C           -1.571886992483    -1.026359886125     0.018653442553    12.000000000000
         C            2.636540007517    -1.845635886125    -0.065670557447    12.000000000000
         H            3.510432007517     0.858766113875    -0.086757557447     1.007825032230
         H            2.374105007517    -2.430740886125     0.817597442553     1.007825032230
         H            2.380643007517    -2.414392886125    -0.960657557447     1.007825032230
         H            3.705310007517    -1.630900886125    -0.059384557447     1.007825032230
         H           -3.078582792483     0.620427513875     0.192861542553     1.007825032230
         H           -2.324632992483    -2.868007886125    -0.064390557447     1.007825032230
         H           -3.458522992483    -1.672952886125    -0.417501557447     1.007825032230

  Basis Set: AUG-CC-PVTZ
    Blend: AUG-CC-PVTZ
  Basis Set: (AUG-CC-PVTZ AUX)
    Blend: AUG-CC-PVTZ-JKFIT
	 Reference Energy          =    -578.6003772426254272 [Eh]
	 Singles Energy            =      -0.0000000000000000 [Eh]
	 Same-Spin Energy          =      -0.6179802230927187 [Eh]
	 Opposite-Spin Energy      =      -1.8242146863297599 [Eh]
	 Correlation Energy        =      -2.4421949094224784 [Eh]
	 Total Energy              =    -581.0425721520479101 [Eh]

	 ================> DF-SCS-MP2 Energies <==================
	-----------------------------------------------------------
	 SCS Same-Spin Scale       =       0.3333333333333333 [-]
	 SCS Opposite-Spin Scale   =       1.2000000000000000 [-]
	 SCS Same-Spin Energy      =      -0.2059934076975729 [Eh]
	 SCS Opposite-Spin Energy  =      -2.1890576235957120 [Eh]
	 SCS Correlation Energy    =      -2.3950510312932849 [Eh]
	 SCS Total Energy          =    -580.9954282739187192 [Eh]
	-----------------------------------------------------------

  Dipole Moment: [D]
     X:    -0.2066      Y:    -6.7149      Z:    -0.9065     Total:     6.7790

*** Psi4 exiting successfully. Buy a developer a beer!
