                               Psi4 1.3.2 release

  ==> Input File <==

--------------------------------------------------------------------------
#psi4
#
memory 32 gb

molecule  {
0 1
  O       -1.4697740     2.5644010     0.0803940
  N        1.9191590    -0.5831280    -0.0556370
  N       -1.9102790     0.3061000     0.0485010
  N       -0.3427170    -1.4672350    -0.0387560
  N        1.5166440     1.6409000    -0.0105650
  N       -2.6294290    -1.9169300     0.1110730
  C        0.5095354    -0.4439097    -0.0281907
  C        0.3337570     0.9396730    -0.0094060
  C       -1.0382389     1.3760732     0.0351759
  C        2.4390620     0.6894910    -0.0699270
  C       -1.5730580    -1.0260450     0.0187980
  C        2.6353690    -1.8453210    -0.0655260
  H        3.5092610     0.8590810    -0.0866130
  H        2.3729340    -2.4304260     0.8177420
  H        2.3794720    -2.4140780    -0.9605130
  H        3.7041390    -1.6305860    -0.0592400
  H       -2.8879820     0.5691470     0.1693100
  H       -2.3258040    -2.8676930    -0.0642460
  H       -3.4596940    -1.6726380    -0.4173570
units angstrom
no_reorient  #important for SAPT in psi4, default
symmetry c1  #important for SAPT in psi4, default
}

set PROPERTIES_ORIGIN ["COM"]
properties('MP2/aug-cc-pvtz', properties = ['dipole'])
--------------------------------------------------------------------------

    Molecular point group: c1
  Charge       = 0
  Multiplicity = 1
  Basis Set: AUG-CC-PVTZ
    Blend: AUG-CC-PVTZ
  Basis Set: (AUG-CC-PVTZ AUX)
    Blend: AUG-CC-PVTZ-JKFIT

    Orbital Energies [Eh]
    ---------------------

    Doubly Occupied:

       1A    -20.509562     2A    -15.640173     3A    -15.628763
       4A    -15.616424     5A    -15.578146     6A    -15.558174
       7A    -11.403295     8A    -11.361212     9A    -11.320811
      10A    -11.309974    11A    -11.286737    12A    -11.250133
      13A     -1.391565    14A     -1.345172    15A     -1.327362
      16A     -1.230023    17A     -1.227787    18A     -1.188654
      19A     -1.031645    20A     -0.980536    21A     -0.904846
      22A     -0.895979    23A     -0.814684    24A     -0.764688
      25A     -0.746429    26A     -0.733060    27A     -0.696968
      28A     -0.670771    29A     -0.650769    30A     -0.642024
      31A     -0.632004    32A     -0.600399    33A     -0.589896
      34A     -0.570941    35A     -0.558501    36A     -0.537954
      37A     -0.500336    38A     -0.466391    39A     -0.438906
      40A     -0.428262    41A     -0.421415    42A     -0.389558
      43A     -0.297471

  @DF-RHF Final Energy:  -578.62051523872913

   => Energetics <=

    Nuclear Repulsion Energy =            693.8299179933389951
    One-Electron Energy =               -2164.6240640175101362
    Two-Electron Energy =                 892.1736307854420147
    Total Energy =                       -578.6205152387291264
  Basis Set: (AUG-CC-PVTZ AUX)
    Blend: AUG-CC-PVTZ-RI
    Molecular point group: c1

    Geometry (in Angstrom), charge = 0, multiplicity = 1:

       Center              X                  Y                   Z               Mass
    ------------   -----------------  -----------------  -----------------  -----------------
         O           -1.465103974702     2.568372842612     0.080296109745    15.994914619570
         N            1.923829025298    -0.579156157388    -0.055734890255    14.003074004430
         N           -1.905608974702     0.310071842612     0.048403109745    14.003074004430
         N           -0.338046974702    -1.463263157388    -0.038853890255    14.003074004430
         N            1.521314025298     1.644871842612    -0.010662890255    14.003074004430
         N           -2.624758974702    -1.912958157388     0.110975109745    14.003074004430
         C            0.514205425298    -0.439937857388    -0.028288590255    12.000000000000
         C            0.338427025298     0.943644842612    -0.009503890255    12.000000000000
         C           -1.033568874702     1.380045042612     0.035078009745    12.000000000000
         C            2.443732025298     0.693462842612    -0.070024890255    12.000000000000
         C           -1.568387974702    -1.022073157388     0.018700109745    12.000000000000
         C            2.640039025298    -1.841349157388    -0.065623890255    12.000000000000
         H            3.513931025298     0.863052842612    -0.086710890255     1.007825032230
         H            2.377604025298    -2.426454157388     0.817644109745     1.007825032230
         H            2.384142025298    -2.410106157388    -0.960610890255     1.007825032230
         H            3.708809025298    -1.626614157388    -0.059337890255     1.007825032230
         H           -2.883311974702     0.573118842612     0.169212109745     1.007825032230
         H           -2.321133974702    -2.863721157388    -0.064343890255     1.007825032230
         H           -3.455023974702    -1.668666157388    -0.417454890255     1.007825032230

  Basis Set: AUG-CC-PVTZ
    Blend: AUG-CC-PVTZ
  Basis Set: (AUG-CC-PVTZ AUX)
    Blend: AUG-CC-PVTZ-JKFIT
	 Reference Energy          =    -578.6205152387291264 [Eh]
	 Singles Energy            =      -0.0000000000000000 [Eh]
	 Same-Spin Energy          =      -0.6173556269973265 [Eh]
	 Opposite-Spin Energy      =      -1.8217254719275120 [Eh]
	 Correlation Energy        =      -2.4390810989248384 [Eh]
	 Total Energy              =    -581.0595963376539430 [Eh]

	 ================> DF-SCS-MP2 Energies <==================
	-----------------------------------------------------------
	 SCS Same-Spin Scale       =       0.3333333333333333 [-]
	 SCS Opposite-Spin Scale   =       1.2000000000000000 [-]
	 SCS Same-Spin Energy      =      -0.2057852089991088 [Eh]
	 SCS Opposite-Spin Energy  =      -2.1860705663130142 [Eh]
	 SCS Correlation Energy    =      -2.3918557753121230 [Eh]
	 SCS Total Energy          =    -581.0123710140412641 [Eh]
	-----------------------------------------------------------

  Dipole Moment: [D]
     X:    -0.2205      Y:    -7.2697      Z:    -0.9445     Total:     7.3342

*** Psi4 exiting successfully. Buy a developer a beer!
