                               Psi4 1.3.2 release

  ==> Input File <==

--------------------------------------------------------------------------
#psi4
#
memory 32 gb

molecule  {
0 1
  O       -1.4697740     2.5644010     0.0803940
  N        1.9191590    -0.5831280    -0.0556370
  N       -1.9102790     0.3061000     0.0485010
  N       -0.3427170    -1.4672350    -0.0387560
  N        1.5166440     1.6409000    -0.0105650
  N       -2.6294290    -1.9169300     0.1110730
  C        0.5576980    -0.4369160    -0.0295360
  C        0.3337570     0.9396730    -0.0094060
  C       -0.9856613     1.3306858     0.0314851
  C        2.4390620     0.6894910    -0.0699270
  C       -1.5730580    -1.0260450     0.0187980
  C        2.6353690    -1.8453210    -0.0655260
  H        3.5092610     0.8590810    -0.0866130
  H        2.3729340    -2.4304260     0.8177420
  H        2.3794720    -2.4140780    -0.9605130
  H        3.7041390    -1.6305860    -0.0592400
  H       -2.8879820     0.5691470     0.1693100
  H       -2.3258040    -2.8676930    -0.0642460
  H       -3.4596940    -1.6726380    -0.4173570
units angstrom
no_reorient  #important for SAPT in psi4, default
symmetry c1  #important for SAPT in psi4, default
}

set PROPERTIES_ORIGIN ["COM"]
properties('MP2/aug-cc-pvtz', properties = ['dipole'])
--------------------------------------------------------------------------

    Molecular point group: c1
  Charge       = 0
  Multiplicity = 1
  Basis Set: AUG-CC-PVTZ
    Blend: AUG-CC-PVTZ
  Basis Set: (AUG-CC-PVTZ AUX)
    Blend: AUG-CC-PVTZ-JKFIT

    Orbital Energies [Eh]
    ---------------------

    Doubly Occupied:

       1A    -20.494519     2A    -15.640390     3A    -15.638979
       4A    -15.616270     5A    -15.580561     6A    -15.565399
       7A    -11.402431     8A    -11.356926     9A    -11.328695
      10A    -11.315474    11A    -11.294071    12A    -11.248932
      13A     -1.390243    14A     -1.354764    15A     -1.299499
      16A     -1.224717    17A     -1.214953    18A     -1.198479
      19A     -1.044433    20A     -0.994035    21A     -0.915215
      22A     -0.891238    23A     -0.815150    24A     -0.772296
      25A     -0.756727    26A     -0.736986    27A     -0.696741
      28A     -0.678161    29A     -0.651578    30A     -0.648765
      31A     -0.633483    32A     -0.604432    33A     -0.586523
      34A     -0.566689    35A     -0.562266    36A     -0.528638
      37A     -0.500006    38A     -0.463323    39A     -0.437860
      40A     -0.416922    41A     -0.411096    42A     -0.395522
      43A     -0.305034

  @DF-RHF Final Energy:  -578.60947116084128

   => Energetics <=

    Nuclear Repulsion Energy =            694.4312107726740351
    One-Electron Energy =               -2165.7245133793048808
    Two-Electron Energy =                 892.6838314457894512
    Total Energy =                       -578.6094711608412808
  Basis Set: (AUG-CC-PVTZ AUX)
    Blend: AUG-CC-PVTZ-RI
    Molecular point group: c1

    Geometry (in Angstrom), charge = 0, multiplicity = 1:

       Center              X                  Y                   Z               Mass
    ------------   -----------------  -----------------  -----------------  -----------------
         O           -1.472427646961     2.571164011139     0.080662227202    15.994914619570
         N            1.916505353039    -0.576364988861    -0.055368772798    14.003074004430
         N           -1.912932646961     0.312863011139     0.048769227202    14.003074004430
         N           -0.345370646961    -1.460471988861    -0.038487772798    14.003074004430
         N            1.513990353039     1.647663011139    -0.010296772798    14.003074004430
         N           -2.632082646961    -1.910166988861     0.111341227202    14.003074004430
         C            0.555044353039    -0.430152988861    -0.029267772798    12.000000000000
         C            0.331103353039     0.946436011139    -0.009137772798    12.000000000000
         C           -0.988314946961     1.337448811139     0.031753327202    12.000000000000
         C            2.436408353039     0.696254011139    -0.069658772798    12.000000000000
         C           -1.575711646961    -1.019281988861     0.019066227202    12.000000000000
         C            2.632715353039    -1.838557988861    -0.065257772798    12.000000000000
         H            3.506607353039     0.865844011139    -0.086344772798     1.007825032230
         H            2.370280353039    -2.423662988861     0.818010227202     1.007825032230
         H            2.376818353039    -2.407314988861    -0.960244772798     1.007825032230
         H            3.701485353039    -1.623822988861    -0.058971772798     1.007825032230
         H           -2.890635646961     0.575910011139     0.169578227202     1.007825032230
         H           -2.328457646961    -2.860929988861    -0.063977772798     1.007825032230
         H           -3.462347646961    -1.665874988861    -0.417088772798     1.007825032230

  Basis Set: AUG-CC-PVTZ
    Blend: AUG-CC-PVTZ
  Basis Set: (AUG-CC-PVTZ AUX)
    Blend: AUG-CC-PVTZ-JKFIT
	 Reference Energy          =    -578.6094711608412808 [Eh]
	 Singles Energy            =      -0.0000000000000000 [Eh]
	 Same-Spin Energy          =      -0.6180411099563368 [Eh]
	 Opposite-Spin Energy      =      -1.8233164103199764 [Eh]
	 Correlation Energy        =      -2.4413575202763131 [Eh]
	 Total Energy              =    -581.0508286811176504 [Eh]

	 ================> DF-SCS-MP2 Energies <==================
	-----------------------------------------------------------
	 SCS Same-Spin Scale       =       0.3333333333333333 [-]
	 SCS Opposite-Spin Scale   =       1.2000000000000000 [-]
	 SCS Same-Spin Energy      =      -0.2060137033187789 [Eh]
	 SCS Opposite-Spin Energy  =      -2.1879796923839714 [Eh]
	 SCS Correlation Energy    =      -2.3939933957027502 [Eh]
	 SCS Total Energy          =    -581.0034645565440314 [Eh]
	-----------------------------------------------------------

  Dipole Moment: [D]
     X:     0.3649      Y:    -7.7211      Z:    -0.9652     Total:     7.7898

*** Psi4 exiting successfully. Buy a developer a beer!
