                               Psi4 1.3.2 release

  ==> Input File <==

--------------------------------------------------------------------------
#psi4
#
memory 32 gb

molecule  {
0 1
  O       -1.4697740     2.5644010     0.0803940
  N        1.9191590    -0.5831280    -0.0556370
  N       -1.9102790     0.3061000     0.0485010
  N       -0.3427170    -1.4672350    -0.0387560
  N        1.5166440     1.6409000    -0.0105650
  N       -2.6294290    -1.9169300     0.1110730
  C        0.6055877    -0.4282451    -0.0308568
  C        0.3337570     0.9396730    -0.0094060
  C       -1.0044391     1.4707611     0.0351158
  C        2.4390620     0.6894910    -0.0699270
  C       -1.5730580    -1.0260450     0.0187980
  C        2.6353690    -1.8453210    -0.0655260
  H        3.5092610     0.8590810    -0.0866130
  H        2.3729340    -2.4304260     0.8177420
  H        2.3794720    -2.4140780    -0.9605130
  H        3.7041390    -1.6305860    -0.0592400
  H       -2.8879820     0.5691470     0.1693100
  H       -2.3258040    -2.8676930    -0.0642460
  H       -3.4596940    -1.6726380    -0.4173570
units angstrom
no_reorient  #important for SAPT in psi4, default
symmetry c1  #important for SAPT in psi4, default
}

set PROPERTIES_ORIGIN ["COM"]
properties('MP2/aug-cc-pvtz', properties = ['dipole'])
--------------------------------------------------------------------------

    Molecular point group: c1
  Charge       = 0
  Multiplicity = 1
  Basis Set: AUG-CC-PVTZ
    Blend: AUG-CC-PVTZ
  Basis Set: (AUG-CC-PVTZ AUX)
    Blend: AUG-CC-PVTZ-JKFIT

    Orbital Energies [Eh]
    ---------------------

    Doubly Occupied:

       1A    -20.531996     2A    -15.636674     3A    -15.617353
       4A    -15.604723     5A    -15.563822     6A    -15.561355
       7A    -11.388456     8A    -11.367040     9A    -11.317972
      10A    -11.304724    11A    -11.292287    12A    -11.244826
      13A     -1.407074    14A     -1.375795    15A     -1.330270
      16A     -1.211010    17A     -1.207525    18A     -1.184947
      19A     -1.028468    20A     -0.992443    21A     -0.899833
      22A     -0.868680    23A     -0.802845    24A     -0.768278
      25A     -0.738258    26A     -0.723250    27A     -0.689191
      28A     -0.674735    29A     -0.654781    30A     -0.638222
      31A     -0.624124    32A     -0.618722    33A     -0.593161
      34A     -0.585055    35A     -0.563515    36A     -0.549641
      37A     -0.486881    38A     -0.453206    39A     -0.442526
      40A     -0.430715    41A     -0.426541    42A     -0.394375
      43A     -0.299424

  @DF-RHF Final Energy:  -578.62721389420335

   => Energetics <=

    Nuclear Repulsion Energy =            693.2078828926519236
    One-Electron Energy =               -2163.4807575550366892
    Two-Electron Energy =                 891.6456607681814148
    Total Energy =                       -578.6272138942033507
  Basis Set: (AUG-CC-PVTZ AUX)
    Blend: AUG-CC-PVTZ-RI
    Molecular point group: c1

    Geometry (in Angstrom), charge = 0, multiplicity = 1:

       Center              X                  Y                   Z               Mass
    ------------   -----------------  -----------------  -----------------  -----------------
         O           -1.474544041553     2.560350369527     0.080494300688    15.994914619570
         N            1.914388958447    -0.587178630473    -0.055536699312    14.003074004430
         N           -1.915049041553     0.302049369527     0.048601300688    14.003074004430
         N           -0.347487041553    -1.471285630473    -0.038655699312    14.003074004430
         N            1.511873958447     1.636849369527    -0.010464699312    14.003074004430
         N           -2.634199041553    -1.920980630473     0.111173300688    14.003074004430
         C            0.600817658447    -0.432295730473    -0.030756499312    12.000000000000
         C            0.328986958447     0.935622369527    -0.009305699312    12.000000000000
         C           -1.009209141553     1.466710469527     0.035216100688    12.000000000000
         C            2.434291958447     0.685440369527    -0.069826699312    12.000000000000
         C           -1.577828041553    -1.030095630473     0.018898300688    12.000000000000
         C            2.630598958447    -1.849371630473    -0.065425699312    12.000000000000
         H            3.504490958447     0.855030369527    -0.086512699312     1.007825032230
         H            2.368163958447    -2.434476630473     0.817842300688     1.007825032230
         H            2.374701958447    -2.418128630473    -0.960412699312     1.007825032230
         H            3.699368958447    -1.634636630473    -0.059139699312     1.007825032230
         H           -2.892752041553     0.565096369527     0.169410300688     1.007825032230
         H           -2.330574041553    -2.871743630473    -0.064145699312     1.007825032230
         H           -3.464464041553    -1.676688630473    -0.417256699312     1.007825032230

  Basis Set: AUG-CC-PVTZ
    Blend: AUG-CC-PVTZ
  Basis Set: (AUG-CC-PVTZ AUX)
    Blend: AUG-CC-PVTZ-JKFIT
	 Reference Energy          =    -578.6272138942033507 [Eh]
	 Singles Energy            =      -0.0000000000000000 [Eh]
	 Same-Spin Energy          =      -0.6150934020327414 [Eh]
	 Opposite-Spin Energy      =      -1.8184168628197037 [Eh]
	 Correlation Energy        =      -2.4335102648524449 [Eh]
	 Total Energy              =    -581.0607241590557805 [Eh]

	 ================> DF-SCS-MP2 Energies <==================
	-----------------------------------------------------------
	 SCS Same-Spin Scale       =       0.3333333333333333 [-]
	 SCS Opposite-Spin Scale   =       1.2000000000000000 [-]
	 SCS Same-Spin Energy      =      -0.2050311340109138 [Eh]
	 SCS Opposite-Spin Energy  =      -2.1821002353836443 [Eh]
	 SCS Correlation Energy    =      -2.3871313693945582 [Eh]
	 SCS Total Energy          =    -581.0143452635978747 [Eh]
	-----------------------------------------------------------

  Dipole Moment: [D]
     X:     0.2259      Y:    -6.3015      Z:    -0.9311     Total:     6.3739

*** Psi4 exiting successfully. Buy a developer a beer!
