                               Psi4 1.3.2 release

  ==> Input File <==

--------------------------------------------------------------------------
#psi4
#
memory 32 gb

molecule  {
0 1
  O       -1.4697740     2.5644010     0.0803940
  N        1.9191590    -0.5831280    -0.0556370
  N       -1.9102790     0.3061000     0.0485010
  N       -0.3587608    -1.5099240    -0.0363703
  N        1.5166440     1.6409000    -0.0105650
  N       -2.5976570    -1.9533587     0.1104318
  C        0.5576980    -0.4369160    -0.0295360
  C        0.3337570     0.9396730    -0.0094060
  C       -1.0221650     1.4237120     0.0351730
  C        2.4390620     0.6894910    -0.0699270
  C       -1.5730580    -1.0260450     0.0187980
  C        2.6353690    -1.8453210    -0.0655260
  H        3.5092610     0.8590810    -0.0866130
  H        2.3729340    -2.4304260     0.8177420
  H        2.3794720    -2.4140780    -0.9605130
  H        3.7041390    -1.6305860    -0.0592400
  H       -2.8879820     0.5691470     0.1693100
  H       -2.3258040    -2.8676930    -0.0642460
  H       -3.4596940    -1.6726380    -0.4173570
units angstrom
no_reorient  #important for SAPT in psi4, default
symmetry c1  #important for SAPT in psi4, default
}

set PROPERTIES_ORIGIN ["COM"]
properties('MP2/aug-cc-pvtz', properties = ['dipole'])
--------------------------------------------------------------------------

    Molecular point group: c1
  Charge       = 0
  Multiplicity = 1
  Basis Set: AUG-CC-PVTZ
    Blend: AUG-CC-PVTZ
  Basis Set: (AUG-CC-PVTZ AUX)
    Blend: AUG-CC-PVTZ-JKFIT

    Orbital Energies [Eh]
    ---------------------

    Doubly Occupied:

       1A    -20.524010     2A    -15.634371     3A    -15.631576
       4A    -15.606603     5A    -15.573035     6A    -15.560908
       7A    -11.394274     8A    -11.367012     9A    -11.321413
      10A    -11.308119    11A    -11.289653    12A    -11.249389
      13A     -1.391046    14A     -1.360774    15A     -1.333561
      16A     -1.222157    17A     -1.208095    18A     -1.189128
      19A     -1.030361    20A     -0.987228    21A     -0.902449
      22A     -0.878664    23A     -0.804469    24A     -0.765731
      25A     -0.741652    26A     -0.729760    27A     -0.693972
      28A     -0.670343    29A     -0.652332    30A     -0.636544
      31A     -0.621312    32A     -0.612195    33A     -0.594789
      34A     -0.577746    35A     -0.561251    36A     -0.541645
      37A     -0.495514    38A     -0.454254    39A     -0.442497
      40A     -0.432029    41A     -0.428738    42A     -0.393376
      43A     -0.301743

  @DF-RHF Final Energy:  -578.62433848696196

   => Energetics <=

    Nuclear Repulsion Energy =            692.4002113794323350
    One-Electron Energy =               -2161.8176608904450404
    Two-Electron Energy =                 890.7931110240508588
    Total Energy =                       -578.6243384869619604
  Basis Set: (AUG-CC-PVTZ AUX)
    Blend: AUG-CC-PVTZ-RI
    Molecular point group: c1

    Geometry (in Angstrom), charge = 0, multiplicity = 1:

       Center              X                  Y                   Z               Mass
    ------------   -----------------  -----------------  -----------------  -----------------
         O           -1.471108159654     2.571112980401     0.080246129679    15.994914619570
         N            1.917824840346    -0.576416019599    -0.055784870321    14.003074004430
         N           -1.911613159654     0.312811980401     0.048353129679    14.003074004430
         N           -0.360094959654    -1.503212019599    -0.036518170321    14.003074004430
         N            1.515309840346     1.647611980401    -0.010712870321    14.003074004430
         N           -2.598991159654    -1.946646719599     0.110283929679    14.003074004430
         C            0.556363840346    -0.430204019599    -0.029683870321    12.000000000000
         C            0.332422840346     0.946384980401    -0.009553870321    12.000000000000
         C           -1.023499159654     1.430423980401     0.035025129679    12.000000000000
         C            2.437727840346     0.696202980401    -0.070074870321    12.000000000000
         C           -1.574392159654    -1.019333019599     0.018650129679    12.000000000000
         C            2.634034840346    -1.838609019599    -0.065673870321    12.000000000000
         H            3.507926840346     0.865792980401    -0.086760870321     1.007825032230
         H            2.371599840346    -2.423714019599     0.817594129679     1.007825032230
         H            2.378137840346    -2.407366019599    -0.960660870321     1.007825032230
         H            3.702804840346    -1.623874019599    -0.059387870321     1.007825032230
         H           -2.889316159654     0.575858980401     0.169162129679     1.007825032230
         H           -2.327138159654    -2.860981019599    -0.064393870321     1.007825032230
         H           -3.461028159654    -1.665926019599    -0.417504870321     1.007825032230

  Basis Set: AUG-CC-PVTZ
    Blend: AUG-CC-PVTZ
  Basis Set: (AUG-CC-PVTZ AUX)
    Blend: AUG-CC-PVTZ-JKFIT
	 Reference Energy          =    -578.6243384869619604 [Eh]
	 Singles Energy            =      -0.0000000000000000 [Eh]
	 Same-Spin Energy          =      -0.6158417326254458 [Eh]
	 Opposite-Spin Energy      =      -1.8205224261480875 [Eh]
	 Correlation Energy        =      -2.4363641587735332 [Eh]
	 Total Energy              =    -581.0607026457355460 [Eh]

	 ================> DF-SCS-MP2 Energies <==================
	-----------------------------------------------------------
	 SCS Same-Spin Scale       =       0.3333333333333333 [-]
	 SCS Opposite-Spin Scale   =       1.2000000000000000 [-]
	 SCS Same-Spin Energy      =      -0.2052805775418153 [Eh]
	 SCS Opposite-Spin Energy  =      -2.1846269113777050 [Eh]
	 SCS Correlation Energy    =      -2.3899074889195204 [Eh]
	 SCS Total Energy          =    -581.0142459758815221 [Eh]
	-----------------------------------------------------------

  Dipole Moment: [D]
     X:     0.0161      Y:    -6.5883      Z:    -0.9249     Total:     6.6529

*** Psi4 exiting successfully. Buy a developer a beer!
