                               Psi4 1.3.2 release

  ==> Input File <==

--------------------------------------------------------------------------
#psi4
#
memory 32 gb

molecule  {
0 1
  O       -1.4697740     2.5644010     0.0803940
  N        1.9191590    -0.5831280    -0.0556370
  N       -1.9102790     0.3061000     0.0485010
  N       -0.3427170    -1.4672350    -0.0387560
  N        1.5166440     1.6409000    -0.0105650
  N       -2.6294290    -1.9169300     0.1110730
  C        0.5576980    -0.4369160    -0.0295360
  C        0.3337570     0.9396730    -0.0094060
  C       -1.0221650     1.4237120     0.0351730
  C        2.4390620     0.6894910    -0.0699270
  C       -1.5730580    -1.0260450     0.0187980
  C        2.6353690    -1.8453210    -0.0655260
  H        3.5092610     0.8590810    -0.0866130
  H        2.3729340    -2.4304260     0.8177420
  H        2.3794720    -2.4140780    -0.9605130
  H        3.7041390    -1.6305860    -0.0592400
  H       -2.8879820     0.5691470     0.1693100
  H       -2.3529411    -2.8715798    -0.0865969
  H       -3.4596665    -1.7051867    -0.4312621
units angstrom
no_reorient  #important for SAPT in psi4, default
symmetry c1  #important for SAPT in psi4, default
}

set PROPERTIES_ORIGIN ["COM"]
properties('MP2/aug-cc-pvtz', properties = ['dipole'])
--------------------------------------------------------------------------

    Molecular point group: c1
  Charge       = 0
  Multiplicity = 1
  Basis Set: AUG-CC-PVTZ
    Blend: AUG-CC-PVTZ
  Basis Set: (AUG-CC-PVTZ AUX)
    Blend: AUG-CC-PVTZ-JKFIT

    Orbital Energies [Eh]
    ---------------------

    Doubly Occupied:

       1A    -20.520873     2A    -15.632954     3A    -15.629401
       4A    -15.610422     5A    -15.571147     6A    -15.559662
       7A    -11.396720     8A    -11.364293     9A    -11.319128
      10A    -11.307400    11A    -11.289395    12A    -11.247127
      13A     -1.390647    14A     -1.360617    15A     -1.333811
      16A     -1.219180    17A     -1.216245    18A     -1.190696
      19A     -1.029795    20A     -0.986516    21A     -0.901540
      22A     -0.883647    23A     -0.807295    24A     -0.766271
      25A     -0.740760    26A     -0.732439    27A     -0.687245
      28A     -0.670945    29A     -0.649460    30A     -0.642705
      31A     -0.626358    32A     -0.610490    33A     -0.593763
      34A     -0.578567    35A     -0.561043    36A     -0.541613
      37A     -0.493782    38A     -0.459937    39A     -0.439961
      40A     -0.429292    41A     -0.428814    42A     -0.392759
      43A     -0.298592

  @DF-RHF Final Energy:  -578.63023226404709

   => Energetics <=

    Nuclear Repulsion Energy =            693.3533817774718955
    One-Electron Energy =               -2163.7406077978830581
    Two-Electron Energy =                 891.7569937563640678
    Total Energy =                       -578.6302322640470948
  Basis Set: (AUG-CC-PVTZ AUX)
    Blend: AUG-CC-PVTZ-RI
    Molecular point group: c1

    Geometry (in Angstrom), charge = 0, multiplicity = 1:

       Center              X                  Y                   Z               Mass
    ------------   -----------------  -----------------  -----------------  -----------------
         O           -1.469608357804     2.564623597366     0.080615487476    15.994914619570
         N            1.919324642196    -0.582905402634    -0.055415512524    14.003074004430
         N           -1.910113357804     0.306322597366     0.048722487476    14.003074004430
         N           -0.342551357804    -1.467012402634    -0.038534512524    14.003074004430
         N            1.516809642196     1.641122597366    -0.010343512524    14.003074004430
         N           -2.629263357804    -1.916707402634     0.111294487476    14.003074004430
         C            0.557863642196    -0.436693402634    -0.029314512524    12.000000000000
         C            0.333922642196     0.939895597366    -0.009184512524    12.000000000000
         C           -1.021999357804     1.423934597366     0.035394487476    12.000000000000
         C            2.439227642196     0.689713597366    -0.069705512524    12.000000000000
         C           -1.572892357804    -1.025822402634     0.019019487476    12.000000000000
         C            2.635534642196    -1.845098402634    -0.065304512524    12.000000000000
         H            3.509426642196     0.859303597366    -0.086391512524     1.007825032230
         H            2.373099642196    -2.430203402634     0.817963487476     1.007825032230
         H            2.379637642196    -2.413855402634    -0.960291512524     1.007825032230
         H            3.704304642196    -1.630363402634    -0.059018512524     1.007825032230
         H           -2.887816357804     0.569369597366     0.169531487476     1.007825032230
         H           -2.352775457804    -2.871357202634    -0.086375412524     1.007825032230
         H           -3.459500857804    -1.704964102634    -0.431040612524     1.007825032230

  Basis Set: AUG-CC-PVTZ
    Blend: AUG-CC-PVTZ
  Basis Set: (AUG-CC-PVTZ AUX)
    Blend: AUG-CC-PVTZ-JKFIT
	 Reference Energy          =    -578.6302322640470948 [Eh]
	 Singles Energy            =      -0.0000000000000000 [Eh]
	 Same-Spin Energy          =      -0.6160799934307317 [Eh]
	 Opposite-Spin Energy      =      -1.8198674071963807 [Eh]
	 Correlation Energy        =      -2.4359474006271125 [Eh]
	 Total Energy              =    -581.0661796646742232 [Eh]

	 ================> DF-SCS-MP2 Energies <==================
	-----------------------------------------------------------
	 SCS Same-Spin Scale       =       0.3333333333333333 [-]
	 SCS Opposite-Spin Scale   =       1.2000000000000000 [-]
	 SCS Same-Spin Energy      =      -0.2053599978102439 [Eh]
	 SCS Opposite-Spin Energy  =      -2.1838408886356566 [Eh]
	 SCS Correlation Energy    =      -2.3892008864459005 [Eh]
	 SCS Total Energy          =    -581.0194331504930005 [Eh]
	-----------------------------------------------------------

  Dipole Moment: [D]
     X:    -0.0035      Y:    -6.8033      Z:    -0.9823     Total:     6.8738

*** Psi4 exiting successfully. Buy a developer a beer!
