                               Psi4 1.3.2 release

  ==> Input File <==

--------------------------------------------------------------------------
#psi4
#
memory 32 gb

molecule  {
0 1
  O       -1.4697740     2.5644010     0.0803940
  N        1.9191590    -0.5831280    -0.0556370
  N       -1.9675174     0.3541098     0.0506879
  N       -0.3427170    -1.4672350    -0.0387560
  N        1.5166440     1.6409000    -0.0105650
  N       -2.6294290    -1.9169300     0.1110730
  C        0.5576980    -0.4369160    -0.0295360
  C        0.3572451     1.0113333    -0.0092927
  C       -1.0221650     1.4237120     0.0351730
  C        2.4390620     0.6894910    -0.0699270
  C       -1.5730580    -1.0260450     0.0187980
  C        2.6353690    -1.8453210    -0.0655260
  H        3.5092610     0.8590810    -0.0866130
  H        2.3729340    -2.4304260     0.8177420
  H        2.3794720    -2.4140780    -0.9605130
  H        3.7041390    -1.6305860    -0.0592400
  H       -2.8879820     0.5691470     0.1693100
  H       -2.3258040    -2.8676930    -0.0642460
  H       -3.4596940    -1.6726380    -0.4173570
units angstrom
no_reorient  #important for SAPT in psi4, default
symmetry c1  #important for SAPT in psi4, default
}

set PROPERTIES_ORIGIN ["COM"]
properties('MP2/aug-cc-pvtz', properties = ['dipole'])
--------------------------------------------------------------------------

    Molecular point group: c1
  Charge       = 0
  Multiplicity = 1
  Basis Set: AUG-CC-PVTZ
    Blend: AUG-CC-PVTZ
  Basis Set: (AUG-CC-PVTZ AUX)
    Blend: AUG-CC-PVTZ-JKFIT

    Orbital Energies [Eh]
    ---------------------

    Doubly Occupied:

       1A    -20.511847     2A    -15.638948     3A    -15.624017
       4A    -15.612350     5A    -15.578175     6A    -15.560548
       7A    -11.402321     8A    -11.359858     9A    -11.323932
      10A    -11.305365    11A    -11.291732    12A    -11.253746
      13A     -1.385973    14A     -1.361008    15A     -1.328544
      16A     -1.223852    17A     -1.215358    18A     -1.200575
      19A     -1.019572    20A     -0.991057    21A     -0.905377
      22A     -0.875805    23A     -0.804281    24A     -0.761325
      25A     -0.759753    26A     -0.729685    27A     -0.690646
      28A     -0.670748    29A     -0.652971    30A     -0.641913
      31A     -0.623077    32A     -0.608678    33A     -0.599131
      34A     -0.580033    35A     -0.562993    36A     -0.541724
      37A     -0.499208    38A     -0.460546    39A     -0.438530
      40A     -0.426311    41A     -0.419254    42A     -0.400989
      43A     -0.287426

  @DF-RHF Final Energy:  -578.61426465721081

   => Energetics <=

    Nuclear Repulsion Energy =            691.3091427314159318
    One-Electron Energy =               -2159.5884485362571468
    Two-Electron Energy =                 889.6650411476304043
    Total Energy =                       -578.6142646572108106
  Basis Set: (AUG-CC-PVTZ AUX)
    Blend: AUG-CC-PVTZ-RI
    Molecular point group: c1

    Geometry (in Angstrom), charge = 0, multiplicity = 1:

       Center              X                  Y                   Z               Mass
    ------------   -----------------  -----------------  -----------------  -----------------
         O           -1.466625687711     2.555118684620     0.080200362513    15.994914619570
         N            1.922307312289    -0.592410315380    -0.055830637487    14.003074004430
         N           -1.964369087711     0.344827484620     0.050494262513    14.003074004430
         N           -0.339568687711    -1.476517315380    -0.038949637487    14.003074004430
         N            1.519792312289     1.631617684620    -0.010758637487    14.003074004430
         N           -2.626280687711    -1.926212315380     0.110879362513    14.003074004430
         C            0.560846312289    -0.446198315380    -0.029729637487    12.000000000000
         C            0.360393412289     1.002050984620    -0.009486337487    12.000000000000
         C           -1.019016687711     1.414429684620     0.034979362513    12.000000000000
         C            2.442210312289     0.680208684620    -0.070120637487    12.000000000000
         C           -1.569909687711    -1.035327315380     0.018604362513    12.000000000000
         C            2.638517312289    -1.854603315380    -0.065719637487    12.000000000000
         H            3.512409312289     0.849798684620    -0.086806637487     1.007825032230
         H            2.376082312289    -2.439708315380     0.817548362513     1.007825032230
         H            2.382620312289    -2.423360315380    -0.960706637487     1.007825032230
         H            3.707287312289    -1.639868315380    -0.059433637487     1.007825032230
         H           -2.884833687711     0.559864684620     0.169116362513     1.007825032230
         H           -2.322655687711    -2.876975315380    -0.064439637487     1.007825032230
         H           -3.456545687711    -1.681920315380    -0.417550637487     1.007825032230

  Basis Set: AUG-CC-PVTZ
    Blend: AUG-CC-PVTZ
  Basis Set: (AUG-CC-PVTZ AUX)
    Blend: AUG-CC-PVTZ-JKFIT
	 Reference Energy          =    -578.6142646572108106 [Eh]
	 Singles Energy            =      -0.0000000000000000 [Eh]
	 Same-Spin Energy          =      -0.6168741346744012 [Eh]
	 Opposite-Spin Energy      =      -1.8208021404323103 [Eh]
	 Correlation Energy        =      -2.4376762751067114 [Eh]
	 Total Energy              =    -581.0519409323175068 [Eh]

	 ================> DF-SCS-MP2 Energies <==================
	-----------------------------------------------------------
	 SCS Same-Spin Scale       =       0.3333333333333333 [-]
	 SCS Opposite-Spin Scale   =       1.2000000000000000 [-]
	 SCS Same-Spin Energy      =      -0.2056247115581337 [Eh]
	 SCS Opposite-Spin Energy  =      -2.1849625685187721 [Eh]
	 SCS Correlation Energy    =      -2.3905872800769057 [Eh]
	 SCS Total Energy          =    -581.0048519372877536 [Eh]
	-----------------------------------------------------------

  Dipole Moment: [D]
     X:     0.2260      Y:    -6.9977      Z:    -0.9365     Total:     7.0637

*** Psi4 exiting successfully. Buy a developer a beer!
