                               Psi4 1.3.2 release

  ==> Input File <==

--------------------------------------------------------------------------
#psi4
#
memory 32 gb

molecule  {
0 1
  O       -1.5093312     2.5480617     0.0807472
  N        1.9191590    -0.5831280    -0.0556370
  N       -1.9102790     0.3061000     0.0485010
  N       -0.3427170    -1.4672350    -0.0387560
  N        1.5166440     1.6409000    -0.0105650
  N       -2.6294290    -1.9169300     0.1110730
  C        0.5576980    -0.4369160    -0.0295360
  C        0.3160021     0.8926471    -0.0104818
  C       -1.0221650     1.4237120     0.0351730
  C        2.4390620     0.6894910    -0.0699270
  C       -1.5730580    -1.0260450     0.0187980
  C        2.6353690    -1.8453210    -0.0655260
  H        3.5092610     0.8590810    -0.0866130
  H        2.3729340    -2.4304260     0.8177420
  H        2.3794720    -2.4140780    -0.9605130
  H        3.7041390    -1.6305860    -0.0592400
  H       -2.8879820     0.5691470     0.1693100
  H       -2.3258040    -2.8676930    -0.0642460
  H       -3.4596940    -1.6726380    -0.4173570
units angstrom
no_reorient  #important for SAPT in psi4, default
symmetry c1  #important for SAPT in psi4, default
}

set PROPERTIES_ORIGIN ["COM"]
properties('MP2/aug-cc-pvtz', properties = ['dipole'])
--------------------------------------------------------------------------

    Molecular point group: c1
  Charge       = 0
  Multiplicity = 1
  Basis Set: AUG-CC-PVTZ
    Blend: AUG-CC-PVTZ
  Basis Set: (AUG-CC-PVTZ AUX)
    Blend: AUG-CC-PVTZ-JKFIT

    Orbital Energies [Eh]
    ---------------------

    Doubly Occupied:

       1A    -20.523815     2A    -15.630573     3A    -15.626470
       4A    -15.609867     5A    -15.569250     6A    -15.560712
       7A    -11.395041     8A    -11.366430     9A    -11.317044
      10A    -11.309129    11A    -11.288942    12A    -11.245499
      13A     -1.392479    14A     -1.361641    15A     -1.332866
      16A     -1.218689    17A     -1.213503    18A     -1.185158
      19A     -1.036339    20A     -0.984961    21A     -0.901626
      22A     -0.881388    23A     -0.809133    24A     -0.772005
      25A     -0.737152    26A     -0.727170    27A     -0.691723
      28A     -0.671925    29A     -0.652652    30A     -0.640377
      31A     -0.626104    32A     -0.614764    33A     -0.586754
      34A     -0.577964    35A     -0.560120    36A     -0.542360
      37A     -0.492018    38A     -0.458484    39A     -0.437829
      40A     -0.435617    41A     -0.428277    42A     -0.389120
      43A     -0.307225

  @DF-RHF Final Energy:  -578.62851651778351

   => Energetics <=

    Nuclear Repulsion Energy =            693.9110261705653784
    One-Electron Energy =               -2164.8586999707172254
    Two-Electron Energy =                 892.3191572823682236
    Total Energy =                       -578.6285165177835097
  Basis Set: (AUG-CC-PVTZ AUX)
    Blend: AUG-CC-PVTZ-RI
    Molecular point group: c1

    Geometry (in Angstrom), charge = 0, multiplicity = 1:

       Center              X                  Y                   Z               Mass
    ------------   -----------------  -----------------  -----------------  -----------------
         O           -1.504207203179     2.553063842474     0.080791305853    15.994914619570
         N            1.924282996821    -0.578125857526    -0.055592894147    14.003074004430
         N           -1.905155003179     0.311102142474     0.048545105853    14.003074004430
         N           -0.337593003179    -1.462232857526    -0.038711894147    14.003074004430
         N            1.521767996821     1.645902142474    -0.010520894147    14.003074004430
         N           -2.624305003179    -1.911927857526     0.111117105853    14.003074004430
         C            0.562821996821    -0.431913857526    -0.029491894147    12.000000000000
         C            0.321126096821     0.897649242474    -0.010437694147    12.000000000000
         C           -1.017041003179     1.428714142474     0.035217105853    12.000000000000
         C            2.444185996821     0.694493142474    -0.069882894147    12.000000000000
         C           -1.567934003179    -1.021042857526     0.018842105853    12.000000000000
         C            2.640492996821    -1.840318857526    -0.065481894147    12.000000000000
         H            3.514384996821     0.864083142474    -0.086568894147     1.007825032230
         H            2.378057996821    -2.425423857526     0.817786105853     1.007825032230
         H            2.384595996821    -2.409075857526    -0.960468894147     1.007825032230
         H            3.709262996821    -1.625583857526    -0.059195894147     1.007825032230
         H           -2.882858003179     0.574149142474     0.169354105853     1.007825032230
         H           -2.320680003179    -2.862690857526    -0.064201894147     1.007825032230
         H           -3.454570003179    -1.667635857526    -0.417312894147     1.007825032230

  Basis Set: AUG-CC-PVTZ
    Blend: AUG-CC-PVTZ
  Basis Set: (AUG-CC-PVTZ AUX)
    Blend: AUG-CC-PVTZ-JKFIT
	 Reference Energy          =    -578.6285165177835097 [Eh]
	 Singles Energy            =      -0.0000000000000000 [Eh]
	 Same-Spin Energy          =      -0.6151971759864243 [Eh]
	 Opposite-Spin Energy      =      -1.8192705708227004 [Eh]
	 Correlation Energy        =      -2.4344677468091245 [Eh]
	 Total Energy              =    -581.0629842645926146 [Eh]

	 ================> DF-SCS-MP2 Energies <==================
	-----------------------------------------------------------
	 SCS Same-Spin Scale       =       0.3333333333333333 [-]
	 SCS Opposite-Spin Scale   =       1.2000000000000000 [-]
	 SCS Same-Spin Energy      =      -0.2050657253288081 [Eh]
	 SCS Opposite-Spin Energy  =      -2.1831246849872405 [Eh]
	 SCS Correlation Energy    =      -2.3881904103160485 [Eh]
	 SCS Total Energy          =    -581.0167069280995520 [Eh]
	-----------------------------------------------------------

  Dipole Moment: [D]
     X:     0.0210      Y:    -6.7336      Z:    -0.9367     Total:     6.7985

*** Psi4 exiting successfully. Buy a developer a beer!
