                               Psi4 1.3.2 release

  ==> Input File <==

--------------------------------------------------------------------------
#psi4
#
memory 32 gb

molecule  {
0 1
  O       -1.4697740     2.5644010     0.0803940
  N        1.9191590    -0.5831280    -0.0556370
  N       -1.9102790     0.3061000     0.0485010
  N       -0.3427170    -1.4672350    -0.0387560
  N        1.5166440     1.6409000    -0.0105650
  N       -2.6294290    -1.9169300     0.1110730
  C        0.5576980    -0.4369160    -0.0295360
  C        0.3217127     0.9604028    -0.0083068
  C       -1.0221650     1.4237120     0.0351730
  C        2.4555488     0.7057424    -0.0696904
  C       -1.5730580    -1.0260450     0.0187980
  C        2.6353690    -1.8453210    -0.0655260
  H        3.5092610     0.8590810    -0.0866130
  H        2.3729340    -2.4304260     0.8177420
  H        2.3794720    -2.4140780    -0.9605130
  H        3.7041390    -1.6305860    -0.0592400
  H       -2.8879820     0.5691470     0.1693100
  H       -2.3258040    -2.8676930    -0.0642460
  H       -3.4596940    -1.6726380    -0.4173570
units angstrom
no_reorient  #important for SAPT in psi4, default
symmetry c1  #important for SAPT in psi4, default
}

set PROPERTIES_ORIGIN ["COM"]
properties('MP2/aug-cc-pvtz', properties = ['dipole'])
--------------------------------------------------------------------------

    Molecular point group: c1
  Charge       = 0
  Multiplicity = 1
  Basis Set: AUG-CC-PVTZ
    Blend: AUG-CC-PVTZ
  Basis Set: (AUG-CC-PVTZ AUX)
    Blend: AUG-CC-PVTZ-JKFIT

    Orbital Energies [Eh]
    ---------------------

    Doubly Occupied:

       1A    -20.517718     2A    -15.633008     3A    -15.629529
       4A    -15.611513     5A    -15.571837     6A    -15.562072
       7A    -11.397273     8A    -11.361761     9A    -11.323918
      10A    -11.307924    11A    -11.288702    12A    -11.247508
      13A     -1.389417    14A     -1.355942    15A     -1.332623
      16A     -1.219357    17A     -1.216588    18A     -1.189240
      19A     -1.029206    20A     -0.985179    21A     -0.902277
      22A     -0.882801    23A     -0.809128    24A     -0.763765
      25A     -0.741289    26A     -0.731774    27A     -0.692657
      28A     -0.669194    29A     -0.647796    30A     -0.643161
      31A     -0.626706    32A     -0.607608    33A     -0.603090
      34A     -0.578289    35A     -0.559571    36A     -0.540975
      37A     -0.493084    38A     -0.459730    39A     -0.438417
      40A     -0.429040    41A     -0.426060    42A     -0.391636
      43A     -0.297545

  @DF-RHF Final Energy:  -578.62860272064393

   => Energetics <=

    Nuclear Repulsion Energy =            692.6954600147863630
    One-Electron Energy =               -2162.4363114963844055
    Two-Electron Energy =                 891.1122487609540030
    Total Energy =                       -578.6286027206439257
  Basis Set: (AUG-CC-PVTZ AUX)
    Blend: AUG-CC-PVTZ-RI
    Molecular point group: c1

    Geometry (in Angstrom), charge = 0, multiplicity = 1:

       Center              X                  Y                   Z               Mass
    ------------   -----------------  -----------------  -----------------  -----------------
         O           -1.470096842367     2.561712654194     0.080297011207    15.994914619570
         N            1.918836157633    -0.585816345806    -0.055733988793    14.003074004430
         N           -1.910601842367     0.303411654194     0.048404011207    14.003074004430
         N           -0.343039842367    -1.469923345806    -0.038852988793    14.003074004430
         N            1.516321157633     1.638211654194    -0.010661988793    14.003074004430
         N           -2.629751842367    -1.919618345806     0.110976011207    14.003074004430
         C            0.557375157633    -0.439604345806    -0.029632988793    12.000000000000
         C            0.321389857633     0.957714454194    -0.008403788793    12.000000000000
         C           -1.022487842367     1.421023654194     0.035076011207    12.000000000000
         C            2.455225957633     0.703054054194    -0.069787388793    12.000000000000
         C           -1.573380842367    -1.028733345806     0.018701011207    12.000000000000
         C            2.635046157633    -1.848009345806    -0.065622988793    12.000000000000
         H            3.508938157633     0.856392654194    -0.086709988793     1.007825032230
         H            2.372611157633    -2.433114345806     0.817645011207     1.007825032230
         H            2.379149157633    -2.416766345806    -0.960609988793     1.007825032230
         H            3.703816157633    -1.633274345806    -0.059336988793     1.007825032230
         H           -2.888304842367     0.566458654194     0.169213011207     1.007825032230
         H           -2.326126842367    -2.870381345806    -0.064342988793     1.007825032230
         H           -3.460016842367    -1.675326345806    -0.417453988793     1.007825032230

  Basis Set: AUG-CC-PVTZ
    Blend: AUG-CC-PVTZ
  Basis Set: (AUG-CC-PVTZ AUX)
    Blend: AUG-CC-PVTZ-JKFIT
	 Reference Energy          =    -578.6286027206439257 [Eh]
	 Singles Energy            =      -0.0000000000000000 [Eh]
	 Same-Spin Energy          =      -0.6162759959769694 [Eh]
	 Opposite-Spin Energy      =      -1.8202086538670974 [Eh]
	 Correlation Energy        =      -2.4364846498440667 [Eh]
	 Total Energy              =    -581.0650873704879587 [Eh]

	 ================> DF-SCS-MP2 Energies <==================
	-----------------------------------------------------------
	 SCS Same-Spin Scale       =       0.3333333333333333 [-]
	 SCS Opposite-Spin Scale   =       1.2000000000000000 [-]
	 SCS Same-Spin Energy      =      -0.2054253319923231 [Eh]
	 SCS Opposite-Spin Energy  =      -2.1842503846405168 [Eh]
	 SCS Correlation Energy    =      -2.3896757166328397 [Eh]
	 SCS Total Energy          =    -581.0182784372767628 [Eh]
	-----------------------------------------------------------

  Dipole Moment: [D]
     X:     0.0319      Y:    -6.8016      Z:    -0.9394     Total:     6.8662

*** Psi4 exiting successfully. Buy a developer a beer!
