                               Psi4 1.4a3.dev225

  ==> Input File <==

--------------------------------------------------------------------------
#psi4
#
memory 32 gb

molecule  {
0 1
  O        1.6617960     2.5152110     0.0229320
  N       -1.9329240    -0.4005880    -0.0147920
  N        1.9545050     0.2323110     0.0113410
  N        0.2669280    -1.4301930    -0.0208730
  N       -1.3834780     1.7915450    -0.0193170
  N        2.5221760    -2.0364130     0.0734370
  C       -0.5513281    -0.3601598    -0.0029590
  C       -0.2488450     1.0144850    -0.0147620
  C        1.1380320     1.4076430     0.0031510
  C       -2.3683130     0.9036150    -0.0164120
  C        1.5275980    -1.0721200    -0.0057920
  C       -2.7322540    -1.6127190     0.0339130
  H       -3.4247340     1.1445090    -0.0228960
  H       -2.2735910    -2.3629350    -0.6109560
  H       -2.7853950    -1.9995380     1.0543320
  H       -3.7366260    -1.3828770    -0.3245450
  H        2.9468270     0.4301980     0.1174830
  H        2.1372730    -2.9631930    -0.0801050
  H        3.3349710    -1.8642740    -0.5097710
units angstrom
no_reorient  #important for SAPT in psi4, default
symmetry c1  #important for SAPT in psi4, default
}

set PROPERTIES_ORIGIN ["COM"]
properties('MP2/aug-cc-pvtz', properties = ['dipole'])
--------------------------------------------------------------------------

    Molecular point group: c1
  Charge       = 0
  Multiplicity = 1
  Basis Set: AUG-CC-PVTZ
    Blend: AUG-CC-PVTZ
  Basis Set: (AUG-CC-PVTZ AUX)
    Blend: AUG-CC-PVTZ-JKFIT

    Orbital Energies [Eh]
    ---------------------

    Doubly Occupied:

       1A    -20.520127     2A    -15.631863     3A    -15.630567
       4A    -15.611935     5A    -15.571941     6A    -15.559682
       7A    -11.397932     8A    -11.363870     9A    -11.321213
      10A    -11.307086    11A    -11.288087    12A    -11.248013
      13A     -1.390831    14A     -1.358478    15A     -1.334311
      16A     -1.220988    17A     -1.219347    18A     -1.189968
      19A     -1.027318    20A     -0.984065    21A     -0.901380
      22A     -0.884643    23A     -0.808214    24A     -0.764550
      25A     -0.741235    26A     -0.729518    27A     -0.691914
      28A     -0.669892    29A     -0.648607    30A     -0.643733
      31A     -0.626380    32A     -0.609931    33A     -0.593836
      34A     -0.576723    35A     -0.559945    36A     -0.541879
      37A     -0.494496    38A     -0.462832    39A     -0.440119
      40A     -0.431115    41A     -0.427883    42A     -0.391841
      43A     -0.295853

  @DF-RHF Final Energy:  -578.62924478334116

   => Energetics <=

    Nuclear Repulsion Energy =            693.0960851306508630
    One-Electron Energy =               -2163.2223872075037434
    Two-Electron Energy =                 891.4970572935117161
    Total Energy =                       -578.6292447833411643
  Basis Set: (AUG-CC-PVTZ AUX)
    Blend: AUG-CC-PVTZ-RI
    Molecular point group: c1

    Geometry (in Angstrom), charge = 0, multiplicity = 1:

       Center              X                  Y                   Z               Mass
    ------------   -----------------  -----------------  -----------------  -----------------
         O            1.638088807942     2.462391846920     0.020688671343    15.994914619570
         N           -1.956631192058    -0.453407153080    -0.017035328657    14.003074004430
         N            1.930797807942     0.179491846920     0.009097671343    14.003074004430
         N            0.243220807942    -1.483012153080    -0.023116328657    14.003074004430
         N           -1.407185192058     1.738725846920    -0.021560328657    14.003074004430
         N            2.498468807942    -2.089232153080     0.071193671343    14.003074004430
         C           -0.575035292058    -0.412978953080    -0.005202328657    12.000000000000
         C           -0.272552192058     0.961665846920    -0.017005328657    12.000000000000
         C            1.114324807942     1.354823846920     0.000907671343    12.000000000000
         C           -2.392020192058     0.850795846920    -0.018655328657    12.000000000000
         C            1.503890807942    -1.124939153080    -0.008035328657    12.000000000000
         C           -2.755961192058    -1.665538153080     0.031669671343    12.000000000000
         H           -3.448441192058     1.091689846920    -0.025139328657     1.007825032230
         H           -2.297298192058    -2.415754153080    -0.613199328657     1.007825032230
         H           -2.809102192058    -2.052357153080     1.052088671343     1.007825032230
         H           -3.760333192058    -1.435696153080    -0.326788328657     1.007825032230
         H            2.923119807942     0.377378846920     0.115239671343     1.007825032230
         H            2.113565807942    -3.016012153080    -0.082348328657     1.007825032230
         H            3.311263807942    -1.917093153080    -0.512014328657     1.007825032230

  Basis Set: AUG-CC-PVTZ
    Blend: AUG-CC-PVTZ
  Basis Set: (AUG-CC-PVTZ AUX)
    Blend: AUG-CC-PVTZ-JKFIT
	 Reference Energy          =    -578.6292447833411643 [Eh]
	 Singles Energy            =      -0.0000000000000000 [Eh]
	 Same-Spin Energy          =      -0.6164919138339852 [Eh]
	 Opposite-Spin Energy      =      -1.8201076279795629 [Eh]
	 Correlation Energy        =      -2.4365995418135480 [Eh]
	 Total Energy              =    -581.0658443251546714 [Eh]

	 ================> DF-SCS-MP2 Energies <==================
	-----------------------------------------------------------
	 SCS Same-Spin Scale       =       0.3333333333333333 [-]
	 SCS Opposite-Spin Scale   =       1.2000000000000000 [-]
	 SCS Same-Spin Energy      =      -0.2054973046113284 [Eh]
	 SCS Opposite-Spin Energy  =      -2.1841291535754754 [Eh]
	 SCS Correlation Energy    =      -2.3896264581868039 [Eh]
	 SCS Total Energy          =    -581.0188712415280179 [Eh]
	-----------------------------------------------------------

  Dipole Moment: [D]
     X:    -0.4674      Y:    -6.7939      Z:    -0.8518     Total:     6.8631

*** Psi4 exiting successfully. Buy a developer a beer!
