                               Psi4 1.4a3.dev225

  ==> Input File <==

--------------------------------------------------------------------------
#psi4
#
memory 32 gb

molecule  {
0 1
  O        1.6617960     2.5152110     0.0229320
  N       -1.9329240    -0.4005880    -0.0147920
  N        1.9545050     0.2323110     0.0113410
  N        0.2669280    -1.4301930    -0.0208730
  N       -1.3834780     1.7915450    -0.0193170
  N        2.5221760    -2.0364130     0.0734370
  C       -0.5634760    -0.3442740    -0.0026930
  C       -0.2323439     1.0031841    -0.0146958
  C        1.1380320     1.4076430     0.0031510
  C       -2.3683130     0.9036150    -0.0164120
  C        1.5275980    -1.0721200    -0.0057920
  C       -2.7322540    -1.6127190     0.0339130
  H       -3.4247340     1.1445090    -0.0228960
  H       -2.2735910    -2.3629350    -0.6109560
  H       -2.7853950    -1.9995380     1.0543320
  H       -3.7366260    -1.3828770    -0.3245450
  H        2.9468270     0.4301980     0.1174830
  H        2.1372730    -2.9631930    -0.0801050
  H        3.3349710    -1.8642740    -0.5097710
units angstrom
no_reorient  #important for SAPT in psi4, default
symmetry c1  #important for SAPT in psi4, default
}

set PROPERTIES_ORIGIN ["COM"]
properties('MP2/aug-cc-pvtz', properties = ['dipole'])
--------------------------------------------------------------------------

    Molecular point group: c1
  Charge       = 0
  Multiplicity = 1
  Basis Set: AUG-CC-PVTZ
    Blend: AUG-CC-PVTZ
  Basis Set: (AUG-CC-PVTZ AUX)
    Blend: AUG-CC-PVTZ-JKFIT

    Orbital Energies [Eh]
    ---------------------

    Doubly Occupied:

       1A    -20.520962     2A    -15.632445     3A    -15.629018
       4A    -15.610869     5A    -15.571102     6A    -15.560632
       7A    -11.396368     8A    -11.364066     9A    -11.320999
      10A    -11.307925    11A    -11.289387    12A    -11.246286
      13A     -1.390896    14A     -1.359975    15A     -1.333456
      16A     -1.219107    17A     -1.214962    18A     -1.187733
      19A     -1.031639    20A     -0.986056    21A     -0.902774
      22A     -0.881983    23A     -0.807272    24A     -0.767713
      25A     -0.740347    26A     -0.728157    27A     -0.691313
      28A     -0.670974    29A     -0.650853    30A     -0.642085
      31A     -0.625572    32A     -0.611634    33A     -0.592371
      34A     -0.578688    35A     -0.560471    36A     -0.541766
      37A     -0.492402    38A     -0.460252    39A     -0.438499
      40A     -0.430602    41A     -0.429519    42A     -0.390992
      43A     -0.301503

  @DF-RHF Final Energy:  -578.63033327182268

   => Energetics <=

    Nuclear Repulsion Energy =            693.2637090261150661
    One-Electron Energy =               -2163.5648317930704252
    Two-Electron Energy =                 891.6707894951326807
    Total Energy =                       -578.6303332718226784
  Basis Set: (AUG-CC-PVTZ AUX)
    Blend: AUG-CC-PVTZ-RI
    Molecular point group: c1

    Geometry (in Angstrom), charge = 0, multiplicity = 1:

       Center              X                  Y                   Z               Mass
    ------------   -----------------  -----------------  -----------------  -----------------
         O            1.637772336363     2.462058531075     0.020664520865    15.994914619570
         N           -1.956947663637    -0.453740468925    -0.017059479135    14.003074004430
         N            1.930481336363     0.179158531075     0.009073520865    14.003074004430
         N            0.242904336363    -1.483345468925    -0.023140479135    14.003074004430
         N           -1.407501663637     1.738392531075    -0.021584479135    14.003074004430
         N            2.498152336363    -2.089565468925     0.071169520865    14.003074004430
         C           -0.587499663637    -0.397426468925    -0.004960479135    12.000000000000
         C           -0.256367563637     0.950031631075    -0.016963279135    12.000000000000
         C            1.114008336363     1.354490531075     0.000883520865    12.000000000000
         C           -2.392336663637     0.850462531075    -0.018679479135    12.000000000000
         C            1.503574336363    -1.125272468925    -0.008059479135    12.000000000000
         C           -2.756277663637    -1.665871468925     0.031645520865    12.000000000000
         H           -3.448757663637     1.091356531075    -0.025163479135     1.007825032230
         H           -2.297614663637    -2.416087468925    -0.613223479135     1.007825032230
         H           -2.809418663637    -2.052690468925     1.052064520865     1.007825032230
         H           -3.760649663637    -1.436029468925    -0.326812479135     1.007825032230
         H            2.922803336363     0.377045531075     0.115215520865     1.007825032230
         H            2.113249336363    -3.016345468925    -0.082372479135     1.007825032230
         H            3.310947336363    -1.917426468925    -0.512038479135     1.007825032230

  Basis Set: AUG-CC-PVTZ
    Blend: AUG-CC-PVTZ
  Basis Set: (AUG-CC-PVTZ AUX)
    Blend: AUG-CC-PVTZ-JKFIT
	 Reference Energy          =    -578.6303332718226784 [Eh]
	 Singles Energy            =      -0.0000000000000000 [Eh]
	 Same-Spin Energy          =      -0.6158415523741435 [Eh]
	 Opposite-Spin Energy      =      -1.8197627498277127 [Eh]
	 Correlation Energy        =      -2.4356043022018561 [Eh]
	 Total Energy              =    -581.0659375740245878 [Eh]

	 ================> DF-SCS-MP2 Energies <==================
	-----------------------------------------------------------
	 SCS Same-Spin Scale       =       0.3333333333333333 [-]
	 SCS Opposite-Spin Scale   =       1.2000000000000000 [-]
	 SCS Same-Spin Energy      =      -0.2052805174580478 [Eh]
	 SCS Opposite-Spin Energy  =      -2.1837152997932550 [Eh]
	 SCS Correlation Energy    =      -2.3889958172513026 [Eh]
	 SCS Total Energy          =    -581.0193290890739490 [Eh]
	-----------------------------------------------------------

  Dipole Moment: [D]
     X:    -0.5334      Y:    -6.7746      Z:    -0.8514     Total:     6.8487

*** Psi4 exiting successfully. Buy a developer a beer!
