                               Psi4 1.3.2 release

  ==> Input File <==

--------------------------------------------------------------------------
#psi4
#
memory 32 gb

molecule  {
0 1
  O       -1.4697740     2.5644010     0.0803940
  N        1.9191590    -0.5831280    -0.0556370
  N       -1.9102790     0.3061000     0.0485010
  N       -0.2875595    -1.5129393    -0.0396856
  N        1.5166440     1.6409000    -0.0105650
  N       -2.6294290    -1.9169300     0.1110730
  C        0.5576980    -0.4369160    -0.0295360
  C        0.4061156     0.9495111    -0.0096670
  C       -1.0221650     1.4237120     0.0351730
  C        2.4390620     0.6894910    -0.0699270
  C       -1.5730580    -1.0260450     0.0187980
  C        2.6353690    -1.8453210    -0.0655260
  H        3.5092610     0.8590810    -0.0866130
  H        2.3729340    -2.4304260     0.8177420
  H        2.3794720    -2.4140780    -0.9605130
  H        3.7041390    -1.6305860    -0.0592400
  H       -2.8879820     0.5691470     0.1693100
  H       -2.3258040    -2.8676930    -0.0642460
  H       -3.4596940    -1.6726380    -0.4173570
units angstrom
no_reorient  #important for SAPT in psi4, default
symmetry c1  #important for SAPT in psi4, default
}

set PROPERTIES_ORIGIN ["COM"]
properties('MP2/aug-cc-pvtz', properties = ['dipole'])
--------------------------------------------------------------------------

    Molecular point group: c1
  Charge       = 0
  Multiplicity = 1
  Basis Set: AUG-CC-PVTZ
    Blend: AUG-CC-PVTZ
  Basis Set: (AUG-CC-PVTZ AUX)
    Blend: AUG-CC-PVTZ-JKFIT

    Orbital Energies [Eh]
    ---------------------

    Doubly Occupied:

       1A    -20.526556     2A    -15.637992     3A    -15.627882
       4A    -15.616519     5A    -15.577157     6A    -15.554840
       7A    -11.407632     8A    -11.369852     9A    -11.308655
      10A    -11.301815    11A    -11.285137    12A    -11.248189
      13A     -1.391106    14A     -1.364058    15A     -1.331397
      16A     -1.222751    17A     -1.220570    18A     -1.189392
      19A     -1.017727    20A     -0.982744    21A     -0.895797
      22A     -0.882870    23A     -0.803090    24A     -0.766214
      25A     -0.744682    26A     -0.727630    27A     -0.693754
      28A     -0.668116    29A     -0.646107    30A     -0.635549
      31A     -0.621485    32A     -0.610534    33A     -0.591553
      34A     -0.572652    35A     -0.562719    36A     -0.539879
      37A     -0.500050    38A     -0.460252    39A     -0.449593
      40A     -0.432581    41A     -0.424251    42A     -0.395967
      43A     -0.285645

  @DF-RHF Final Energy:  -578.61256895303904

   => Energetics <=

    Nuclear Repulsion Energy =            692.0907013903063216
    One-Electron Energy =               -2161.2206542983071813
    Two-Electron Energy =                 890.5173839549618151
    Total Energy =                       -578.6125689530390446
  Basis Set: (AUG-CC-PVTZ AUX)
    Blend: AUG-CC-PVTZ-RI
    Molecular point group: c1

    Geometry (in Angstrom), charge = 0, multiplicity = 1:

       Center              X                  Y                   Z               Mass
    ------------   -----------------  -----------------  -----------------  -----------------
         O           -1.479713461145     2.567563183046     0.080491957719    15.994914619570
         N            1.909219538855    -0.579965816954    -0.055539042281    14.003074004430
         N           -1.920218461145     0.309262183046     0.048598957719    14.003074004430
         N           -0.297498961145    -1.509777116954    -0.039587642281    14.003074004430
         N            1.506704538855     1.644062183046    -0.010467042281    14.003074004430
         N           -2.639368461145    -1.913767816954     0.111170957719    14.003074004430
         C            0.547758538855    -0.433753816954    -0.029438042281    12.000000000000
         C            0.396176138855     0.952673283046    -0.009569042281    12.000000000000
         C           -1.032104461145     1.426874183046     0.035270957719    12.000000000000
         C            2.429122538855     0.692653183046    -0.069829042281    12.000000000000
         C           -1.582997461145    -1.022882816954     0.018895957719    12.000000000000
         C            2.625429538855    -1.842158816954    -0.065428042281    12.000000000000
         H            3.499321538855     0.862243183046    -0.086515042281     1.007825032230
         H            2.362994538855    -2.427263816954     0.817839957719     1.007825032230
         H            2.369532538855    -2.410915816954    -0.960415042281     1.007825032230
         H            3.694199538855    -1.627423816954    -0.059142042281     1.007825032230
         H           -2.897921461145     0.572309183046     0.169407957719     1.007825032230
         H           -2.335743461145    -2.864530816954    -0.064148042281     1.007825032230
         H           -3.469633461145    -1.669475816954    -0.417259042281     1.007825032230

  Basis Set: AUG-CC-PVTZ
    Blend: AUG-CC-PVTZ
  Basis Set: (AUG-CC-PVTZ AUX)
    Blend: AUG-CC-PVTZ-JKFIT
	 Reference Energy          =    -578.6125689530390446 [Eh]
	 Singles Energy            =      -0.0000000000000000 [Eh]
	 Same-Spin Energy          =      -0.6178539901055027 [Eh]
	 Opposite-Spin Energy      =      -1.8227354565930785 [Eh]
	 Correlation Energy        =      -2.4405894466985814 [Eh]
	 Total Energy              =    -581.0531583997376401 [Eh]

	 ================> DF-SCS-MP2 Energies <==================
	-----------------------------------------------------------
	 SCS Same-Spin Scale       =       0.3333333333333333 [-]
	 SCS Opposite-Spin Scale   =       1.2000000000000000 [-]
	 SCS Same-Spin Energy      =      -0.2059513300351676 [Eh]
	 SCS Opposite-Spin Energy  =      -2.1872825479116940 [Eh]
	 SCS Correlation Energy    =      -2.3932338779468614 [Eh]
	 SCS Total Energy          =    -581.0058028309858855 [Eh]
	-----------------------------------------------------------

  Dipole Moment: [D]
     X:    -0.3942      Y:    -6.5917      Z:    -0.9191     Total:     6.6672

*** Psi4 exiting successfully. Buy a developer a beer!
