                               Psi4 1.3.2 release

  ==> Input File <==

--------------------------------------------------------------------------
#psi4
#
memory 32 gb

molecule  {
0 1
  O       -1.4697740     2.5644010     0.0803940
  N        1.9191590    -0.5831280    -0.0556370
  N       -1.9102790     0.3061000     0.0485010
  N       -0.3427170    -1.4672350    -0.0387560
  N        1.5166440     1.6409000    -0.0105650
  N       -2.6294290    -1.9169300     0.1110730
  C        0.5930737    -0.4689172    -0.0319237
  C        0.3337570     0.9396730    -0.0094060
  C       -1.0221650     1.4237120     0.0351730
  C        2.4390620     0.6894910    -0.0699270
  C       -1.5877624    -1.0692642     0.0176461
  C        2.6353690    -1.8453210    -0.0655260
  H        3.5092610     0.8590810    -0.0866130
  H        2.3729340    -2.4304260     0.8177420
  H        2.3794720    -2.4140780    -0.9605130
  H        3.7041390    -1.6305860    -0.0592400
  H       -2.8879820     0.5691470     0.1693100
  H       -2.3258040    -2.8676930    -0.0642460
  H       -3.4596940    -1.6726380    -0.4173570
units angstrom
no_reorient  #important for SAPT in psi4, default
symmetry c1  #important for SAPT in psi4, default
}

set PROPERTIES_ORIGIN ["COM"]
properties('MP2/aug-cc-pvtz', properties = ['dipole'])
--------------------------------------------------------------------------

    Molecular point group: c1
  Charge       = 0
  Multiplicity = 1
  Basis Set: AUG-CC-PVTZ
    Blend: AUG-CC-PVTZ
  Basis Set: (AUG-CC-PVTZ AUX)
    Blend: AUG-CC-PVTZ-JKFIT

    Orbital Energies [Eh]
    ---------------------

    Doubly Occupied:

       1A    -20.515758     2A    -15.636845     3A    -15.622282
       4A    -15.616544     5A    -15.568703     6A    -15.561804
       7A    -11.397901     8A    -11.360011     9A    -11.320624
      10A    -11.304169    11A    -11.291120    12A    -11.245775
      13A     -1.386505    14A     -1.364064    15A     -1.335699
      16A     -1.226442    17A     -1.211518    18A     -1.189429
      19A     -1.025126    20A     -0.988794    21A     -0.901749
      22A     -0.879677    23A     -0.807622    24A     -0.764047
      25A     -0.745774    26A     -0.732334    27A     -0.694562
      28A     -0.674017    29A     -0.651773    30A     -0.641733
      31A     -0.624959    32A     -0.606410    33A     -0.591402
      34A     -0.583451    35A     -0.563763    36A     -0.542507
      37A     -0.487129    38A     -0.461114    39A     -0.434273
      40A     -0.424346    41A     -0.423725    42A     -0.393542
      43A     -0.292282

  @DF-RHF Final Energy:  -578.62360600752584

   => Energetics <=

    Nuclear Repulsion Energy =            692.7366729603055546
    One-Electron Energy =               -2162.5379422715345754
    Two-Electron Energy =                 891.1776633037032980
    Total Energy =                       -578.6236060075258365
  Basis Set: (AUG-CC-PVTZ AUX)
    Blend: AUG-CC-PVTZ-RI
    Molecular point group: c1

    Geometry (in Angstrom), charge = 0, multiplicity = 1:

       Center              X                  Y                   Z               Mass
    ------------   -----------------  -----------------  -----------------  -----------------
         O           -1.471276653528     2.569869554273     0.080651445998    15.994914619570
         N            1.917656346472    -0.577659445727    -0.055379554002    14.003074004430
         N           -1.911781653528     0.311568554273     0.048758445998    14.003074004430
         N           -0.344219653528    -1.461766445727    -0.038498554002    14.003074004430
         N            1.515141346472     1.646368554273    -0.010307554002    14.003074004430
         N           -2.630931653528    -1.911461445727     0.111330445998    14.003074004430
         C            0.591571046472    -0.463448645727    -0.031666254002    12.000000000000
         C            0.332254346472     0.945141554273    -0.009148554002    12.000000000000
         C           -1.023667653528     1.429180554273     0.035430445998    12.000000000000
         C            2.437559346472     0.694959554273    -0.069669554002    12.000000000000
         C           -1.589265053528    -1.063795645727     0.017903545998    12.000000000000
         C            2.633866346472    -1.839852445727    -0.065268554002    12.000000000000
         H            3.507758346472     0.864549554273    -0.086355554002     1.007825032230
         H            2.371431346472    -2.424957445727     0.817999445998     1.007825032230
         H            2.377969346472    -2.408609445727    -0.960255554002     1.007825032230
         H            3.702636346472    -1.625117445727    -0.058982554002     1.007825032230
         H           -2.889484653528     0.574615554273     0.169567445998     1.007825032230
         H           -2.327306653528    -2.862224445727    -0.063988554002     1.007825032230
         H           -3.461196653528    -1.667169445727    -0.417099554002     1.007825032230

  Basis Set: AUG-CC-PVTZ
    Blend: AUG-CC-PVTZ
  Basis Set: (AUG-CC-PVTZ AUX)
    Blend: AUG-CC-PVTZ-JKFIT
	 Reference Energy          =    -578.6236060075258365 [Eh]
	 Singles Energy            =      -0.0000000000000000 [Eh]
	 Same-Spin Energy          =      -0.6168481150296429 [Eh]
	 Opposite-Spin Energy      =      -1.8203085189833361 [Eh]
	 Correlation Energy        =      -2.4371566340129789 [Eh]
	 Total Energy              =    -581.0607626415387585 [Eh]

	 ================> DF-SCS-MP2 Energies <==================
	-----------------------------------------------------------
	 SCS Same-Spin Scale       =       0.3333333333333333 [-]
	 SCS Opposite-Spin Scale   =       1.2000000000000000 [-]
	 SCS Same-Spin Energy      =      -0.2056160383432143 [Eh]
	 SCS Opposite-Spin Energy  =      -2.1843702227800033 [Eh]
	 SCS Correlation Energy    =      -2.3899862611232177 [Eh]
	 SCS Total Energy          =    -581.0135922686490630 [Eh]
	-----------------------------------------------------------

  Dipole Moment: [D]
     X:    -0.0225      Y:    -7.1387      Z:    -0.9367     Total:     7.1999

*** Psi4 exiting successfully. Buy a developer a beer!
