                               Psi4 1.3.2 release

  ==> Input File <==

--------------------------------------------------------------------------
#psi4
#
memory 32 gb

molecule  {
0 1
  O       -1.4697740     2.5644010     0.0803940
  N        1.9191590    -0.5831280    -0.0556370
  N       -1.9102790     0.3061000     0.0485010
  N       -0.3427170    -1.4672350    -0.0387560
  N        1.5166440     1.6409000    -0.0105650
  N       -2.6294290    -1.9169300     0.1110730
  C        0.5576980    -0.4369160    -0.0295360
  C        0.3337570     0.9396730    -0.0094060
  C       -1.0221650     1.4237120     0.0351730
  C        2.4390620     0.6894910    -0.0699270
  C       -1.6426729    -1.0419231     0.0277335
  C        2.6353690    -1.8453210    -0.0655260
  H        3.5092610     0.8590810    -0.0866130
  H        2.3729340    -2.4304260     0.8177420
  H        2.3794720    -2.4140780    -0.9605130
  H        3.7041390    -1.6305860    -0.0592400
  H       -2.9002396     0.5172309     0.1713568
  H       -2.3258040    -2.8676930    -0.0642460
  H       -3.4596940    -1.6726380    -0.4173570
units angstrom
no_reorient  #important for SAPT in psi4, default
symmetry c1  #important for SAPT in psi4, default
}

set PROPERTIES_ORIGIN ["COM"]
properties('MP2/aug-cc-pvtz', properties = ['dipole'])
--------------------------------------------------------------------------

    Molecular point group: c1
  Charge       = 0
  Multiplicity = 1
  Basis Set: AUG-CC-PVTZ
    Blend: AUG-CC-PVTZ
  Basis Set: (AUG-CC-PVTZ AUX)
    Blend: AUG-CC-PVTZ-JKFIT

    Orbital Energies [Eh]
    ---------------------

    Doubly Occupied:

       1A    -20.518970     2A    -15.631198     3A    -15.627990
       4A    -15.623579     5A    -15.564762     6A    -15.555649
       7A    -11.401064     8A    -11.364417     9A    -11.315011
      10A    -11.303439    11A    -11.285853    12A    -11.241262
      13A     -1.388723    14A     -1.356179    15A     -1.341240
      16A     -1.236967    17A     -1.204511    18A     -1.181048
      19A     -1.023969    20A     -0.983096    21A     -0.901195
      22A     -0.883072    23A     -0.805796    24A     -0.765166
      25A     -0.747327    26A     -0.737846    27A     -0.700941
      28A     -0.667154    29A     -0.650739    30A     -0.639302
      31A     -0.623632    32A     -0.607409    33A     -0.590528
      34A     -0.575028    35A     -0.562757    36A     -0.541016
      37A     -0.483169    38A     -0.460702    39A     -0.437668
      40A     -0.426916    41A     -0.423215    42A     -0.388532
      43A     -0.289583

  @DF-RHF Final Energy:  -578.62064567531206

   => Energetics <=

    Nuclear Repulsion Energy =            692.6465153447871899
    One-Electron Energy =               -2162.4190871928958586
    Two-Electron Energy =                 891.1519261727967205
    Total Energy =                       -578.6206456753120619
  Basis Set: (AUG-CC-PVTZ AUX)
    Blend: AUG-CC-PVTZ-RI
    Molecular point group: c1

    Geometry (in Angstrom), charge = 0, multiplicity = 1:

       Center              X                  Y                   Z               Mass
    ------------   -----------------  -----------------  -----------------  -----------------
         O           -1.464638132226     2.565872431833     0.079732026611    15.994914619570
         N            1.924294867774    -0.581656568167    -0.056298973389    14.003074004430
         N           -1.905143132226     0.307571431833     0.047839026611    14.003074004430
         N           -0.337581132226    -1.465763568167    -0.039417973389    14.003074004430
         N            1.521779867774     1.642371431833    -0.011226973389    14.003074004430
         N           -2.624293132226    -1.915458568167     0.110411026611    14.003074004430
         C            0.562833867774    -0.435444568167    -0.030197973389    12.000000000000
         C            0.338892867774     0.941144431833    -0.010067973389    12.000000000000
         C           -1.017029132226     1.425183431833     0.034511026611    12.000000000000
         C            2.444197867774     0.690962431833    -0.070588973389    12.000000000000
         C           -1.637537032226    -1.040451668167     0.027071526611    12.000000000000
         C            2.640504867774    -1.843849568167    -0.066187973389    12.000000000000
         H            3.514396867774     0.860552431833    -0.087274973389     1.007825032230
         H            2.378069867774    -2.428954568167     0.817080026611     1.007825032230
         H            2.384607867774    -2.412606568167    -0.961174973389     1.007825032230
         H            3.709274867774    -1.629114568167    -0.059901973389     1.007825032230
         H           -2.895103732226     0.518702331833     0.170694826611     1.007825032230
         H           -2.320668132226    -2.866221568167    -0.064907973389     1.007825032230
         H           -3.454558132226    -1.671166568167    -0.418018973389     1.007825032230

  Basis Set: AUG-CC-PVTZ
    Blend: AUG-CC-PVTZ
  Basis Set: (AUG-CC-PVTZ AUX)
    Blend: AUG-CC-PVTZ-JKFIT
	 Reference Energy          =    -578.6206456753120619 [Eh]
	 Singles Energy            =      -0.0000000000000000 [Eh]
	 Same-Spin Energy          =      -0.6168835932744091 [Eh]
	 Opposite-Spin Energy      =      -1.8206659240462693 [Eh]
	 Correlation Energy        =      -2.4375495173206785 [Eh]
	 Total Energy              =    -581.0581951926327520 [Eh]

	 ================> DF-SCS-MP2 Energies <==================
	-----------------------------------------------------------
	 SCS Same-Spin Scale       =       0.3333333333333333 [-]
	 SCS Opposite-Spin Scale   =       1.2000000000000000 [-]
	 SCS Same-Spin Energy      =      -0.2056278644248030 [Eh]
	 SCS Opposite-Spin Energy  =      -2.1847991088555232 [Eh]
	 SCS Correlation Energy    =      -2.3904269732803263 [Eh]
	 SCS Total Energy          =    -581.0110726485924033 [Eh]
	-----------------------------------------------------------

  Dipole Moment: [D]
     X:    -0.6360      Y:    -7.0950      Z:    -0.8996     Total:     7.1800

*** Psi4 exiting successfully. Buy a developer a beer!
