                               Psi4 1.4a3.dev225

  ==> Input File <==

--------------------------------------------------------------------------
#psi4
#
memory 32 gb

molecule  {
0 1
  O        1.6617960     2.5152110     0.0229320
  N       -1.9329240    -0.4005880    -0.0147920
  N        1.9545050     0.2323110     0.0113410
  N        0.2669280    -1.4301930    -0.0208730
  N       -1.3834780     1.7915450    -0.0193170
  N        2.5221760    -2.0364130     0.0734370
  C       -0.5938457    -0.3045595    -0.0020281
  C       -0.2488450     1.0144850    -0.0147620
  C        1.1380320     1.4076430     0.0031510
  C       -2.3683130     0.9036150    -0.0164120
  C        1.5275980    -1.0721200    -0.0057920
  C       -2.7322540    -1.6127190     0.0339130
  H       -3.4247340     1.1445090    -0.0228960
  H       -2.2735910    -2.3629350    -0.6109560
  H       -2.7853950    -1.9995380     1.0543320
  H       -3.7366260    -1.3828770    -0.3245450
  H        2.9468270     0.4301980     0.1174830
  H        2.1372730    -2.9631930    -0.0801050
  H        3.3349710    -1.8642740    -0.5097710
units angstrom
no_reorient  #important for SAPT in psi4, default
symmetry c1  #important for SAPT in psi4, default
}

set PROPERTIES_ORIGIN ["COM"]
properties('MP2/aug-cc-pvtz', properties = ['dipole'])
--------------------------------------------------------------------------

    Molecular point group: c1
  Charge       = 0
  Multiplicity = 1
  Basis Set: AUG-CC-PVTZ
    Blend: AUG-CC-PVTZ
  Basis Set: (AUG-CC-PVTZ AUX)
    Blend: AUG-CC-PVTZ-JKFIT

    Orbital Energies [Eh]
    ---------------------

    Doubly Occupied:

       1A    -20.524546     2A    -15.634740     3A    -15.626865
       4A    -15.608042     5A    -15.569137     6A    -15.560690
       7A    -11.391818     8A    -11.367565     9A    -11.315835
      10A    -11.307081    11A    -11.291814    12A    -11.245233
      13A     -1.391894    14A     -1.367528    15A     -1.331557
      16A     -1.217344    17A     -1.207781    18A     -1.188266
      19A     -1.033518    20A     -0.990989    21A     -0.902043
      22A     -0.875570    23A     -0.805861    24A     -0.770804
      25A     -0.741504    26A     -0.726173    27A     -0.690151
      28A     -0.673507    29A     -0.654033    30A     -0.636769
      31A     -0.622186    32A     -0.612845    33A     -0.595626
      34A     -0.581843    35A     -0.564454    36A     -0.540953
      37A     -0.489483    38A     -0.455331    39A     -0.440096
      40A     -0.431288    41A     -0.425794    42A     -0.395107
      43A     -0.305140

  @DF-RHF Final Energy:  -578.62850178343706

   => Energetics <=

    Nuclear Repulsion Energy =            693.3896461847416504
    One-Electron Energy =               -2163.8186906559158160
    Two-Electron Energy =                 891.8005426877371065
    Total Energy =                       -578.6285017834370592
  Basis Set: (AUG-CC-PVTZ AUX)
    Blend: AUG-CC-PVTZ-RI
    Molecular point group: c1

    Geometry (in Angstrom), charge = 0, multiplicity = 1:

       Center              X                  Y                   Z               Mass
    ------------   -----------------  -----------------  -----------------  -----------------
         O            1.641179778256     2.458349782533     0.020620996209    15.994914619570
         N           -1.953540221744    -0.457449217467    -0.017103003791    14.003074004430
         N            1.933888778256     0.175449782533     0.009029996209    14.003074004430
         N            0.246311778256    -1.487054217467    -0.023184003791    14.003074004430
         N           -1.404094221744     1.734683782533    -0.021628003791    14.003074004430
         N            2.501559778256    -2.093274217467     0.071125996209    14.003074004430
         C           -0.614461921744    -0.361420717467    -0.004339103791    12.000000000000
         C           -0.269461221744     0.957623782533    -0.017073003791    12.000000000000
         C            1.117415778256     1.350781782533     0.000839996209    12.000000000000
         C           -2.388929221744     0.846753782533    -0.018723003791    12.000000000000
         C            1.506981778256    -1.128981217467    -0.008103003791    12.000000000000
         C           -2.752870221744    -1.669580217467     0.031601996209    12.000000000000
         H           -3.445350221744     1.087647782533    -0.025207003791     1.007825032230
         H           -2.294207221744    -2.419796217467    -0.613267003791     1.007825032230
         H           -2.806011221744    -2.056399217467     1.052020996209     1.007825032230
         H           -3.757242221744    -1.439738217467    -0.326856003791     1.007825032230
         H            2.926210778256     0.373336782533     0.115171996209     1.007825032230
         H            2.116656778256    -3.020054217467    -0.082416003791     1.007825032230
         H            3.314354778256    -1.921135217467    -0.512082003791     1.007825032230

  Basis Set: AUG-CC-PVTZ
    Blend: AUG-CC-PVTZ
  Basis Set: (AUG-CC-PVTZ AUX)
    Blend: AUG-CC-PVTZ-JKFIT
	 Reference Energy          =    -578.6285017834370592 [Eh]
	 Singles Energy            =      -0.0000000000000000 [Eh]
	 Same-Spin Energy          =      -0.6152025768002946 [Eh]
	 Opposite-Spin Energy      =      -1.8193883613862250 [Eh]
	 Correlation Energy        =      -2.4345909381865196 [Eh]
	 Total Energy              =    -581.0630927216235477 [Eh]

	 ================> DF-SCS-MP2 Energies <==================
	-----------------------------------------------------------
	 SCS Same-Spin Scale       =       0.3333333333333333 [-]
	 SCS Opposite-Spin Scale   =       1.2000000000000000 [-]
	 SCS Same-Spin Energy      =      -0.2050675256000982 [Eh]
	 SCS Opposite-Spin Energy  =      -2.1832660336634699 [Eh]
	 SCS Correlation Energy    =      -2.3883335592635682 [Eh]
	 SCS Total Energy          =    -581.0168353427005741 [Eh]
	-----------------------------------------------------------

  Dipole Moment: [D]
     X:    -0.6623      Y:    -6.6419      Z:    -0.8486     Total:     6.7285

*** Psi4 exiting successfully. Buy a developer a beer!
