                               Psi4 1.4a3.dev225

  ==> Input File <==

--------------------------------------------------------------------------
#psi4
#
memory 32 gb

molecule  {
0 1
  O        1.6617960     2.5152110     0.0229320
  N       -1.9329240    -0.4005880    -0.0147920
  N        1.9545050     0.2323110     0.0113410
  N        0.2669280    -1.4301930    -0.0208730
  N       -1.3834780     1.7915450    -0.0193170
  N        2.5221760    -2.0364130     0.0734370
  C       -0.5634760    -0.3442740    -0.0026930
  C       -0.2488450     1.0144850    -0.0147620
  C        1.1380320     1.4076430     0.0031510
  C       -2.3683130     0.9036150    -0.0164120
  C        1.5275980    -1.0721200    -0.0057920
  C       -2.7322540    -1.6127190     0.0339130
  H       -3.4247340     1.1445090    -0.0228960
  H       -2.2735910    -2.3629350    -0.6109560
  H       -2.7853950    -1.9995380     1.0543320
  H       -3.7366260    -1.3828770    -0.3245450
  H        2.9273202     0.4263080     0.1153965
  H        2.1372730    -2.9631930    -0.0801050
  H        3.3349710    -1.8642740    -0.5097710
units angstrom
no_reorient  #important for SAPT in psi4, default
symmetry c1  #important for SAPT in psi4, default
}

set PROPERTIES_ORIGIN ["COM"]
properties('MP2/aug-cc-pvtz', properties = ['dipole'])
--------------------------------------------------------------------------

    Molecular point group: c1
  Charge       = 0
  Multiplicity = 1
  Basis Set: AUG-CC-PVTZ
    Blend: AUG-CC-PVTZ
  Basis Set: (AUG-CC-PVTZ AUX)
    Blend: AUG-CC-PVTZ-JKFIT

    Orbital Energies [Eh]
    ---------------------

    Doubly Occupied:

       1A    -20.521616     2A    -15.632883     3A    -15.627783
       4A    -15.610922     5A    -15.571238     6A    -15.560067
       7A    -11.396250     8A    -11.365063     9A    -11.319755
      10A    -11.307169    11A    -11.289223    12A    -11.247336
      13A     -1.391428    14A     -1.360775    15A     -1.334311
      16A     -1.220038    17A     -1.216449    18A     -1.190950
      19A     -1.029331    20A     -0.986222    21A     -0.902283
      22A     -0.883025    23A     -0.807768    24A     -0.767150
      25A     -0.744504    26A     -0.728884    27A     -0.691555
      28A     -0.670846    29A     -0.649631    30A     -0.642957
      31A     -0.625675    32A     -0.610895    33A     -0.594834
      34A     -0.578399    35A     -0.561310    36A     -0.541753
      37A     -0.493370    38A     -0.460518    39A     -0.440312
      40A     -0.430072    41A     -0.429188    42A     -0.392936
      43A     -0.298673

  @DF-RHF Final Energy:  -578.63105409252955

   => Energetics <=

    Nuclear Repulsion Energy =            693.3023324039339741
    One-Electron Energy =               -2163.6160873047124369
    Two-Electron Energy =                 891.6827008082487964
    Total Energy =                       -578.6310540925295527
  Basis Set: (AUG-CC-PVTZ AUX)
    Blend: AUG-CC-PVTZ-RI
    Molecular point group: c1

    Geometry (in Angstrom), charge = 0, multiplicity = 1:

       Center              X                  Y                   Z               Mass
    ------------   -----------------  -----------------  -----------------  -----------------
         O            1.639091044523     2.461260722255     0.020682072896    15.994914619570
         N           -1.955628955477    -0.454538277745    -0.017041927104    14.003074004430
         N            1.931800044523     0.178360722255     0.009091072896    14.003074004430
         N            0.244223044523    -1.484143277745    -0.023122927104    14.003074004430
         N           -1.406182955477     1.737594722255    -0.021566927104    14.003074004430
         N            2.499471044523    -2.090363277745     0.071187072896    14.003074004430
         C           -0.586180955477    -0.398224277745    -0.004942927104    12.000000000000
         C           -0.271549955477     0.960534722255    -0.017011927104    12.000000000000
         C            1.115327044523     1.353692722255     0.000901072896    12.000000000000
         C           -2.391017955477     0.849664722255    -0.018661927104    12.000000000000
         C            1.504893044523    -1.126070277745    -0.008041927104    12.000000000000
         C           -2.754958955477    -1.666669277745     0.031663072896    12.000000000000
         H           -3.447438955477     1.090558722255    -0.025145927104     1.007825032230
         H           -2.296295955477    -2.416885277745    -0.613205927104     1.007825032230
         H           -2.808099955477    -2.053488277745     1.052082072896     1.007825032230
         H           -3.759330955477    -1.436827277745    -0.326794927104     1.007825032230
         H            2.904615244523     0.372357722255     0.113146572896     1.007825032230
         H            2.114568044523    -3.017143277745    -0.082354927104     1.007825032230
         H            3.312266044523    -1.918224277745    -0.512020927104     1.007825032230

  Basis Set: AUG-CC-PVTZ
    Blend: AUG-CC-PVTZ
  Basis Set: (AUG-CC-PVTZ AUX)
    Blend: AUG-CC-PVTZ-JKFIT
	 Reference Energy          =    -578.6310540925295527 [Eh]
	 Singles Energy            =      -0.0000000000000000 [Eh]
	 Same-Spin Energy          =      -0.6159006357514643 [Eh]
	 Opposite-Spin Energy      =      -1.8194643929331193 [Eh]
	 Correlation Energy        =      -2.4353650286845836 [Eh]
	 Total Energy              =    -581.0664191212141532 [Eh]

	 ================> DF-SCS-MP2 Energies <==================
	-----------------------------------------------------------
	 SCS Same-Spin Scale       =       0.3333333333333333 [-]
	 SCS Opposite-Spin Scale   =       1.2000000000000000 [-]
	 SCS Same-Spin Energy      =      -0.2053002119171548 [Eh]
	 SCS Opposite-Spin Energy  =      -2.1833572715197431 [Eh]
	 SCS Correlation Energy    =      -2.3886574834368979 [Eh]
	 SCS Total Energy          =    -581.0197115759664257 [Eh]
	-----------------------------------------------------------

  Dipole Moment: [D]
     X:    -0.5452      Y:    -6.7548      Z:    -0.8538     Total:     6.8303

*** Psi4 exiting successfully. Buy a developer a beer!
