                               Psi4 1.3.2 release

  ==> Input File <==

--------------------------------------------------------------------------
#psi4
#
memory 32 gb

molecule  {
0 1
  O       -1.4697740     2.5644010     0.0803940
  N        1.9191590    -0.5831280    -0.0556370
  N       -1.9102790     0.3061000     0.0485010
  N       -0.3605617    -1.4513663    -0.0384404
  N        1.5166440     1.6409000    -0.0105650
  N       -2.6294290    -1.9169300     0.1110730
  C        0.5576980    -0.4369160    -0.0295360
  C        0.3097641     0.9355535    -0.0093312
  C       -1.0221650     1.4237120     0.0351730
  C        2.4390620     0.6894910    -0.0699270
  C       -1.5730580    -1.0260450     0.0187980
  C        2.6353690    -1.8453210    -0.0655260
  H        3.5092610     0.8590810    -0.0866130
  H        2.3729340    -2.4304260     0.8177420
  H        2.3794720    -2.4140780    -0.9605130
  H        3.7041390    -1.6305860    -0.0592400
  H       -2.8879820     0.5691470     0.1693100
  H       -2.3258040    -2.8676930    -0.0642460
  H       -3.4596940    -1.6726380    -0.4173570
units angstrom
no_reorient  #important for SAPT in psi4, default
symmetry c1  #important for SAPT in psi4, default
}

set PROPERTIES_ORIGIN ["COM"]
properties('MP2/aug-cc-pvtz', properties = ['dipole'])
--------------------------------------------------------------------------

    Molecular point group: c1
  Charge       = 0
  Multiplicity = 1
  Basis Set: AUG-CC-PVTZ
    Blend: AUG-CC-PVTZ
  Basis Set: (AUG-CC-PVTZ AUX)
    Blend: AUG-CC-PVTZ-JKFIT

    Orbital Energies [Eh]
    ---------------------

    Doubly Occupied:

       1A    -20.518882     2A    -15.634711     3A    -15.626145
       4A    -15.608676     5A    -15.568571     6A    -15.561159
       7A    -11.391871     8A    -11.361922     9A    -11.322894
      10A    -11.309069    11A    -11.290869    12A    -11.246713
      13A     -1.391046    14A     -1.359980    15A     -1.335262
      16A     -1.218330    17A     -1.216365    18A     -1.188961
      19A     -1.033703    20A     -0.987912    21A     -0.904804
      22A     -0.880915    23A     -0.809957    24A     -0.767572
      25A     -0.739655    26A     -0.729889    27A     -0.691567
      28A     -0.672383    29A     -0.651170    30A     -0.644487
      31A     -0.628379    32A     -0.610617    33A     -0.592729
      34A     -0.580552    35A     -0.560808    36A     -0.542164
      37A     -0.491487    38A     -0.459058    39A     -0.436866
      40A     -0.429711    41A     -0.427760    42A     -0.391555
      43A     -0.302669

  @DF-RHF Final Energy:  -578.63074614328025

   => Energetics <=

    Nuclear Repulsion Energy =            693.9740128290309258
    One-Electron Energy =               -2164.9699238972029889
    Two-Electron Energy =                 892.3651649248918147
    Total Energy =                       -578.6307461432802484
  Basis Set: (AUG-CC-PVTZ AUX)
    Blend: AUG-CC-PVTZ-RI
    Molecular point group: c1

    Geometry (in Angstrom), charge = 0, multiplicity = 1:

       Center              X                  Y                   Z               Mass
    ------------   -----------------  -----------------  -----------------  -----------------
         O           -1.466515797080     2.563354417870     0.080361910647    15.994914619570
         N            1.922417202920    -0.584174582130    -0.055669089353    14.003074004430
         N           -1.907020797080     0.305053417870     0.048468910647    14.003074004430
         N           -0.357303497080    -1.452412882130    -0.038472489353    14.003074004430
         N            1.519902202920     1.639853417870    -0.010597089353    14.003074004430
         N           -2.626170797080    -1.917976582130     0.111040910647    14.003074004430
         C            0.560956202920    -0.437962582130    -0.029568089353    12.000000000000
         C            0.313022302920     0.934506917870    -0.009363289353    12.000000000000
         C           -1.018906797080     1.422665417870     0.035140910647    12.000000000000
         C            2.442320202920     0.688444417870    -0.069959089353    12.000000000000
         C           -1.569799797080    -1.027091582130     0.018765910647    12.000000000000
         C            2.638627202920    -1.846367582130    -0.065558089353    12.000000000000
         H            3.512519202920     0.858034417870    -0.086645089353     1.007825032230
         H            2.376192202920    -2.431472582130     0.817709910647     1.007825032230
         H            2.382730202920    -2.415124582130    -0.960545089353     1.007825032230
         H            3.707397202920    -1.631632582130    -0.059272089353     1.007825032230
         H           -2.884723797080     0.568100417870     0.169277910647     1.007825032230
         H           -2.322545797080    -2.868739582130    -0.064278089353     1.007825032230
         H           -3.456435797080    -1.673684582130    -0.417389089353     1.007825032230

  Basis Set: AUG-CC-PVTZ
    Blend: AUG-CC-PVTZ
  Basis Set: (AUG-CC-PVTZ AUX)
    Blend: AUG-CC-PVTZ-JKFIT
	 Reference Energy          =    -578.6307461432802484 [Eh]
	 Singles Energy            =      -0.0000000000000000 [Eh]
	 Same-Spin Energy          =      -0.6156620776373830 [Eh]
	 Opposite-Spin Energy      =      -1.8191760712354923 [Eh]
	 Correlation Energy        =      -2.4348381488728754 [Eh]
	 Total Energy              =    -581.0655842921531757 [Eh]

	 ================> DF-SCS-MP2 Energies <==================
	-----------------------------------------------------------
	 SCS Same-Spin Scale       =       0.3333333333333333 [-]
	 SCS Opposite-Spin Scale   =       1.2000000000000000 [-]
	 SCS Same-Spin Energy      =      -0.2052206925457943 [Eh]
	 SCS Opposite-Spin Energy  =      -2.1830112854825905 [Eh]
	 SCS Correlation Energy    =      -2.3882319780283847 [Eh]
	 SCS Total Energy          =    -581.0189781213085780 [Eh]
	-----------------------------------------------------------

  Dipole Moment: [D]
     X:     0.1301      Y:    -6.8585      Z:    -0.9442     Total:     6.9244

*** Psi4 exiting successfully. Buy a developer a beer!
