                               Psi4 1.3.2 release

  ==> Input File <==

--------------------------------------------------------------------------
#psi4
#
memory 32 gb

molecule  {
0 1
  O       -1.4697740     2.5644010     0.0803940
  N        1.9191590    -0.5831280    -0.0556370
  N       -1.9102790     0.3061000     0.0485010
  N       -0.3427170    -1.4672350    -0.0387560
  N        1.5166440     1.6409000    -0.0105650
  N       -2.6294290    -1.9169300     0.1110730
  C        0.5576980    -0.4369160    -0.0295360
  C        0.3337570     0.9396730    -0.0094060
  C       -1.0221650     1.4237120     0.0351730
  C        2.3943386     0.7068663    -0.0691099
  C       -1.5730580    -1.0260450     0.0187980
  C        2.5908926    -1.8695493    -0.0645785
  H        3.5092610     0.8590810    -0.0866130
  H        2.3729340    -2.4304260     0.8177420
  H        2.3794720    -2.4140780    -0.9605130
  H        3.7041390    -1.6305860    -0.0592400
  H       -2.8879820     0.5691470     0.1693100
  H       -2.3258040    -2.8676930    -0.0642460
  H       -3.4596940    -1.6726380    -0.4173570
units angstrom
no_reorient  #important for SAPT in psi4, default
symmetry c1  #important for SAPT in psi4, default
}

set PROPERTIES_ORIGIN ["COM"]
properties('MP2/aug-cc-pvtz', properties = ['dipole'])
--------------------------------------------------------------------------

    Molecular point group: c1
  Charge       = 0
  Multiplicity = 1
  Basis Set: AUG-CC-PVTZ
    Blend: AUG-CC-PVTZ
  Basis Set: (AUG-CC-PVTZ AUX)
    Blend: AUG-CC-PVTZ-JKFIT

    Orbital Energies [Eh]
    ---------------------

    Doubly Occupied:

       1A    -20.519669     2A    -15.629880     3A    -15.629040
       4A    -15.611003     5A    -15.570891     6A    -15.557158
       7A    -11.396513     8A    -11.363185     9A    -11.319080
      10A    -11.307396    11A    -11.290492    12A    -11.246095
      13A     -1.391399    14A     -1.364023    15A     -1.335352
      16A     -1.222669    17A     -1.219008    18A     -1.195772
      19A     -1.030702    20A     -0.987412    21A     -0.898738
      22A     -0.883526    23A     -0.804256    24A     -0.767808
      25A     -0.743487    26A     -0.726878    27A     -0.691878
      28A     -0.676155    29A     -0.651736    30A     -0.639358
      31A     -0.627667    32A     -0.611268    33A     -0.587756
      34A     -0.570724    35A     -0.560816    36A     -0.542410
      37A     -0.495633    38A     -0.461218    39A     -0.440547
      40A     -0.430568    41A     -0.429658    42A     -0.396353
      43A     -0.301378

  @DF-RHF Final Energy:  -578.62717191068111

   => Energetics <=

    Nuclear Repulsion Energy =            694.6714430746634434
    One-Electron Energy =               -2166.3441224878874891
    Two-Electron Energy =                 893.0455075025430460
    Total Energy =                       -578.6271719106811133
  Basis Set: (AUG-CC-PVTZ AUX)
    Blend: AUG-CC-PVTZ-RI
    Molecular point group: c1

    Geometry (in Angstrom), charge = 0, multiplicity = 1:

       Center              X                  Y                   Z               Mass
    ------------   -----------------  -----------------  -----------------  -----------------
         O           -1.463289177553     2.564899339495     0.080265838044    15.994914619570
         N            1.925643822447    -0.582629660505    -0.055765161956    14.003074004430
         N           -1.903794177553     0.306598339495     0.048372838044    14.003074004430
         N           -0.336232177553    -1.466736660505    -0.038884161956    14.003074004430
         N            1.523128822447     1.641398339495    -0.010693161956    14.003074004430
         N           -2.622944177553    -1.916431660505     0.110944838044    14.003074004430
         C            0.564182822447    -0.436417660505    -0.029664161956    12.000000000000
         C            0.340241822447     0.940171339495    -0.009534161956    12.000000000000
         C           -1.015680177553     1.424210339495     0.035044838044    12.000000000000
         C            2.400823422447     0.707364639495    -0.069238061956    12.000000000000
         C           -1.566573177553    -1.025546660505     0.018669838044    12.000000000000
         C            2.597377422447    -1.869050960505    -0.064706661956    12.000000000000
         H            3.515745822447     0.859579339495    -0.086741161956     1.007825032230
         H            2.379418822447    -2.429927660505     0.817613838044     1.007825032230
         H            2.385956822447    -2.413579660505    -0.960641161956     1.007825032230
         H            3.710623822447    -1.630087660505    -0.059368161956     1.007825032230
         H           -2.881497177553     0.569645339495     0.169181838044     1.007825032230
         H           -2.319319177553    -2.867194660505    -0.064374161956     1.007825032230
         H           -3.453209177553    -1.672139660505    -0.417485161956     1.007825032230

  Basis Set: AUG-CC-PVTZ
    Blend: AUG-CC-PVTZ
  Basis Set: (AUG-CC-PVTZ AUX)
    Blend: AUG-CC-PVTZ-JKFIT
	 Reference Energy          =    -578.6271719106811133 [Eh]
	 Singles Energy            =      -0.0000000000000000 [Eh]
	 Same-Spin Energy          =      -0.6152141079110308 [Eh]
	 Opposite-Spin Energy      =      -1.8181930457687103 [Eh]
	 Correlation Energy        =      -2.4334071536797413 [Eh]
	 Total Energy              =    -581.0605790643608088 [Eh]

	 ================> DF-SCS-MP2 Energies <==================
	-----------------------------------------------------------
	 SCS Same-Spin Scale       =       0.3333333333333333 [-]
	 SCS Opposite-Spin Scale   =       1.2000000000000000 [-]
	 SCS Same-Spin Energy      =      -0.2050713693036769 [Eh]
	 SCS Opposite-Spin Energy  =      -2.1818316549224521 [Eh]
	 SCS Correlation Energy    =      -2.3869030242261289 [Eh]
	 SCS Total Energy          =    -581.0140749349072848 [Eh]
	-----------------------------------------------------------

  Dipole Moment: [D]
     X:    -0.0669      Y:    -6.7628      Z:    -0.9364     Total:     6.8277

*** Psi4 exiting successfully. Buy a developer a beer!
