                               Psi4 1.3.2 release

  ==> Input File <==

--------------------------------------------------------------------------
#psi4
#
memory 32 gb

molecule  {
0 1
  O       -1.4697740     2.5644010     0.0803940
  N        1.9191590    -0.5831280    -0.0556370
  N       -1.9102790     0.3061000     0.0485010
  N       -0.3427170    -1.4672350    -0.0387560
  N        1.5166440     1.6409000    -0.0105650
  N       -2.6294290    -1.9169300     0.1110730
  C        0.5576980    -0.4369160    -0.0295360
  C        0.3337570     0.9396730    -0.0094060
  C       -0.9491576     1.2376595     0.0277972
  C        2.4390620     0.6894910    -0.0699270
  C       -1.5730580    -1.0260450     0.0187980
  C        2.6353690    -1.8453210    -0.0655260
  H        3.5092610     0.8590810    -0.0866130
  H        2.3729340    -2.4304260     0.8177420
  H        2.3794720    -2.4140780    -0.9605130
  H        3.7041390    -1.6305860    -0.0592400
  H       -2.8879820     0.5691470     0.1693100
  H       -2.3258040    -2.8676930    -0.0642460
  H       -3.4596940    -1.6726380    -0.4173570
units angstrom
no_reorient  #important for SAPT in psi4, default
symmetry c1  #important for SAPT in psi4, default
}

set PROPERTIES_ORIGIN ["COM"]
properties('MP2/aug-cc-pvtz', properties = ['dipole'])
--------------------------------------------------------------------------

    Molecular point group: c1
  Charge       = 0
  Multiplicity = 1
  Basis Set: AUG-CC-PVTZ
    Blend: AUG-CC-PVTZ
  Basis Set: (AUG-CC-PVTZ AUX)
    Blend: AUG-CC-PVTZ-JKFIT

    Orbital Energies [Eh]
    ---------------------

    Doubly Occupied:

       1A    -20.469360     2A    -15.649239     3A    -15.644896
       4A    -15.620888     5A    -15.589578     6A    -15.570907
       7A    -11.407592     8A    -11.345145     9A    -11.338305
      10A    -11.323824    11A    -11.298589    12A    -11.250355
      13A     -1.400243    14A     -1.362319    15A     -1.279884
      16A     -1.231455    17A     -1.205955    18A     -1.184946
      19A     -1.059492    20A     -1.000654    21A     -0.926720
      22A     -0.898859    23A     -0.822293    24A     -0.777191
      25A     -0.773956    26A     -0.743631    27A     -0.701100
      28A     -0.685541    29A     -0.661638    30A     -0.651917
      31A     -0.641067    32A     -0.615805    33A     -0.590082
      34A     -0.571823    35A     -0.528906    36A     -0.522344
      37A     -0.500052    38A     -0.468385    39A     -0.436475
      40A     -0.412819    41A     -0.386621    42A     -0.383870
      43A     -0.309966

  @DF-RHF Final Energy:  -578.56539307756884

   => Energetics <=

    Nuclear Repulsion Energy =            695.6554621265330525
    One-Electron Energy =               -2167.9523344864028331
    Two-Electron Energy =                 893.7314792823008247
    Total Energy =                       -578.5653930775688423
  Basis Set: (AUG-CC-PVTZ AUX)
    Blend: AUG-CC-PVTZ-RI
    Molecular point group: c1

    Geometry (in Angstrom), charge = 0, multiplicity = 1:

       Center              X                  Y                   Z               Mass
    ------------   -----------------  -----------------  -----------------  -----------------
         O           -1.475081415120     2.577926893610     0.080930332397    15.994914619570
         N            1.913851584880    -0.569602106390    -0.055100667603    14.003074004430
         N           -1.915586415120     0.319625893610     0.049037332397    14.003074004430
         N           -0.348024415120    -1.453709106390    -0.038219667603    14.003074004430
         N            1.511336584880     1.654425893610    -0.010028667603    14.003074004430
         N           -2.634736415120    -1.903404106390     0.111609332397    14.003074004430
         C            0.552390584880    -0.423390106390    -0.028999667603    12.000000000000
         C            0.328449584880     0.953198893610    -0.008869667603    12.000000000000
         C           -0.954465015120     1.251185393610     0.028333532397    12.000000000000
         C            2.433754584880     0.703016893610    -0.069390667603    12.000000000000
         C           -1.578365415120    -1.012519106390     0.019334332397    12.000000000000
         C            2.630061584880    -1.831795106390    -0.064989667603    12.000000000000
         H            3.503953584880     0.872606893610    -0.086076667603     1.007825032230
         H            2.367626584880    -2.416900106390     0.818278332397     1.007825032230
         H            2.374164584880    -2.400552106390    -0.959976667603     1.007825032230
         H            3.698831584880    -1.617060106390    -0.058703667603     1.007825032230
         H           -2.893289415120     0.582672893610     0.169846332397     1.007825032230
         H           -2.331111415120    -2.854167106390    -0.063709667603     1.007825032230
         H           -3.465001415120    -1.659112106390    -0.416820667603     1.007825032230

  Basis Set: AUG-CC-PVTZ
    Blend: AUG-CC-PVTZ
  Basis Set: (AUG-CC-PVTZ AUX)
    Blend: AUG-CC-PVTZ-JKFIT
	 Reference Energy          =    -578.5653930775688423 [Eh]
	 Singles Energy            =      -0.0000000000000000 [Eh]
	 Same-Spin Energy          =      -0.6196092510238013 [Eh]
	 Opposite-Spin Energy      =      -1.8262269407389216 [Eh]
	 Correlation Energy        =      -2.4458361917627229 [Eh]
	 Total Energy              =    -581.0112292693315794 [Eh]

	 ================> DF-SCS-MP2 Energies <==================
	-----------------------------------------------------------
	 SCS Same-Spin Scale       =       0.3333333333333333 [-]
	 SCS Opposite-Spin Scale   =       1.2000000000000000 [-]
	 SCS Same-Spin Energy      =      -0.2065364170079337 [Eh]
	 SCS Opposite-Spin Energy  =      -2.1914723288867060 [Eh]
	 SCS Correlation Energy    =      -2.3980087458946397 [Eh]
	 SCS Total Energy          =    -580.9634018234635278 [Eh]
	-----------------------------------------------------------

  Dipole Moment: [D]
     X:     0.7583      Y:    -8.6098      Z:    -0.9919     Total:     8.6998

*** Psi4 exiting successfully. Buy a developer a beer!
