                               Psi4 1.3.2 release

  ==> Input File <==

--------------------------------------------------------------------------
#psi4
#
memory 32 gb

molecule  {
0 1
  O       -1.4697740     2.5644010     0.0803940
  N        1.9302836    -0.5876178    -0.0557780
  N       -1.9102790     0.3061000     0.0485010
  N       -0.3427170    -1.4672350    -0.0387560
  N        1.5166440     1.6409000    -0.0105650
  N       -2.6294290    -1.9169300     0.1110730
  C        0.5576980    -0.4369160    -0.0295360
  C        0.3337570     0.9396730    -0.0094060
  C       -1.0221650     1.4237120     0.0351730
  C        2.4390620     0.6894910    -0.0699270
  C       -1.5730580    -1.0260450     0.0187980
  C        2.6353690    -1.8453210    -0.0655260
  H        3.5107008     0.8497344    -0.0865857
  H        2.3729340    -2.4304260     0.8177420
  H        2.3794720    -2.4140780    -0.9605130
  H        3.7041390    -1.6305860    -0.0592400
  H       -2.8879820     0.5691470     0.1693100
  H       -2.3258040    -2.8676930    -0.0642460
  H       -3.4596940    -1.6726380    -0.4173570
units angstrom
no_reorient  #important for SAPT in psi4, default
symmetry c1  #important for SAPT in psi4, default
}

set PROPERTIES_ORIGIN ["COM"]
properties('MP2/aug-cc-pvtz', properties = ['dipole'])
--------------------------------------------------------------------------

    Molecular point group: c1
  Charge       = 0
  Multiplicity = 1
  Basis Set: AUG-CC-PVTZ
    Blend: AUG-CC-PVTZ
  Basis Set: (AUG-CC-PVTZ AUX)
    Blend: AUG-CC-PVTZ-JKFIT

    Orbital Energies [Eh]
    ---------------------

    Doubly Occupied:

       1A    -20.521347     2A    -15.632591     3A    -15.629699
       4A    -15.610795     5A    -15.571213     6A    -15.559652
       7A    -11.396178     8A    -11.364779     9A    -11.320197
      10A    -11.308201    11A    -11.288366    12A    -11.247962
      13A     -1.390683    14A     -1.359439    15A     -1.333975
      16A     -1.219358    17A     -1.216237    18A     -1.192011
      19A     -1.028867    20A     -0.986792    21A     -0.901569
      22A     -0.882294    23A     -0.807965    24A     -0.766738
      25A     -0.741052    26A     -0.729167    27A     -0.692337
      28A     -0.670914    29A     -0.651426    30A     -0.641902
      31A     -0.626991    32A     -0.611498    33A     -0.594059
      34A     -0.576167    35A     -0.560304    36A     -0.541443
      37A     -0.494334    38A     -0.459440    39A     -0.440244
      40A     -0.429568    41A     -0.429038    42A     -0.392691
      43A     -0.298431

  @DF-RHF Final Energy:  -578.63008156146543

   => Energetics <=

    Nuclear Repulsion Energy =            693.2347179114592564
    One-Electron Energy =               -2163.4937766978218860
    Two-Electron Energy =                 891.6289772248971985
    Total Energy =                       -578.6300815614654312
  Basis Set: (AUG-CC-PVTZ AUX)
    Blend: AUG-CC-PVTZ-RI
    Molecular point group: c1

    Geometry (in Angstrom), charge = 0, multiplicity = 1:

       Center              X                  Y                   Z               Mass
    ------------   -----------------  -----------------  -----------------  -----------------
         O           -1.470726410269     2.564839088943     0.080405916871    15.994914619570
         N            1.929331189731    -0.587179711057    -0.055766083129    14.003074004430
         N           -1.911231410269     0.306538088943     0.048512916871    14.003074004430
         N           -0.343669410269    -1.466796911057    -0.038744083129    14.003074004430
         N            1.515691589731     1.641338088943    -0.010553083129    14.003074004430
         N           -2.630381410269    -1.916491911057     0.111084916871    14.003074004430
         C            0.556745589731    -0.436477911057    -0.029524083129    12.000000000000
         C            0.332804589731     0.940111088943    -0.009394083129    12.000000000000
         C           -1.023117410269     1.424150088943     0.035184916871    12.000000000000
         C            2.438109589731     0.689929088943    -0.069915083129    12.000000000000
         C           -1.574010410269    -1.025606911057     0.018809916871    12.000000000000
         C            2.634416589731    -1.844882911057    -0.065514083129    12.000000000000
         H            3.509748389731     0.850172488943    -0.086573783129     1.007825032230
         H            2.371981589731    -2.429987911057     0.817753916871     1.007825032230
         H            2.378519589731    -2.413639911057    -0.960501083129     1.007825032230
         H            3.703186589731    -1.630147911057    -0.059228083129     1.007825032230
         H           -2.888934410269     0.569585088943     0.169321916871     1.007825032230
         H           -2.326756410269    -2.867254911057    -0.064234083129     1.007825032230
         H           -3.460646410269    -1.672199911057    -0.417345083129     1.007825032230

  Basis Set: AUG-CC-PVTZ
    Blend: AUG-CC-PVTZ
  Basis Set: (AUG-CC-PVTZ AUX)
    Blend: AUG-CC-PVTZ-JKFIT
	 Reference Energy          =    -578.6300815614654312 [Eh]
	 Singles Energy            =      -0.0000000000000000 [Eh]
	 Same-Spin Energy          =      -0.6161747937739132 [Eh]
	 Opposite-Spin Energy      =      -1.8200603593200801 [Eh]
	 Correlation Energy        =      -2.4362351530939934 [Eh]
	 Total Energy              =    -581.0663167145594343 [Eh]

	 ================> DF-SCS-MP2 Energies <==================
	-----------------------------------------------------------
	 SCS Same-Spin Scale       =       0.3333333333333333 [-]
	 SCS Opposite-Spin Scale   =       1.2000000000000000 [-]
	 SCS Same-Spin Energy      =      -0.2053915979246377 [Eh]
	 SCS Opposite-Spin Energy  =      -2.1840724311840960 [Eh]
	 SCS Correlation Energy    =      -2.3894640291087339 [Eh]
	 SCS Total Energy          =    -581.0195455905741255 [Eh]
	-----------------------------------------------------------

  Dipole Moment: [D]
     X:    -0.0496      Y:    -6.7727      Z:    -0.9367     Total:     6.8374

*** Psi4 exiting successfully. Buy a developer a beer!
