                               Psi4 1.3.2 release

  ==> Input File <==

--------------------------------------------------------------------------
#psi4
#
memory 32 gb

molecule  {
0 1
  O       -1.4697740     2.5644010     0.0803940
  N        1.9191590    -0.5831280    -0.0556370
  N       -1.9102790     0.3061000     0.0485010
  N       -0.3427170    -1.4672350    -0.0387560
  N        1.5249939     1.6489160    -0.0104209
  N       -2.6294290    -1.9169300     0.1110730
  C        0.5576980    -0.4369160    -0.0295360
  C        0.3337570     0.9396730    -0.0094060
  C       -1.0221650     1.4237120     0.0351730
  C        2.4390620     0.6894910    -0.0699270
  C       -1.5730580    -1.0260450     0.0187980
  C        2.6353690    -1.8453210    -0.0655260
  H        3.5077479     0.8684068    -0.0861974
  H        2.3729340    -2.4304260     0.8177420
  H        2.3794720    -2.4140780    -0.9605130
  H        3.7041390    -1.6305860    -0.0592400
  H       -2.8879820     0.5691470     0.1693100
  H       -2.3258040    -2.8676930    -0.0642460
  H       -3.4596940    -1.6726380    -0.4173570
units angstrom
no_reorient  #important for SAPT in psi4, default
symmetry c1  #important for SAPT in psi4, default
}

set PROPERTIES_ORIGIN ["COM"]
properties('MP2/aug-cc-pvtz', properties = ['dipole'])
--------------------------------------------------------------------------

    Molecular point group: c1
  Charge       = 0
  Multiplicity = 1
  Basis Set: AUG-CC-PVTZ
    Blend: AUG-CC-PVTZ
  Basis Set: (AUG-CC-PVTZ AUX)
    Blend: AUG-CC-PVTZ-JKFIT

    Orbital Energies [Eh]
    ---------------------

    Doubly Occupied:

       1A    -20.520610     2A    -15.633001     3A    -15.629382
       4A    -15.610922     5A    -15.571214     6A    -15.560753
       7A    -11.396407     8A    -11.364170     9A    -11.319980
      10A    -11.307674    11A    -11.289511    12A    -11.247529
      13A     -1.390464    14A     -1.360084    15A     -1.333880
      16A     -1.219205    17A     -1.215907    18A     -1.189583
      19A     -1.029939    20A     -0.986066    21A     -0.901264
      22A     -0.882430    23A     -0.807623    24A     -0.766689
      25A     -0.740595    26A     -0.729414    27A     -0.692222
      28A     -0.671124    29A     -0.649817    30A     -0.642399
      31A     -0.626707    32A     -0.610372    33A     -0.590852
      34A     -0.578601    35A     -0.560545    36A     -0.541608
      37A     -0.494004    38A     -0.459392    39A     -0.439864
      40A     -0.430001    41A     -0.429150    42A     -0.391890
      43A     -0.299330

  @DF-RHF Final Energy:  -578.63040051139262

   => Energetics <=

    Nuclear Repulsion Energy =            693.1096848295288737
    One-Electron Energy =               -2163.2558174856612823
    Two-Electron Energy =                 891.5157321447398999
    Total Energy =                       -578.6304005113926223
  Basis Set: (AUG-CC-PVTZ AUX)
    Blend: AUG-CC-PVTZ-RI
    Molecular point group: c1

    Geometry (in Angstrom), charge = 0, multiplicity = 1:

       Center              X                  Y                   Z               Mass
    ------------   -----------------  -----------------  -----------------  -----------------
         O           -1.470472993004     2.563664169459     0.080379359979    15.994914619570
         N            1.918460006996    -0.583864830541    -0.055651640021    14.003074004430
         N           -1.910977993004     0.305363169459     0.048486359979    14.003074004430
         N           -0.343415993004    -1.467971830541    -0.038770640021    14.003074004430
         N            1.524294906996     1.648179169459    -0.010435540021    14.003074004430
         N           -2.630127993004    -1.917666830541     0.111058359979    14.003074004430
         C            0.556999006996    -0.437652830541    -0.029550640021    12.000000000000
         C            0.333058006996     0.938936169459    -0.009420640021    12.000000000000
         C           -1.022863993004     1.422975169459     0.035158359979    12.000000000000
         C            2.438363006996     0.688754169459    -0.069941640021    12.000000000000
         C           -1.573756993004    -1.026781830541     0.018783359979    12.000000000000
         C            2.634670006996    -1.846057830541    -0.065540640021    12.000000000000
         H            3.507048906996     0.867669969459    -0.086212040021     1.007825032230
         H            2.372235006996    -2.431162830541     0.817727359979     1.007825032230
         H            2.378773006996    -2.414814830541    -0.960527640021     1.007825032230
         H            3.703440006996    -1.631322830541    -0.059254640021     1.007825032230
         H           -2.888680993004     0.568410169459     0.169295359979     1.007825032230
         H           -2.326502993004    -2.868429830541    -0.064260640021     1.007825032230
         H           -3.460392993004    -1.673374830541    -0.417371640021     1.007825032230

  Basis Set: AUG-CC-PVTZ
    Blend: AUG-CC-PVTZ
  Basis Set: (AUG-CC-PVTZ AUX)
    Blend: AUG-CC-PVTZ-JKFIT
	 Reference Energy          =    -578.6304005113926223 [Eh]
	 Singles Energy            =      -0.0000000000000000 [Eh]
	 Same-Spin Energy          =      -0.6159550887303351 [Eh]
	 Opposite-Spin Energy      =      -1.8199022972513792 [Eh]
	 Correlation Energy        =      -2.4358573859817145 [Eh]
	 Total Energy              =    -581.0662578973743848 [Eh]

	 ================> DF-SCS-MP2 Energies <==================
	-----------------------------------------------------------
	 SCS Same-Spin Scale       =       0.3333333333333333 [-]
	 SCS Opposite-Spin Scale   =       1.2000000000000000 [-]
	 SCS Same-Spin Energy      =      -0.2053183629101117 [Eh]
	 SCS Opposite-Spin Energy  =      -2.1838827567016548 [Eh]
	 SCS Correlation Energy    =      -2.3892011196117666 [Eh]
	 SCS Total Energy          =    -581.0196016310044342 [Eh]
	-----------------------------------------------------------

  Dipole Moment: [D]
     X:    -0.0281      Y:    -6.8074      Z:    -0.9373     Total:     6.8716

*** Psi4 exiting successfully. Buy a developer a beer!
