                               Psi4 1.3.2 release

  ==> Input File <==

--------------------------------------------------------------------------
#psi4
#
memory 32 gb

molecule  {
0 1
  O       -1.4498041     2.5720640     0.0796996
  N        1.9191590    -0.5831280    -0.0556370
  N       -1.8906673     0.2907789     0.0473028
  N       -0.3427170    -1.4672350    -0.0387560
  N        1.5166440     1.6409000    -0.0105650
  N       -2.6294290    -1.9169300     0.1110730
  C        0.5576980    -0.4369160    -0.0295360
  C        0.3337570     0.9396730    -0.0094060
  C       -1.0221650     1.4237120     0.0351730
  C        2.4390620     0.6894910    -0.0699270
  C       -1.5730580    -1.0260450     0.0187980
  C        2.6353690    -1.8453210    -0.0655260
  H        3.5092610     0.8590810    -0.0866130
  H        2.3729340    -2.4304260     0.8177420
  H        2.3794720    -2.4140780    -0.9605130
  H        3.7041390    -1.6305860    -0.0592400
  H       -2.8879820     0.5691470     0.1693100
  H       -2.3258040    -2.8676930    -0.0642460
  H       -3.4596940    -1.6726380    -0.4173570
units angstrom
no_reorient  #important for SAPT in psi4, default
symmetry c1  #important for SAPT in psi4, default
}

set PROPERTIES_ORIGIN ["COM"]
properties('MP2/aug-cc-pvtz', properties = ['dipole'])
--------------------------------------------------------------------------

    Molecular point group: c1
  Charge       = 0
  Multiplicity = 1
  Basis Set: AUG-CC-PVTZ
    Blend: AUG-CC-PVTZ
  Basis Set: (AUG-CC-PVTZ AUX)
    Blend: AUG-CC-PVTZ-JKFIT

    Orbital Energies [Eh]
    ---------------------

    Doubly Occupied:

       1A    -20.522775     2A    -15.632425     3A    -15.631957
       4A    -15.610496     5A    -15.569027     6A    -15.558635
       7A    -11.394199     8A    -11.365332     9A    -11.318027
      10A    -11.306776    11A    -11.288756    12A    -11.245664
      13A     -1.392048    14A     -1.360138    15A     -1.336642
      16A     -1.220781    17A     -1.215396    18A     -1.189689
      19A     -1.029681    20A     -0.985871    21A     -0.902551
      22A     -0.883131    23A     -0.808572    24A     -0.766075
      25A     -0.737000    26A     -0.730576    27A     -0.692256
      28A     -0.671078    29A     -0.650367    30A     -0.640576
      31A     -0.627505    32A     -0.611491    33A     -0.591914
      34A     -0.577942    35A     -0.560975    36A     -0.541407
      37A     -0.492493    38A     -0.459610    39A     -0.440793
      40A     -0.430265    41A     -0.428211    42A     -0.391786
      43A     -0.297693

  @DF-RHF Final Energy:  -578.62884488774080

   => Energetics <=

    Nuclear Repulsion Energy =            693.9857574169819827
    One-Electron Energy =               -2165.0120441246017435
    Two-Electron Energy =                 892.3974418198790772
    Total Energy =                       -578.6288448877407973
  Basis Set: (AUG-CC-PVTZ AUX)
    Blend: AUG-CC-PVTZ-RI
    Molecular point group: c1

    Geometry (in Angstrom), charge = 0, multiplicity = 1:

       Center              X                  Y                   Z               Mass
    ------------   -----------------  -----------------  -----------------  -----------------
         O           -1.453402807849     2.572621331182     0.079868657529    15.994914619570
         N            1.915560292151    -0.582570668818    -0.055467942471    14.003074004430
         N           -1.894266007849     0.291336231182     0.047471857529    14.003074004430
         N           -0.346315707849    -1.466677668818    -0.038586942471    14.003074004430
         N            1.513045292151     1.641457331182    -0.010395942471    14.003074004430
         N           -2.633027707849    -1.916372668818     0.111242057529    14.003074004430
         C            0.554099292151    -0.436358668818    -0.029366942471    12.000000000000
         C            0.330158292151     0.940230331182    -0.009236942471    12.000000000000
         C           -1.025763707849     1.424269331182     0.035342057529    12.000000000000
         C            2.435463292151     0.690048331182    -0.069757942471    12.000000000000
         C           -1.576656707849    -1.025487668818     0.018967057529    12.000000000000
         C            2.631770292151    -1.844763668818    -0.065356942471    12.000000000000
         H            3.505662292151     0.859638331182    -0.086443942471     1.007825032230
         H            2.369335292151    -2.429868668818     0.817911057529     1.007825032230
         H            2.375873292151    -2.413520668818    -0.960343942471     1.007825032230
         H            3.700540292151    -1.630028668818    -0.059070942471     1.007825032230
         H           -2.891580707849     0.569704331182     0.169479057529     1.007825032230
         H           -2.329402707849    -2.867135668818    -0.064076942471     1.007825032230
         H           -3.463292707849    -1.672080668818    -0.417187942471     1.007825032230

  Basis Set: AUG-CC-PVTZ
    Blend: AUG-CC-PVTZ
  Basis Set: (AUG-CC-PVTZ AUX)
    Blend: AUG-CC-PVTZ-JKFIT
	 Reference Energy          =    -578.6288448877407973 [Eh]
	 Singles Energy            =      -0.0000000000000000 [Eh]
	 Same-Spin Energy          =      -0.6164881340503109 [Eh]
	 Opposite-Spin Energy      =      -1.8202812322038355 [Eh]
	 Correlation Energy        =      -2.4367693662541465 [Eh]
	 Total Energy              =    -581.0656142539949087 [Eh]

	 ================> DF-SCS-MP2 Energies <==================
	-----------------------------------------------------------
	 SCS Same-Spin Scale       =       0.3333333333333333 [-]
	 SCS Opposite-Spin Scale   =       1.2000000000000000 [-]
	 SCS Same-Spin Energy      =      -0.2054960446834370 [Eh]
	 SCS Opposite-Spin Energy  =      -2.1843374786446024 [Eh]
	 SCS Correlation Energy    =      -2.3898335233280394 [Eh]
	 SCS Total Energy          =    -581.0186784110688905 [Eh]
	-----------------------------------------------------------

  Dipole Moment: [D]
     X:    -0.1055      Y:    -6.7361      Z:    -0.9368     Total:     6.8018

*** Psi4 exiting successfully. Buy a developer a beer!
