                               Psi4 1.3.2 release

  ==> Input File <==

--------------------------------------------------------------------------
#psi4
#
memory 32 gb

molecule  {
0 1
  O       -1.4697740     2.5644010     0.0803940
  N        1.9191590    -0.5831280    -0.0556370
  N       -1.9102790     0.3061000     0.0485010
  N       -0.3336915    -1.4750520    -0.0389128
  N        1.5166440     1.6409000    -0.0105650
  N       -2.6294290    -1.9169300     0.1110730
  C        0.5576980    -0.4369160    -0.0295360
  C        0.3457795     0.9415756    -0.0094457
  C       -1.0221650     1.4237120     0.0351730
  C        2.4390620     0.6894910    -0.0699270
  C       -1.5730580    -1.0260450     0.0187980
  C        2.6353690    -1.8453210    -0.0655260
  H        3.5092610     0.8590810    -0.0866130
  H        2.3729340    -2.4304260     0.8177420
  H        2.3794720    -2.4140780    -0.9605130
  H        3.7041390    -1.6305860    -0.0592400
  H       -2.8879820     0.5691470     0.1693100
  H       -2.3258040    -2.8676930    -0.0642460
  H       -3.4596940    -1.6726380    -0.4173570
units angstrom
no_reorient  #important for SAPT in psi4, default
symmetry c1  #important for SAPT in psi4, default
}

set PROPERTIES_ORIGIN ["COM"]
properties('MP2/aug-cc-pvtz', properties = ['dipole'])
--------------------------------------------------------------------------

    Molecular point group: c1
  Charge       = 0
  Multiplicity = 1
  Basis Set: AUG-CC-PVTZ
    Blend: AUG-CC-PVTZ
  Basis Set: (AUG-CC-PVTZ AUX)
    Blend: AUG-CC-PVTZ-JKFIT

    Orbital Energies [Eh]
    ---------------------

    Doubly Occupied:

       1A    -20.521863     2A    -15.631979     3A    -15.630833
       4A    -15.611683     5A    -15.571979     6A    -15.558793
       7A    -11.398081     8A    -11.365355     9A    -11.317288
      10A    -11.306363    11A    -11.288648    12A    -11.247101
      13A     -1.390600    14A     -1.360947    15A     -1.333451
      16A     -1.219586    17A     -1.216315    18A     -1.191154
      19A     -1.027330    20A     -0.985788    21A     -0.900189
      22A     -0.882700    23A     -0.806947    24A     -0.766511
      25A     -0.741895    26A     -0.729058    27A     -0.692471
      28A     -0.670555    29A     -0.648935    30A     -0.640970
      31A     -0.625703    32A     -0.610441    33A     -0.593855
      34A     -0.577510    35A     -0.561218    36A     -0.541309
      37A     -0.494817    38A     -0.459380    39A     -0.441520
      40A     -0.429700    41A     -0.428514    42A     -0.393286
      43A     -0.296257

  @DF-RHF Final Energy:  -578.62958487397918

   => Energetics <=

    Nuclear Repulsion Energy =            693.2029434449522114
    One-Electron Energy =               -2163.4473022497627426
    Two-Electron Energy =                 891.6147739308312339
    Total Energy =                       -578.6295848739791836
  Basis Set: (AUG-CC-PVTZ AUX)
    Blend: AUG-CC-PVTZ-RI
    Molecular point group: c1

    Geometry (in Angstrom), charge = 0, multiplicity = 1:

       Center              X                  Y                   Z               Mass
    ------------   -----------------  -----------------  -----------------  -----------------
         O           -1.471413564056     2.564925964327     0.080410310061    15.994914619570
         N            1.917519435944    -0.582603035673    -0.055620689939    14.003074004430
         N           -1.911918564056     0.306624964327     0.048517310061    14.003074004430
         N           -0.335331064056    -1.474527035673    -0.038896489939    14.003074004430
         N            1.515004435944     1.641424964327    -0.010548689939    14.003074004430
         N           -2.631068564056    -1.916405035673     0.111089310061    14.003074004430
         C            0.556058435944    -0.436391035673    -0.029519689939    12.000000000000
         C            0.344139935944     0.942100564327    -0.009429389939    12.000000000000
         C           -1.023804564056     1.424236964327     0.035189310061    12.000000000000
         C            2.437422435944     0.690015964327    -0.069910689939    12.000000000000
         C           -1.574697564056    -1.025520035673     0.018814310061    12.000000000000
         C            2.633729435944    -1.844796035673    -0.065509689939    12.000000000000
         H            3.507621435944     0.859605964327    -0.086596689939     1.007825032230
         H            2.371294435944    -2.429901035673     0.817758310061     1.007825032230
         H            2.377832435944    -2.413553035673    -0.960496689939     1.007825032230
         H            3.702499435944    -1.630061035673    -0.059223689939     1.007825032230
         H           -2.889621564056     0.569671964327     0.169326310061     1.007825032230
         H           -2.327443564056    -2.867168035673    -0.064229689939     1.007825032230
         H           -3.461333564056    -1.672113035673    -0.417340689939     1.007825032230

  Basis Set: AUG-CC-PVTZ
    Blend: AUG-CC-PVTZ
  Basis Set: (AUG-CC-PVTZ AUX)
    Blend: AUG-CC-PVTZ-JKFIT
	 Reference Energy          =    -578.6295848739791836 [Eh]
	 Singles Energy            =      -0.0000000000000000 [Eh]
	 Same-Spin Energy          =      -0.6163162800587902 [Eh]
	 Opposite-Spin Energy      =      -1.8202010516951677 [Eh]
	 Correlation Energy        =      -2.4365173317539579 [Eh]
	 Total Energy              =    -581.0661022057331593 [Eh]

	 ================> DF-SCS-MP2 Energies <==================
	-----------------------------------------------------------
	 SCS Same-Spin Scale       =       0.3333333333333333 [-]
	 SCS Opposite-Spin Scale   =       1.2000000000000000 [-]
	 SCS Same-Spin Energy      =      -0.2054387600195967 [Eh]
	 SCS Opposite-Spin Energy  =      -2.1842412620342011 [Eh]
	 SCS Correlation Energy    =      -2.3896800220537977 [Eh]
	 SCS Total Energy          =    -581.0192648960329507 [Eh]
	-----------------------------------------------------------

  Dipole Moment: [D]
     X:    -0.0814      Y:    -6.7575      Z:    -0.9344     Total:     6.8223

*** Psi4 exiting successfully. Buy a developer a beer!
