                               Psi4 1.4a3.dev225

  ==> Input File <==

--------------------------------------------------------------------------
#psi4
#
memory 32 gb

molecule  {
0 1
  O        1.6617960     2.5152110     0.0229320
  N       -1.9329240    -0.4005880    -0.0147920
  N        1.9545050     0.2323110     0.0113410
  N        0.2669280    -1.4301930    -0.0208730
  N       -1.3834780     1.7915450    -0.0193170
  N        2.5221760    -2.0364130     0.0734370
  C       -0.5634760    -0.3442740    -0.0026930
  C       -0.2488450     1.0144850    -0.0147620
  C        1.1380320     1.4076430     0.0031510
  C       -2.3683130     0.9036150    -0.0164120
  C        1.5275980    -1.0721200    -0.0057920
  C       -2.7322540    -1.6127190     0.0339130
  H       -3.4247340     1.1445090    -0.0228960
  H       -2.2735910    -2.3629350    -0.6109560
  H       -2.7853950    -1.9995380     1.0543320
  H       -3.7366260    -1.3828770    -0.3245450
  H        2.9468270     0.4301980     0.1174830
  H        2.1296903    -2.9814509    -0.0831298
  H        3.3349710    -1.8642740    -0.5097710
units angstrom
no_reorient  #important for SAPT in psi4, default
symmetry c1  #important for SAPT in psi4, default
}

set PROPERTIES_ORIGIN ["COM"]
properties('MP2/aug-cc-pvtz', properties = ['dipole'])
--------------------------------------------------------------------------

    Molecular point group: c1
  Charge       = 0
  Multiplicity = 1
  Basis Set: AUG-CC-PVTZ
    Blend: AUG-CC-PVTZ
  Basis Set: (AUG-CC-PVTZ AUX)
    Blend: AUG-CC-PVTZ-JKFIT

    Orbital Energies [Eh]
    ---------------------

    Doubly Occupied:

       1A    -20.521409     2A    -15.632741     3A    -15.629406
       4A    -15.612467     5A    -15.570988     6A    -15.559952
       7A    -11.396013     8A    -11.364927     9A    -11.319583
      10A    -11.307042    11A    -11.289141    12A    -11.247215
      13A     -1.390739    14A     -1.360581    15A     -1.333322
      16A     -1.217312    17A     -1.215099    18A     -1.190343
      19A     -1.028814    20A     -0.985983    21A     -0.901201
      22A     -0.881079    23A     -0.807069    24A     -0.766249
      25A     -0.741152    26A     -0.727783    27A     -0.687532
      28A     -0.670522    29A     -0.648959    30A     -0.642122
      31A     -0.625220    32A     -0.610625    33A     -0.594325
      34A     -0.578285    35A     -0.561069    36A     -0.541462
      37A     -0.493090    38A     -0.460017    39A     -0.440125
      40A     -0.429663    41A     -0.429015    42A     -0.392789
      43A     -0.298493

  @DF-RHF Final Energy:  -578.62957998378442

   => Energetics <=

    Nuclear Repulsion Energy =            693.0612998025746947
    One-Electron Energy =               -2163.1799141000728923
    Two-Electron Energy =                 891.4890343137137734
    Total Energy =                       -578.6295799837844243
  Basis Set: (AUG-CC-PVTZ AUX)
    Blend: AUG-CC-PVTZ-RI
    Molecular point group: c1

    Geometry (in Angstrom), charge = 0, multiplicity = 1:

       Center              X                  Y                   Z               Mass
    ------------   -----------------  -----------------  -----------------  -----------------
         O            1.639018240464     2.461348447236     0.020687801802    15.994914619570
         N           -1.955701759536    -0.454450552764    -0.017036198198    14.003074004430
         N            1.931727240464     0.178448447236     0.009096801802    14.003074004430
         N            0.244150240464    -1.484055552764    -0.023117198198    14.003074004430
         N           -1.406255759536     1.737682447236    -0.021561198198    14.003074004430
         N            2.499398240464    -2.090275552764     0.071192801802    14.003074004430
         C           -0.586253759536    -0.398136552764    -0.004937198198    12.000000000000
         C           -0.271622759536     0.960622447236    -0.017006198198    12.000000000000
         C            1.115254240464     1.353780447236     0.000906801802    12.000000000000
         C           -2.391090759536     0.849752447236    -0.018656198198    12.000000000000
         C            1.504820240464    -1.125982552764    -0.008036198198    12.000000000000
         C           -2.755031759536    -1.666581552764     0.031668801802    12.000000000000
         H           -3.447511759536     1.090646447236    -0.025140198198     1.007825032230
         H           -2.296368759536    -2.416797552764    -0.613200198198     1.007825032230
         H           -2.808172759536    -2.053400552764     1.052087801802     1.007825032230
         H           -3.759403759536    -1.436739552764    -0.326789198198     1.007825032230
         H            2.924049240464     0.376335447236     0.115238801802     1.007825032230
         H            2.106912540464    -3.035313452764    -0.085373998198     1.007825032230
         H            3.312193240464    -1.918136552764    -0.512015198198     1.007825032230

  Basis Set: AUG-CC-PVTZ
    Blend: AUG-CC-PVTZ
  Basis Set: (AUG-CC-PVTZ AUX)
    Blend: AUG-CC-PVTZ-JKFIT
	 Reference Energy          =    -578.6295799837844243 [Eh]
	 Singles Energy            =      -0.0000000000000000 [Eh]
	 Same-Spin Energy          =      -0.6161983891919132 [Eh]
	 Opposite-Spin Energy      =      -1.8201598465302395 [Eh]
	 Correlation Energy        =      -2.4363582357221527 [Eh]
	 Total Energy              =    -581.0659382195066200 [Eh]

	 ================> DF-SCS-MP2 Energies <==================
	-----------------------------------------------------------
	 SCS Same-Spin Scale       =       0.3333333333333333 [-]
	 SCS Opposite-Spin Scale   =       1.2000000000000000 [-]
	 SCS Same-Spin Energy      =      -0.2053994630639711 [Eh]
	 SCS Opposite-Spin Energy  =      -2.1841918158362872 [Eh]
	 SCS Correlation Energy    =      -2.3895912789002582 [Eh]
	 SCS Total Energy          =    -581.0191712626847220 [Eh]
	-----------------------------------------------------------

  Dipole Moment: [D]
     X:    -0.5274      Y:    -6.7669      Z:    -0.8516     Total:     6.8406

*** Psi4 exiting successfully. Buy a developer a beer!
