                               Psi4 1.4a3.dev225

  ==> Input File <==

--------------------------------------------------------------------------
#psi4
#
memory 32 gb

molecule  {
0 1
  O        1.6617960     2.5152110     0.0229320
  N       -1.9329240    -0.4005880    -0.0147920
  N        1.9545050     0.2323110     0.0113410
  N        0.2669280    -1.4301930    -0.0208730
  N       -1.3834780     1.7915450    -0.0193170
  N        2.5221760    -2.0364130     0.0734370
  C       -0.5634760    -0.3442740    -0.0026930
  C       -0.2488450     1.0144850    -0.0147620
  C        1.1380320     1.4076430     0.0031510
  C       -2.3841458     0.9510420    -0.0164709
  C        1.5275980    -1.0721200    -0.0057920
  C       -2.7322540    -1.6127190     0.0339130
  H       -3.4247340     1.1445090    -0.0228960
  H       -2.2735910    -2.3629350    -0.6109560
  H       -2.7853950    -1.9995380     1.0543320
  H       -3.7366260    -1.3828770    -0.3245450
  H        2.9468270     0.4301980     0.1174830
  H        2.1372730    -2.9631930    -0.0801050
  H        3.3349710    -1.8642740    -0.5097710
units angstrom
no_reorient  #important for SAPT in psi4, default
symmetry c1  #important for SAPT in psi4, default
}

set PROPERTIES_ORIGIN ["COM"]
properties('MP2/aug-cc-pvtz', properties = ['dipole'])
--------------------------------------------------------------------------

    Molecular point group: c1
  Charge       = 0
  Multiplicity = 1
  Basis Set: AUG-CC-PVTZ
    Blend: AUG-CC-PVTZ
  Basis Set: (AUG-CC-PVTZ AUX)
    Blend: AUG-CC-PVTZ-JKFIT

    Orbital Energies [Eh]
    ---------------------

    Doubly Occupied:

       1A    -20.520748     2A    -15.629558     3A    -15.627744
       4A    -15.611681     5A    -15.571284     6A    -15.562944
       7A    -11.397575     8A    -11.364834     9A    -11.321684
      10A    -11.307777    11A    -11.285656    12A    -11.246527
      13A     -1.389907    14A     -1.354454    15A     -1.331571
      16A     -1.219032    17A     -1.218412    18A     -1.188475
      19A     -1.031438    20A     -0.979651    21A     -0.896764
      22A     -0.883051    23A     -0.810051    24A     -0.764832
      25A     -0.740735    26A     -0.729909    27A     -0.691625
      28A     -0.666442    29A     -0.645008    30A     -0.641359
      31A     -0.624138    32A     -0.610245    33A     -0.606257
      34A     -0.575241    35A     -0.559631    36A     -0.540636
      37A     -0.491564    38A     -0.461436    39A     -0.439684
      40A     -0.430852    41A     -0.428213    42A     -0.389629
      43A     -0.301801

  @DF-RHF Final Energy:  -578.62924696465575

   => Energetics <=

    Nuclear Repulsion Energy =            692.3472992328871669
    One-Electron Energy =               -2161.7729816489882069
    Two-Electron Energy =                 890.7964354514454044
    Total Energy =                       -578.6292469646557493
  Basis Set: (AUG-CC-PVTZ AUX)
    Blend: AUG-CC-PVTZ-RI
    Molecular point group: c1

    Geometry (in Angstrom), charge = 0, multiplicity = 1:

       Center              X                  Y                   Z               Mass
    ------------   -----------------  -----------------  -----------------  -----------------
         O            1.640122965869     2.457789094523     0.020673615461    15.994914619570
         N           -1.954597034131    -0.458009905477    -0.017050384539    14.003074004430
         N            1.932831965869     0.174889094523     0.009082615461    14.003074004430
         N            0.245254965869    -1.487614905477    -0.023131384539    14.003074004430
         N           -1.405151034131     1.734123094523    -0.021575384539    14.003074004430
         N            2.500502965869    -2.093834905477     0.071178615461    14.003074004430
         C           -0.585149034131    -0.401695905477    -0.004951384539    12.000000000000
         C           -0.270518034131     0.957063094523    -0.017020384539    12.000000000000
         C            1.116358965869     1.350221094523     0.000892615461    12.000000000000
         C           -2.405818834131     0.893620094523    -0.018729284539    12.000000000000
         C            1.505924965869    -1.129541905477    -0.008050384539    12.000000000000
         C           -2.753927034131    -1.670140905477     0.031654615461    12.000000000000
         H           -3.446407034131     1.087087094523    -0.025154384539     1.007825032230
         H           -2.295264034131    -2.420356905477    -0.613214384539     1.007825032230
         H           -2.807068034131    -2.056959905477     1.052073615461     1.007825032230
         H           -3.758299034131    -1.440298905477    -0.326803384539     1.007825032230
         H            2.925153965869     0.372776094523     0.115224615461     1.007825032230
         H            2.115599965869    -3.020614905477    -0.082363384539     1.007825032230
         H            3.313297965869    -1.921695905477    -0.512029384539     1.007825032230

  Basis Set: AUG-CC-PVTZ
    Blend: AUG-CC-PVTZ
  Basis Set: (AUG-CC-PVTZ AUX)
    Blend: AUG-CC-PVTZ-JKFIT
	 Reference Energy          =    -578.6292469646557493 [Eh]
	 Singles Energy            =      -0.0000000000000000 [Eh]
	 Same-Spin Energy          =      -0.6153441485076918 [Eh]
	 Opposite-Spin Energy      =      -1.8190609379434186 [Eh]
	 Correlation Energy        =      -2.4344050864511102 [Eh]
	 Total Energy              =    -581.0636520511068284 [Eh]

	 ================> DF-SCS-MP2 Energies <==================
	-----------------------------------------------------------
	 SCS Same-Spin Scale       =       0.3333333333333333 [-]
	 SCS Opposite-Spin Scale   =       1.2000000000000000 [-]
	 SCS Same-Spin Energy      =      -0.2051147161692306 [Eh]
	 SCS Opposite-Spin Energy  =      -2.1828731255321023 [Eh]
	 SCS Correlation Energy    =      -2.3879878417013329 [Eh]
	 SCS Total Energy          =    -581.0172348063571235 [Eh]
	-----------------------------------------------------------

  Dipole Moment: [D]
     X:    -0.4963      Y:    -6.6105      Z:    -0.8510     Total:     6.6835

*** Psi4 exiting successfully. Buy a developer a beer!
