                               Psi4 1.3.2 release

  ==> Input File <==

--------------------------------------------------------------------------
#psi4
#
memory 32 gb

molecule  {
0 1
  O       -1.4697740     2.5644010     0.0803940
  N        1.9191590    -0.5831280    -0.0556370
  N       -1.9102790     0.3061000     0.0485010
  N       -0.3427170    -1.4672350    -0.0387560
  N        1.5166440     1.6409000    -0.0105650
  N       -2.6294290    -1.9169300     0.1110730
  C        0.4918952    -0.5122123    -0.0302098
  C        0.3337570     0.9396730    -0.0094060
  C       -1.0221650     1.4237120     0.0351730
  C        2.4390620     0.6894910    -0.0699270
  C       -1.5730580    -1.0260450     0.0187980
  C        2.6353690    -1.8453210    -0.0655260
  H        3.5092610     0.8590810    -0.0866130
  H        2.3729340    -2.4304260     0.8177420
  H        2.3794720    -2.4140780    -0.9605130
  H        3.7041390    -1.6305860    -0.0592400
  H       -2.8879820     0.5691470     0.1693100
  H       -2.3258040    -2.8676930    -0.0642460
  H       -3.4596940    -1.6726380    -0.4173570
units angstrom
no_reorient  #important for SAPT in psi4, default
symmetry c1  #important for SAPT in psi4, default
}

set PROPERTIES_ORIGIN ["COM"]
properties('MP2/aug-cc-pvtz', properties = ['dipole'])
--------------------------------------------------------------------------

    Molecular point group: c1
  Charge       = 0
  Multiplicity = 1
  Basis Set: AUG-CC-PVTZ
    Blend: AUG-CC-PVTZ
  Basis Set: (AUG-CC-PVTZ AUX)
    Blend: AUG-CC-PVTZ-JKFIT

    Orbital Energies [Eh]
    ---------------------

    Doubly Occupied:

       1A    -20.513690     2A    -15.635364     3A    -15.627099
       4A    -15.617210     5A    -15.575284     6A    -15.557510
       7A    -11.406012     8A    -11.358306     9A    -11.326621
      10A    -11.306918    11A    -11.283895    12A    -11.249697
      13A     -1.394024    14A     -1.355642    15A     -1.330925
      16A     -1.244025    17A     -1.222832    18A     -1.185789
      19A     -1.019791    20A     -0.976564    21A     -0.906772
      22A     -0.891873    23A     -0.813293    24A     -0.757046
      25A     -0.739368    26A     -0.734779    27A     -0.696386
      28A     -0.669326    29A     -0.654950    30A     -0.639331
      31A     -0.630052    32A     -0.606807    33A     -0.590445
      34A     -0.571280    35A     -0.555349    36A     -0.543127
      37A     -0.498270    38A     -0.474021    39A     -0.438624
      40A     -0.434885    41A     -0.420973    42A     -0.387247
      43A     -0.284129

  @DF-RHF Final Energy:  -578.61078641877964

   => Energetics <=

    Nuclear Repulsion Energy =            693.1936460208170274
    One-Electron Energy =               -2163.3577990455614781
    Two-Electron Energy =                 891.5533666059646976
    Total Energy =                       -578.6107864187796395
  Basis Set: (AUG-CC-PVTZ AUX)
    Blend: AUG-CC-PVTZ-RI
    Molecular point group: c1

    Geometry (in Angstrom), charge = 0, multiplicity = 1:

       Center              X                  Y                   Z               Mass
    ------------   -----------------  -----------------  -----------------  -----------------
         O           -1.464990106873     2.569875072098     0.080443106329    15.994914619570
         N            1.923942893127    -0.577653927902    -0.055587893671    14.003074004430
         N           -1.905495106873     0.311574072098     0.048550106329    14.003074004430
         N           -0.337933106873    -1.461760927902    -0.038706893671    14.003074004430
         N            1.521427893127     1.646374072098    -0.010515893671    14.003074004430
         N           -2.624645106873    -1.911455927902     0.111122106329    14.003074004430
         C            0.496679093127    -0.506738227902    -0.030160693671    12.000000000000
         C            0.338540893127     0.945147072098    -0.009356893671    12.000000000000
         C           -1.017381106873     1.429186072098     0.035222106329    12.000000000000
         C            2.443845893127     0.694965072098    -0.069877893671    12.000000000000
         C           -1.568274106873    -1.020570927902     0.018847106329    12.000000000000
         C            2.640152893127    -1.839846927902    -0.065476893671    12.000000000000
         H            3.514044893127     0.864555072098    -0.086563893671     1.007825032230
         H            2.377717893127    -2.424951927902     0.817791106329     1.007825032230
         H            2.384255893127    -2.408603927902    -0.960463893671     1.007825032230
         H            3.708922893127    -1.625111927902    -0.059190893671     1.007825032230
         H           -2.883198106873     0.574621072098     0.169359106329     1.007825032230
         H           -2.321020106873    -2.862218927902    -0.064196893671     1.007825032230
         H           -3.454910106873    -1.667163927902    -0.417307893671     1.007825032230

  Basis Set: AUG-CC-PVTZ
    Blend: AUG-CC-PVTZ
  Basis Set: (AUG-CC-PVTZ AUX)
    Blend: AUG-CC-PVTZ-JKFIT
	 Reference Energy          =    -578.6107864187796395 [Eh]
	 Singles Energy            =      -0.0000000000000000 [Eh]
	 Same-Spin Energy          =      -0.6184281702559675 [Eh]
	 Opposite-Spin Energy      =      -1.8218568960904744 [Eh]
	 Correlation Energy        =      -2.4402850663464419 [Eh]
	 Total Energy              =    -581.0510714851260445 [Eh]

	 ================> DF-SCS-MP2 Energies <==================
	-----------------------------------------------------------
	 SCS Same-Spin Scale       =       0.3333333333333333 [-]
	 SCS Opposite-Spin Scale   =       1.2000000000000000 [-]
	 SCS Same-Spin Energy      =      -0.2061427234186558 [Eh]
	 SCS Opposite-Spin Energy  =      -2.1862282753085691 [Eh]
	 SCS Correlation Energy    =      -2.3923709987272250 [Eh]
	 SCS Total Energy          =    -581.0031574175068272 [Eh]
	-----------------------------------------------------------

  Dipole Moment: [D]
     X:    -0.3176      Y:    -7.0173      Z:    -0.9381     Total:     7.0868

*** Psi4 exiting successfully. Buy a developer a beer!
