                               Psi4 1.4a3.dev225

  ==> Input File <==

--------------------------------------------------------------------------
#psi4
#
memory 32 gb

molecule  {
0 1
  O        1.6617960     2.5152110     0.0229320
  N       -1.9329240    -0.4005880    -0.0147920
  N        1.9545050     0.2323110     0.0113410
  N        0.2669280    -1.4301930    -0.0208730
  N       -1.3834780     1.7915450    -0.0193170
  N        2.5221760    -2.0364130     0.0734370
  C       -0.5634760    -0.3442740    -0.0026930
  C       -0.2488450     1.0144850    -0.0147620
  C        1.1861327     1.4212788     0.0037723
  C       -2.3683130     0.9036150    -0.0164120
  C        1.5275980    -1.0721200    -0.0057920
  C       -2.7322540    -1.6127190     0.0339130
  H       -3.4247340     1.1445090    -0.0228960
  H       -2.2735910    -2.3629350    -0.6109560
  H       -2.7853950    -1.9995380     1.0543320
  H       -3.7366260    -1.3828770    -0.3245450
  H        2.9468270     0.4301980     0.1174830
  H        2.1372730    -2.9631930    -0.0801050
  H        3.3349710    -1.8642740    -0.5097710
units angstrom
no_reorient  #important for SAPT in psi4, default
symmetry c1  #important for SAPT in psi4, default
}

set PROPERTIES_ORIGIN ["COM"]
properties('MP2/aug-cc-pvtz', properties = ['dipole'])
--------------------------------------------------------------------------

    Molecular point group: c1
  Charge       = 0
  Multiplicity = 1
  Basis Set: AUG-CC-PVTZ
    Blend: AUG-CC-PVTZ
  Basis Set: (AUG-CC-PVTZ AUX)
    Blend: AUG-CC-PVTZ-JKFIT

    Orbital Energies [Eh]
    ---------------------

    Doubly Occupied:

       1A    -20.529268     2A    -15.629826     3A    -15.629187
       4A    -15.610289     5A    -15.569317     6A    -15.556908
       7A    -11.395606     8A    -11.366258     9A    -11.312884
      10A    -11.303010    11A    -11.286654    12A    -11.246798
      13A     -1.407189    14A     -1.363870    15A     -1.335858
      16A     -1.222666    17A     -1.214186    18A     -1.187411
      19A     -1.021391    20A     -0.980638    21A     -0.897091
      22A     -0.882979    23A     -0.806845    24A     -0.762854
      25A     -0.738533    26A     -0.726121    27A     -0.691776
      28A     -0.668068    29A     -0.652857    30A     -0.640303
      31A     -0.626511    32A     -0.619813    33A     -0.591209
      34A     -0.576156    35A     -0.558865    36A     -0.550371
      37A     -0.490967    38A     -0.460153    39A     -0.443724
      40A     -0.433386    41A     -0.425869    42A     -0.389692
      43A     -0.294282

  @DF-RHF Final Energy:  -578.62948692662167

   => Energetics <=

    Nuclear Repulsion Energy =            692.8998967444671280
    One-Electron Energy =               -2162.8634915484371959
    Two-Electron Energy =                 891.3341078773482877
    Total Energy =                       -578.6294869266216665
  Basis Set: (AUG-CC-PVTZ AUX)
    Blend: AUG-CC-PVTZ-RI
    Molecular point group: c1

    Geometry (in Angstrom), charge = 0, multiplicity = 1:

       Center              X                  Y                   Z               Mass
    ------------   -----------------  -----------------  -----------------  -----------------
         O            1.635475089446     2.460245667709     0.020624165868    15.994914619570
         N           -1.959244910554    -0.455553332291    -0.017099834132    14.003074004430
         N            1.928184089446     0.177345667709     0.009033165868    14.003074004430
         N            0.240607089446    -1.485158332291    -0.023180834132    14.003074004430
         N           -1.409798910554     1.736579667709    -0.021624834132    14.003074004430
         N            2.495855089446    -2.091378332291     0.071129165868    14.003074004430
         C           -0.589796910554    -0.399239332291    -0.005000834132    12.000000000000
         C           -0.275165910554     0.959519667709    -0.017069834132    12.000000000000
         C            1.159811789446     1.366313467709     0.001464465868    12.000000000000
         C           -2.394633910554     0.848649667709    -0.018719834132    12.000000000000
         C            1.501277089446    -1.127085332291    -0.008099834132    12.000000000000
         C           -2.758574910554    -1.667684332291     0.031605165868    12.000000000000
         H           -3.451054910554     1.089543667709    -0.025203834132     1.007825032230
         H           -2.299911910554    -2.417900332291    -0.613263834132     1.007825032230
         H           -2.811715910554    -2.054503332291     1.052024165868     1.007825032230
         H           -3.762946910554    -1.437842332291    -0.326852834132     1.007825032230
         H            2.920506089446     0.375232667709     0.115175165868     1.007825032230
         H            2.110952089446    -3.018158332291    -0.082412834132     1.007825032230
         H            3.308650089446    -1.919239332291    -0.512078834132     1.007825032230

  Basis Set: AUG-CC-PVTZ
    Blend: AUG-CC-PVTZ
  Basis Set: (AUG-CC-PVTZ AUX)
    Blend: AUG-CC-PVTZ-JKFIT
	 Reference Energy          =    -578.6294869266216665 [Eh]
	 Singles Energy            =      -0.0000000000000000 [Eh]
	 Same-Spin Energy          =      -0.6154006902465562 [Eh]
	 Opposite-Spin Energy      =      -1.8186170815517999 [Eh]
	 Correlation Energy        =      -2.4340177717983562 [Eh]
	 Total Energy              =    -581.0635046984200471 [Eh]

	 ================> DF-SCS-MP2 Energies <==================
	-----------------------------------------------------------
	 SCS Same-Spin Scale       =       0.3333333333333333 [-]
	 SCS Opposite-Spin Scale   =       1.2000000000000000 [-]
	 SCS Same-Spin Energy      =      -0.2051335634155187 [Eh]
	 SCS Opposite-Spin Energy  =      -2.1823404978621599 [Eh]
	 SCS Correlation Energy    =      -2.3874740612776786 [Eh]
	 SCS Total Energy          =    -581.0169609878993242 [Eh]
	-----------------------------------------------------------

  Dipole Moment: [D]
     X:    -0.2125      Y:    -6.5239      Z:    -0.8491     Total:     6.5823

*** Psi4 exiting successfully. Buy a developer a beer!
