                               Psi4 1.4a3.dev225

  ==> Input File <==

--------------------------------------------------------------------------
#psi4
#
memory 32 gb

molecule  {
0 1
  O        1.6617960     2.5152110     0.0229320
  N       -1.9329240    -0.4005880    -0.0147920
  N        1.9545050     0.2323110     0.0113410
  N        0.2669280    -1.4301930    -0.0208730
  N       -1.3834780     1.7915450    -0.0193170
  N        2.5221760    -2.0364130     0.0734370
  C       -0.5634760    -0.3442740    -0.0026930
  C       -0.2488450     1.0144850    -0.0147620
  C        1.1380320     1.4076430     0.0031510
  C       -2.3683130     0.9036150    -0.0164120
  C        1.5275980    -1.0721200    -0.0057920
  C       -2.7322540    -1.6127190     0.0339130
  H       -3.4247340     1.1445090    -0.0228960
  H       -2.2651785    -2.3766949    -0.6227837
  H       -2.7853950    -1.9995380     1.0543320
  H       -3.7366260    -1.3828770    -0.3245450
  H        2.9468270     0.4301980     0.1174830
  H        2.1372730    -2.9631930    -0.0801050
  H        3.3349710    -1.8642740    -0.5097710
units angstrom
no_reorient  #important for SAPT in psi4, default
symmetry c1  #important for SAPT in psi4, default
}

set PROPERTIES_ORIGIN ["COM"]
properties('MP2/aug-cc-pvtz', properties = ['dipole'])
--------------------------------------------------------------------------

    Molecular point group: c1
  Charge       = 0
  Multiplicity = 1
  Basis Set: AUG-CC-PVTZ
    Blend: AUG-CC-PVTZ
  Basis Set: (AUG-CC-PVTZ AUX)
    Blend: AUG-CC-PVTZ-JKFIT

    Orbital Energies [Eh]
    ---------------------

    Doubly Occupied:

       1A    -20.521484     2A    -15.632963     3A    -15.629465
       4A    -15.610766     5A    -15.571120     6A    -15.560089
       7A    -11.396106     8A    -11.365004     9A    -11.319704
      10A    -11.307203    11A    -11.291355    12A    -11.247349
      13A     -1.390885    14A     -1.360696    15A     -1.333867
      16A     -1.218771    17A     -1.216025    18A     -1.190339
      19A     -1.029163    20A     -0.984569    21A     -0.901279
      22A     -0.881993    23A     -0.807268    24A     -0.766249
      25A     -0.741251    26A     -0.728512    27A     -0.691204
      28A     -0.670311    29A     -0.649271    30A     -0.642253
      31A     -0.624555    32A     -0.610447    33A     -0.594341
      34A     -0.577122    35A     -0.560448    36A     -0.541437
      37A     -0.493003    38A     -0.460393    39A     -0.440221
      40A     -0.429756    41A     -0.429134    42A     -0.392798
      43A     -0.298631

  @DF-RHF Final Energy:  -578.63001742603308

   => Energetics <=

    Nuclear Repulsion Energy =            693.0845443608192227
    One-Electron Energy =               -2163.2115221182989444
    Two-Electron Energy =                 891.4969603314467577
    Total Energy =                       -578.6300174260330778
  Basis Set: (AUG-CC-PVTZ AUX)
    Blend: AUG-CC-PVTZ-RI
    Molecular point group: c1

    Geometry (in Angstrom), charge = 0, multiplicity = 1:

       Center              X                  Y                   Z               Mass
    ------------   -----------------  -----------------  -----------------  -----------------
         O            1.638920579802     2.461320984143     0.020741548991    15.994914619570
         N           -1.955799420198    -0.454478015857    -0.016982451009    14.003074004430
         N            1.931629579802     0.178420984143     0.009150548991    14.003074004430
         N            0.244052579802    -1.484083015857    -0.023063451009    14.003074004430
         N           -1.406353420198     1.737654984143    -0.021507451009    14.003074004430
         N            2.499300579802    -2.090303015857     0.071246548991    14.003074004430
         C           -0.586351420198    -0.398164015857    -0.004883451009    12.000000000000
         C           -0.271720420198     0.960594984143    -0.016952451009    12.000000000000
         C            1.115156579802     1.353752984143     0.000960548991    12.000000000000
         C           -2.391188420198     0.849724984143    -0.018602451009    12.000000000000
         C            1.504722579802    -1.126010015857    -0.007982451009    12.000000000000
         C           -2.755129420198    -1.666609015857     0.031722548991    12.000000000000
         H           -3.447609420198     1.090618984143    -0.025086451009     1.007825032230
         H           -2.288053920198    -2.430584915857    -0.624974151009     1.007825032230
         H           -2.808270420198    -2.053428015857     1.052141548991     1.007825032230
         H           -3.759501420198    -1.436767015857    -0.326735451009     1.007825032230
         H            2.923951579802     0.376307984143     0.115292548991     1.007825032230
         H            2.114397579802    -3.017083015857    -0.082295451009     1.007825032230
         H            3.312095579802    -1.918164015857    -0.511961451009     1.007825032230

  Basis Set: AUG-CC-PVTZ
    Blend: AUG-CC-PVTZ
  Basis Set: (AUG-CC-PVTZ AUX)
    Blend: AUG-CC-PVTZ-JKFIT
	 Reference Energy          =    -578.6300174260330778 [Eh]
	 Singles Energy            =      -0.0000000000000000 [Eh]
	 Same-Spin Energy          =      -0.6161018234961991 [Eh]
	 Opposite-Spin Energy      =      -1.8199734711747211 [Eh]
	 Correlation Energy        =      -2.4360752946709203 [Eh]
	 Total Energy              =    -581.0660927207039776 [Eh]

	 ================> DF-SCS-MP2 Energies <==================
	-----------------------------------------------------------
	 SCS Same-Spin Scale       =       0.3333333333333333 [-]
	 SCS Opposite-Spin Scale   =       1.2000000000000000 [-]
	 SCS Same-Spin Energy      =      -0.2053672744987330 [Eh]
	 SCS Opposite-Spin Energy  =      -2.1839681654096652 [Eh]
	 SCS Correlation Energy    =      -2.3893354399083981 [Eh]
	 SCS Total Energy          =    -581.0193528659415279 [Eh]
	-----------------------------------------------------------

  Dipole Moment: [D]
     X:    -0.5196      Y:    -6.7434      Z:    -0.8491     Total:     6.8165

*** Psi4 exiting successfully. Buy a developer a beer!
