                               Psi4 1.3.2 release

  ==> Input File <==

--------------------------------------------------------------------------
#psi4
#
memory 32 gb

molecule  {
0 1
  O       -1.4697740     2.5644010     0.0803940
  N        1.9191590    -0.5831280    -0.0556370
  N       -1.9102790     0.3061000     0.0485010
  N       -0.3427170    -1.4672350    -0.0387560
  N        1.5166440     1.6409000    -0.0105650
  N       -2.6294290    -1.9169300     0.1110730
  C        0.5576980    -0.4369160    -0.0295360
  C        0.3337570     0.9396730    -0.0094060
  C       -1.0221650     1.4237120     0.0351730
  C        2.4390620     0.6894910    -0.0699270
  C       -1.6670978    -0.9923231     0.0231971
  C        2.6353690    -1.8453210    -0.0655260
  H        3.5092610     0.8590810    -0.0866130
  H        2.3729340    -2.4304260     0.8177420
  H        2.3794720    -2.4140780    -0.9605130
  H        3.7041390    -1.6305860    -0.0592400
  H       -2.8879820     0.5691470     0.1693100
  H       -2.3258040    -2.8676930    -0.0642460
  H       -3.4596940    -1.6726380    -0.4173570
units angstrom
no_reorient  #important for SAPT in psi4, default
symmetry c1  #important for SAPT in psi4, default
}

set PROPERTIES_ORIGIN ["COM"]
properties('MP2/aug-cc-pvtz', properties = ['dipole'])
--------------------------------------------------------------------------

    Molecular point group: c1
  Charge       = 0
  Multiplicity = 1
  Basis Set: AUG-CC-PVTZ
    Blend: AUG-CC-PVTZ
  Basis Set: (AUG-CC-PVTZ AUX)
    Blend: AUG-CC-PVTZ-JKFIT

    Orbital Energies [Eh]
    ---------------------

    Doubly Occupied:

       1A    -20.521966     2A    -15.639566     3A    -15.625878
       4A    -15.622492     5A    -15.563149     6A    -15.554625
       7A    -11.402527     8A    -11.366827     9A    -11.314020
      10A    -11.302982    11A    -11.284726    12A    -11.239632
      13A     -1.395273    14A     -1.355723    15A     -1.342463
      16A     -1.241991    17A     -1.201146    18A     -1.177893
      19A     -1.022509    20A     -0.982620    21A     -0.906350
      22A     -0.886504    23A     -0.804701    24A     -0.765666
      25A     -0.752295    26A     -0.738195    27A     -0.700919
      28A     -0.667326    29A     -0.651871    30A     -0.639242
      31A     -0.619095    32A     -0.607910    33A     -0.590584
      34A     -0.573388    35A     -0.560710    36A     -0.539850
      37A     -0.482871    38A     -0.461016    39A     -0.441456
      40A     -0.430138    41A     -0.422181    42A     -0.387910
      43A     -0.286059

  @DF-RHF Final Energy:  -578.61563679930919

   => Energetics <=

    Nuclear Repulsion Energy =            692.8194967411920970
    One-Electron Energy =               -2162.7217743471214817
    Two-Electron Energy =                 891.2866408066201984
    Total Energy =                       -578.6156367993091862
  Basis Set: (AUG-CC-PVTZ AUX)
    Blend: AUG-CC-PVTZ-RI
    Molecular point group: c1

    Geometry (in Angstrom), charge = 0, multiplicity = 1:

       Center              X                  Y                   Z               Mass
    ------------   -----------------  -----------------  -----------------  -----------------
         O           -1.462937316293     2.561949600765     0.080074313563    15.994914619570
         N            1.925995683707    -0.585579399235    -0.055956686437    14.003074004430
         N           -1.903442316293     0.303648600765     0.048181313563    14.003074004430
         N           -0.335880316293    -1.469686399235    -0.039075686437    14.003074004430
         N            1.523480683707     1.638448600765    -0.010884686437    14.003074004430
         N           -2.622592316293    -1.919381399235     0.110753313563    14.003074004430
         C            0.564534683707    -0.439367399235    -0.029855686437    12.000000000000
         C            0.340593683707     0.937221600765    -0.009725686437    12.000000000000
         C           -1.015328316293     1.421260600765     0.034853313563    12.000000000000
         C            2.445898683707     0.687039600765    -0.070246686437    12.000000000000
         C           -1.660261116293    -0.994774499235     0.022877413563    12.000000000000
         C            2.642205683707    -1.847772399235    -0.065845686437    12.000000000000
         H            3.516097683707     0.856629600765    -0.086932686437     1.007825032230
         H            2.379770683707    -2.432877399235     0.817422313563     1.007825032230
         H            2.386308683707    -2.416529399235    -0.960832686437     1.007825032230
         H            3.710975683707    -1.633037399235    -0.059559686437     1.007825032230
         H           -2.881145316293     0.566695600765     0.168990313563     1.007825032230
         H           -2.318967316293    -2.870144399235    -0.064565686437     1.007825032230
         H           -3.452857316293    -1.675089399235    -0.417676686437     1.007825032230

  Basis Set: AUG-CC-PVTZ
    Blend: AUG-CC-PVTZ
  Basis Set: (AUG-CC-PVTZ AUX)
    Blend: AUG-CC-PVTZ-JKFIT
	 Reference Energy          =    -578.6156367993091862 [Eh]
	 Singles Energy            =      -0.0000000000000000 [Eh]
	 Same-Spin Energy          =      -0.6171284228774385 [Eh]
	 Opposite-Spin Energy      =      -1.8210734293655806 [Eh]
	 Correlation Energy        =      -2.4382018522430191 [Eh]
	 Total Energy              =    -581.0538386515521552 [Eh]

	 ================> DF-SCS-MP2 Energies <==================
	-----------------------------------------------------------
	 SCS Same-Spin Scale       =       0.3333333333333333 [-]
	 SCS Opposite-Spin Scale   =       1.2000000000000000 [-]
	 SCS Same-Spin Energy      =      -0.2057094742924795 [Eh]
	 SCS Opposite-Spin Energy  =      -2.1852881152386967 [Eh]
	 SCS Correlation Energy    =      -2.3909975895311764 [Eh]
	 SCS Total Energy          =    -581.0066343888403253 [Eh]
	-----------------------------------------------------------

  Dipole Moment: [D]
     X:    -0.7569      Y:    -6.8513      Z:    -0.8985     Total:     6.9513

*** Psi4 exiting successfully. Buy a developer a beer!
