                               Psi4 1.3.2 release

  ==> Input File <==

--------------------------------------------------------------------------
#psi4
#
memory 32 gb

molecule  {
0 1
  O       -1.4697740     2.5644010     0.0803940
  N        1.9191590    -0.5831280    -0.0556370
  N       -1.9102790     0.3061000     0.0485010
  N       -0.3427170    -1.4672350    -0.0387560
  N        1.5287001     1.6201514    -0.0109448
  N       -2.6294290    -1.9169300     0.1110730
  C        0.5816903    -0.4327954    -0.0296928
  C        0.3337570     0.9396730    -0.0094060
  C       -1.0221650     1.4237120     0.0351730
  C        2.4390620     0.6894910    -0.0699270
  C       -1.5730580    -1.0260450     0.0187980
  C        2.6353690    -1.8453210    -0.0655260
  H        3.5092610     0.8590810    -0.0866130
  H        2.3729340    -2.4304260     0.8177420
  H        2.3794720    -2.4140780    -0.9605130
  H        3.7041390    -1.6305860    -0.0592400
  H       -2.8879820     0.5691470     0.1693100
  H       -2.3258040    -2.8676930    -0.0642460
  H       -3.4596940    -1.6726380    -0.4173570
units angstrom
no_reorient  #important for SAPT in psi4, default
symmetry c1  #important for SAPT in psi4, default
}

set PROPERTIES_ORIGIN ["COM"]
properties('MP2/aug-cc-pvtz', properties = ['dipole'])
--------------------------------------------------------------------------

    Molecular point group: c1
  Charge       = 0
  Multiplicity = 1
  Basis Set: AUG-CC-PVTZ
    Blend: AUG-CC-PVTZ
  Basis Set: (AUG-CC-PVTZ AUX)
    Blend: AUG-CC-PVTZ-JKFIT

    Orbital Energies [Eh]
    ---------------------

    Doubly Occupied:

       1A    -20.521084     2A    -15.632565     3A    -15.628129
       4A    -15.609817     5A    -15.569643     6A    -15.557339
       7A    -11.394827     8A    -11.365144     9A    -11.318815
      10A    -11.303372    11A    -11.290144    12A    -11.245941
      13A     -1.391156    14A     -1.366250    15A     -1.333649
      16A     -1.218354    17A     -1.214768    18A     -1.191891
      19A     -1.031860    20A     -0.988225    21A     -0.902183
      22A     -0.880626    23A     -0.806762    24A     -0.767161
      25A     -0.744440    26A     -0.728969    27A     -0.691911
      28A     -0.673367    29A     -0.650280    30A     -0.640816
      31A     -0.625588    32A     -0.610280    33A     -0.598541
      34A     -0.581355    35A     -0.563710    36A     -0.541485
      37A     -0.490389    38A     -0.457696    39A     -0.438691
      40A     -0.428725    41A     -0.427283    42A     -0.393799
      43A     -0.301393

  @DF-RHF Final Energy:  -578.63242366122108

   => Energetics <=

    Nuclear Repulsion Energy =            693.9364398746788538
    One-Electron Energy =               -2164.9008845374660268
    Two-Electron Energy =                 892.3320210015660905
    Total Energy =                       -578.6324236612210825
  Basis Set: (AUG-CC-PVTZ AUX)
    Blend: AUG-CC-PVTZ-RI
    Molecular point group: c1

    Geometry (in Angstrom), charge = 0, multiplicity = 1:

       Center              X                  Y                   Z               Mass
    ------------   -----------------  -----------------  -----------------  -----------------
         O           -1.472540848753     2.565861753838     0.080437740975    15.994914619570
         N            1.916392151247    -0.581667246162    -0.055593259025    14.003074004430
         N           -1.913045848753     0.307560753838     0.048544740975    14.003074004430
         N           -0.345483848753    -1.465774246162    -0.038712259025    14.003074004430
         N            1.525933251247     1.621612153838    -0.010901059025    14.003074004430
         N           -2.632195848753    -1.915469246162     0.111116740975    14.003074004430
         C            0.578923451247    -0.431334646162    -0.029649059025    12.000000000000
         C            0.330990151247     0.941133753838    -0.009362259025    12.000000000000
         C           -1.024931848753     1.425172753838     0.035216740975    12.000000000000
         C            2.436295151247     0.690951753838    -0.069883259025    12.000000000000
         C           -1.575824848753    -1.024584246162     0.018841740975    12.000000000000
         C            2.632602151247    -1.843860246162    -0.065482259025    12.000000000000
         H            3.506494151247     0.860541753838    -0.086569259025     1.007825032230
         H            2.370167151247    -2.428965246162     0.817785740975     1.007825032230
         H            2.376705151247    -2.412617246162    -0.960469259025     1.007825032230
         H            3.701372151247    -1.629125246162    -0.059196259025     1.007825032230
         H           -2.890748848753     0.570607753838     0.169353740975     1.007825032230
         H           -2.328570848753    -2.866232246162    -0.064202259025     1.007825032230
         H           -3.462460848753    -1.671177246162    -0.417313259025     1.007825032230

  Basis Set: AUG-CC-PVTZ
    Blend: AUG-CC-PVTZ
  Basis Set: (AUG-CC-PVTZ AUX)
    Blend: AUG-CC-PVTZ-JKFIT
	 Reference Energy          =    -578.6324236612210825 [Eh]
	 Singles Energy            =      -0.0000000000000000 [Eh]
	 Same-Spin Energy          =      -0.6151940835480159 [Eh]
	 Opposite-Spin Energy      =      -1.8181764619456824 [Eh]
	 Correlation Energy        =      -2.4333705454936982 [Eh]
	 Total Energy              =    -581.0657942067148269 [Eh]

	 ================> DF-SCS-MP2 Energies <==================
	-----------------------------------------------------------
	 SCS Same-Spin Scale       =       0.3333333333333333 [-]
	 SCS Opposite-Spin Scale   =       1.2000000000000000 [-]
	 SCS Same-Spin Energy      =      -0.2050646945160053 [Eh]
	 SCS Opposite-Spin Energy  =      -2.1818117543348188 [Eh]
	 SCS Correlation Energy    =      -2.3868764488508241 [Eh]
	 SCS Total Energy          =    -581.0193001100718675 [Eh]
	-----------------------------------------------------------

  Dipole Moment: [D]
     X:     0.0777      Y:    -6.7209      Z:    -0.9384     Total:     6.7866

*** Psi4 exiting successfully. Buy a developer a beer!
