                               Psi4 1.4a3.dev225

  ==> Input File <==

--------------------------------------------------------------------------
#psi4
#
memory 32 gb

molecule  {
0 1
  O        1.6617960     2.5152110     0.0229320
  N       -1.9329240    -0.4005880    -0.0147920
  N        1.9545050     0.2323110     0.0113410
  N        0.2669280    -1.4301930    -0.0208730
  N       -1.3834780     1.7915450    -0.0193170
  N        2.5221760    -2.0364130     0.0734370
  C       -0.5634760    -0.3442740    -0.0026930
  C       -0.2488450     1.0144850    -0.0147620
  C        1.0899313     1.3940072     0.0025297
  C       -2.3683130     0.9036150    -0.0164120
  C        1.5275980    -1.0721200    -0.0057920
  C       -2.7322540    -1.6127190     0.0339130
  H       -3.4247340     1.1445090    -0.0228960
  H       -2.2735910    -2.3629350    -0.6109560
  H       -2.7853950    -1.9995380     1.0543320
  H       -3.7366260    -1.3828770    -0.3245450
  H        2.9468270     0.4301980     0.1174830
  H        2.1372730    -2.9631930    -0.0801050
  H        3.3349710    -1.8642740    -0.5097710
units angstrom
no_reorient  #important for SAPT in psi4, default
symmetry c1  #important for SAPT in psi4, default
}

set PROPERTIES_ORIGIN ["COM"]
properties('MP2/aug-cc-pvtz', properties = ['dipole'])
--------------------------------------------------------------------------

    Molecular point group: c1
  Charge       = 0
  Multiplicity = 1
  Basis Set: AUG-CC-PVTZ
    Blend: AUG-CC-PVTZ
  Basis Set: (AUG-CC-PVTZ AUX)
    Blend: AUG-CC-PVTZ-JKFIT

    Orbital Energies [Eh]
    ---------------------

    Doubly Occupied:

       1A    -20.512864     2A    -15.636659     3A    -15.629028
       4A    -15.611296     5A    -15.573242     6A    -15.563134
       7A    -11.396738     8A    -11.362918     9A    -11.326957
      10A    -11.311534    11A    -11.291842    12A    -11.246895
      13A     -1.384636    14A     -1.353597    15A     -1.326620
      16A     -1.218735    17A     -1.214114    18A     -1.192953
      19A     -1.038365    20A     -0.991603    21A     -0.908104
      22A     -0.879015    23A     -0.807593    24A     -0.770671
      25A     -0.743812    26A     -0.731115    27A     -0.690732
      28A     -0.673767    29A     -0.649704    30A     -0.644449
      31A     -0.624920    32A     -0.598442    33A     -0.598020
      34A     -0.580067    35A     -0.564049    36A     -0.533170
      37A     -0.495525    38A     -0.461364    39A     -0.437915
      40A     -0.427709    41A     -0.425193    42A     -0.395751
      43A     -0.302977

  @DF-RHF Final Energy:  -578.62430329235292

   => Energetics <=

    Nuclear Repulsion Energy =            693.4758388184770865
    One-Electron Energy =               -2163.9446913393426257
    Two-Electron Energy =                 891.8445492285126193
    Total Energy =                       -578.6243032923529199
  Basis Set: (AUG-CC-PVTZ AUX)
    Blend: AUG-CC-PVTZ-RI
    Molecular point group: c1

    Geometry (in Angstrom), charge = 0, multiplicity = 1:

       Center              X                  Y                   Z               Mass
    ------------   -----------------  -----------------  -----------------  -----------------
         O            1.642468797266     2.462228275053     0.020714501158    15.994914619570
         N           -1.952251202734    -0.453570724947    -0.017009498842    14.003074004430
         N            1.935177797266     0.179328275053     0.009123501158    14.003074004430
         N            0.247600797266    -1.483175724947    -0.023090498842    14.003074004430
         N           -1.402805202734     1.738562275053    -0.021534498842    14.003074004430
         N            2.502848797266    -2.089395724947     0.071219501158    14.003074004430
         C           -0.582803202734    -0.397256724947    -0.004910498842    12.000000000000
         C           -0.268172202734     0.961502275053    -0.016979498842    12.000000000000
         C            1.070604097266     1.341024475053     0.000312201158    12.000000000000
         C           -2.387640202734     0.850632275053    -0.018629498842    12.000000000000
         C            1.508270797266    -1.125102724947    -0.008009498842    12.000000000000
         C           -2.751581202734    -1.665701724947     0.031695501158    12.000000000000
         H           -3.444061202734     1.091526275053    -0.025113498842     1.007825032230
         H           -2.292918202734    -2.415917724947    -0.613173498842     1.007825032230
         H           -2.804722202734    -2.052520724947     1.052114501158     1.007825032230
         H           -3.755953202734    -1.435859724947    -0.326762498842     1.007825032230
         H            2.927499797266     0.377215275053     0.115265501158     1.007825032230
         H            2.117945797266    -3.016175724947    -0.082322498842     1.007825032230
         H            3.315643797266    -1.917256724947    -0.511988498842     1.007825032230

  Basis Set: AUG-CC-PVTZ
    Blend: AUG-CC-PVTZ
  Basis Set: (AUG-CC-PVTZ AUX)
    Blend: AUG-CC-PVTZ-JKFIT
	 Reference Energy          =    -578.6243032923529199 [Eh]
	 Singles Energy            =      -0.0000000000000000 [Eh]
	 Same-Spin Energy          =      -0.6168609038882534 [Eh]
	 Opposite-Spin Energy      =      -1.8213115799761868 [Eh]
	 Correlation Energy        =      -2.4381724838644403 [Eh]
	 Total Energy              =    -581.0624757762174113 [Eh]

	 ================> DF-SCS-MP2 Energies <==================
	-----------------------------------------------------------
	 SCS Same-Spin Scale       =       0.3333333333333333 [-]
	 SCS Opposite-Spin Scale   =       1.2000000000000000 [-]
	 SCS Same-Spin Energy      =      -0.2056203012960845 [Eh]
	 SCS Opposite-Spin Energy  =      -2.1855738959714239 [Eh]
	 SCS Correlation Energy    =      -2.3911941972675086 [Eh]
	 SCS Total Energy          =    -581.0154974896204294 [Eh]
	-----------------------------------------------------------

  Dipole Moment: [D]
     X:    -0.8318      Y:    -6.9772      Z:    -0.8526     Total:     7.0782

*** Psi4 exiting successfully. Buy a developer a beer!
