                               Psi4 1.3.2 release

  ==> Input File <==

--------------------------------------------------------------------------
#psi4
#
memory 32 gb

molecule  {
0 1
  O       -1.4697740     2.5644010     0.0803940
  N        1.9080910    -0.5785427    -0.0549971
  N       -1.9102790     0.3061000     0.0485010
  N       -0.3427170    -1.4672350    -0.0387560
  N        1.5083834     1.6327985    -0.0102095
  N       -2.6294290    -1.9169300     0.1110730
  C        0.5576980    -0.4369160    -0.0295360
  C        0.3337570     0.9396730    -0.0094060
  C       -1.0221650     1.4237120     0.0351730
  C        2.4390620     0.6894910    -0.0699270
  C       -1.5730580    -1.0260450     0.0187980
  C        2.6353690    -1.8453210    -0.0655260
  H        3.5092610     0.8590810    -0.0866130
  H        2.3729340    -2.4304260     0.8177420
  H        2.3794720    -2.4140780    -0.9605130
  H        3.7041390    -1.6305860    -0.0592400
  H       -2.8879820     0.5691470     0.1693100
  H       -2.3258040    -2.8676930    -0.0642460
  H       -3.4596940    -1.6726380    -0.4173570
units angstrom
no_reorient  #important for SAPT in psi4, default
symmetry c1  #important for SAPT in psi4, default
}

set PROPERTIES_ORIGIN ["COM"]
properties('MP2/aug-cc-pvtz', properties = ['dipole'])
--------------------------------------------------------------------------

    Molecular point group: c1
  Charge       = 0
  Multiplicity = 1
  Basis Set: AUG-CC-PVTZ
    Blend: AUG-CC-PVTZ
  Basis Set: (AUG-CC-PVTZ AUX)
    Blend: AUG-CC-PVTZ-JKFIT

    Orbital Energies [Eh]
    ---------------------

    Doubly Occupied:

       1A    -20.520697     2A    -15.633002     3A    -15.628822
       4A    -15.610357     5A    -15.570173     6A    -15.558349
       7A    -11.395563     8A    -11.363851     9A    -11.317162
      10A    -11.305921    11A    -11.290267    12A    -11.245344
      13A     -1.390966    14A     -1.362266    15A     -1.334126
      16A     -1.218700    17A     -1.216521    18A     -1.190360
      19A     -1.029480    20A     -0.986546    21A     -0.902061
      22A     -0.881814    23A     -0.808097    24A     -0.766996
      25A     -0.741976    26A     -0.729390    27A     -0.691969
      28A     -0.671435    29A     -0.647724    30A     -0.642146
      31A     -0.626051    32A     -0.609468    33A     -0.596172
      34A     -0.580599    35A     -0.562298    36A     -0.541707
      37A     -0.492810    38A     -0.458960    39A     -0.439709
      40A     -0.428858    41A     -0.427692    42A     -0.393557
      43A     -0.297424

  @DF-RHF Final Energy:  -578.63106761324082

   => Energetics <=

    Nuclear Repulsion Energy =            694.0166002333053257
    One-Electron Energy =               -2165.0805671654156868
    Two-Electron Energy =                 892.4328993188695449
    Total Energy =                       -578.6310676132408162
  Basis Set: (AUG-CC-PVTZ AUX)
    Blend: AUG-CC-PVTZ-RI
    Molecular point group: c1

    Geometry (in Angstrom), charge = 0, multiplicity = 1:

       Center              X                  Y                   Z               Mass
    ------------   -----------------  -----------------  -----------------  -----------------
         O           -1.468134162824     2.564699428071     0.080309678577    15.994914619570
         N            1.909730837176    -0.578244271929    -0.055081421423    14.003074004430
         N           -1.908639162824     0.306398428071     0.048416678577    14.003074004430
         N           -0.341077162824    -1.466936571929    -0.038840321423    14.003074004430
         N            1.510023237176     1.633096928071    -0.010293821423    14.003074004430
         N           -2.627789162824    -1.916631571929     0.110988678577    14.003074004430
         C            0.559337837176    -0.436617571929    -0.029620321423    12.000000000000
         C            0.335396837176     0.939971428071    -0.009490321423    12.000000000000
         C           -1.020525162824     1.424010428071     0.035088678577    12.000000000000
         C            2.440701837176     0.689789428071    -0.070011321423    12.000000000000
         C           -1.571418162824    -1.025746571929     0.018713678577    12.000000000000
         C            2.637008837176    -1.845022571929    -0.065610321423    12.000000000000
         H            3.510900837176     0.859379428071    -0.086697321423     1.007825032230
         H            2.374573837176    -2.430127571929     0.817657678577     1.007825032230
         H            2.381111837176    -2.413779571929    -0.960597321423     1.007825032230
         H            3.705778837176    -1.630287571929    -0.059324321423     1.007825032230
         H           -2.886342162824     0.569445428071     0.169225678577     1.007825032230
         H           -2.324164162824    -2.867394571929    -0.064330321423     1.007825032230
         H           -3.458054162824    -1.672339571929    -0.417441321423     1.007825032230

  Basis Set: AUG-CC-PVTZ
    Blend: AUG-CC-PVTZ
  Basis Set: (AUG-CC-PVTZ AUX)
    Blend: AUG-CC-PVTZ-JKFIT
	 Reference Energy          =    -578.6310676132408162 [Eh]
	 Singles Energy            =      -0.0000000000000000 [Eh]
	 Same-Spin Energy          =      -0.6161094138618395 [Eh]
	 Opposite-Spin Energy      =      -1.8195254153902334 [Eh]
	 Correlation Energy        =      -2.4356348292520726 [Eh]
	 Total Energy              =    -581.0667024424928968 [Eh]

	 ================> DF-SCS-MP2 Energies <==================
	-----------------------------------------------------------
	 SCS Same-Spin Scale       =       0.3333333333333333 [-]
	 SCS Opposite-Spin Scale   =       1.2000000000000000 [-]
	 SCS Same-Spin Energy      =      -0.2053698046206132 [Eh]
	 SCS Opposite-Spin Energy  =      -2.1834304984682800 [Eh]
	 SCS Correlation Energy    =      -2.3888003030888934 [Eh]
	 SCS Total Energy          =    -581.0198679163297584 [Eh]
	-----------------------------------------------------------

  Dipole Moment: [D]
     X:     0.0382      Y:    -6.7925      Z:    -0.9393     Total:     6.8572

*** Psi4 exiting successfully. Buy a developer a beer!
