                               Psi4 1.4a3.dev225

  ==> Input File <==

--------------------------------------------------------------------------
#psi4
#
memory 32 gb

molecule  {
0 1
  O        1.6617960     2.5152110     0.0229320
  N       -1.9329240    -0.4005880    -0.0147920
  N        1.9545050     0.2323110     0.0113410
  N        0.2669280    -1.4301930    -0.0208730
  N       -1.3834780     1.7915450    -0.0193170
  N        2.5221760    -2.0364130     0.0734370
  C       -0.5634760    -0.3442740    -0.0026930
  C       -0.2488450     1.0144850    -0.0147620
  C        1.1380320     1.4076430     0.0031510
  C       -2.3683130     0.9036150    -0.0164120
  C        1.5275980    -1.0721200    -0.0057920
  C       -2.7322540    -1.6127190     0.0339130
  H       -3.3759862     1.1333931    -0.0225968
  H       -2.2735910    -2.3629350    -0.6109560
  H       -2.7853950    -1.9995380     1.0543320
  H       -3.7366260    -1.3828770    -0.3245450
  H        2.9468270     0.4301980     0.1174830
  H        2.1372730    -2.9631930    -0.0801050
  H        3.3349710    -1.8642740    -0.5097710
units angstrom
no_reorient  #important for SAPT in psi4, default
symmetry c1  #important for SAPT in psi4, default
}

set PROPERTIES_ORIGIN ["COM"]
properties('MP2/aug-cc-pvtz', properties = ['dipole'])
--------------------------------------------------------------------------

    Molecular point group: c1
  Charge       = 0
  Multiplicity = 1
  Basis Set: AUG-CC-PVTZ
    Blend: AUG-CC-PVTZ
  Basis Set: (AUG-CC-PVTZ AUX)
    Blend: AUG-CC-PVTZ-JKFIT

    Orbital Energies [Eh]
    ---------------------

    Doubly Occupied:

       1A    -20.521418     2A    -15.632420     3A    -15.629380
       4A    -15.610726     5A    -15.571042     6A    -15.559806
       7A    -11.396048     8A    -11.364888     9A    -11.319483
      10A    -11.301562    11A    -11.289232    12A    -11.247064
      13A     -1.390784    14A     -1.360548    15A     -1.333792
      16A     -1.218714    17A     -1.215969    18A     -1.190218
      19A     -1.030304    20A     -0.986135    21A     -0.903909
      22A     -0.882339    23A     -0.810849    24A     -0.766427
      25A     -0.741339    26A     -0.731369    27A     -0.691984
      28A     -0.670829    29A     -0.649956    30A     -0.644115
      31A     -0.625406    32A     -0.610695    33A     -0.599271
      34A     -0.578441    35A     -0.561142    36A     -0.541540
      37A     -0.493131    38A     -0.460323    39A     -0.440269
      40A     -0.429674    41A     -0.429036    42A     -0.392623
      43A     -0.298551

  @DF-RHF Final Energy:  -578.62979560858207

   => Energetics <=

    Nuclear Repulsion Energy =            693.4609671523201087
    One-Electron Energy =               -2163.9360260222401848
    Two-Electron Energy =                 891.8452632613380047
    Total Energy =                       -578.6297956085820715
  Basis Set: (AUG-CC-PVTZ AUX)
    Blend: AUG-CC-PVTZ-RI
    Molecular point group: c1

    Geometry (in Angstrom), charge = 0, multiplicity = 1:

       Center              X                  Y                   Z               Mass
    ------------   -----------------  -----------------  -----------------  -----------------
         O            1.638674307665     2.461304840876     0.020667506711    15.994914619570
         N           -1.956045692335    -0.454494159124    -0.017056493289    14.003074004430
         N            1.931383307665     0.178404840876     0.009076506711    14.003074004430
         N            0.243806307665    -1.484099159124    -0.023137493289    14.003074004430
         N           -1.406599692335     1.737638840876    -0.021581493289    14.003074004430
         N            2.499054307665    -2.090319159124     0.071172506711    14.003074004430
         C           -0.586597692335    -0.398180159124    -0.004957493289    12.000000000000
         C           -0.271966692335     0.960578840876    -0.017026493289    12.000000000000
         C            1.114910307665     1.353736840876     0.000886506711    12.000000000000
         C           -2.391434692335     0.849708840876    -0.018676493289    12.000000000000
         C            1.504476307665    -1.126026159124    -0.008056493289    12.000000000000
         C           -2.755375692335    -1.666625159124     0.031648506711    12.000000000000
         H           -3.399107892335     1.079486940876    -0.024861293289     1.007825032230
         H           -2.296712692335    -2.416841159124    -0.613220493289     1.007825032230
         H           -2.808516692335    -2.053444159124     1.052067506711     1.007825032230
         H           -3.759747692335    -1.436783159124    -0.326809493289     1.007825032230
         H            2.923705307665     0.376291840876     0.115218506711     1.007825032230
         H            2.114151307665    -3.017099159124    -0.082369493289     1.007825032230
         H            3.311849307665    -1.918180159124    -0.512035493289     1.007825032230

  Basis Set: AUG-CC-PVTZ
    Blend: AUG-CC-PVTZ
  Basis Set: (AUG-CC-PVTZ AUX)
    Blend: AUG-CC-PVTZ-JKFIT
	 Reference Energy          =    -578.6297956085820715 [Eh]
	 Singles Energy            =      -0.0000000000000000 [Eh]
	 Same-Spin Energy          =      -0.6159550829341669 [Eh]
	 Opposite-Spin Energy      =      -1.8195031707910303 [Eh]
	 Correlation Energy        =      -2.4354582537251970 [Eh]
	 Total Energy              =    -581.0652538623072587 [Eh]

	 ================> DF-SCS-MP2 Energies <==================
	-----------------------------------------------------------
	 SCS Same-Spin Scale       =       0.3333333333333333 [-]
	 SCS Opposite-Spin Scale   =       1.2000000000000000 [-]
	 SCS Same-Spin Energy      =      -0.2053183609780556 [Eh]
	 SCS Opposite-Spin Energy  =      -2.1834038049492364 [Eh]
	 SCS Correlation Energy    =      -2.3887221659272919 [Eh]
	 SCS Total Energy          =    -581.0185177745094052 [Eh]
	-----------------------------------------------------------

  Dipole Moment: [D]
     X:    -0.5232      Y:    -6.7550      Z:    -0.8510     Total:     6.8285

*** Psi4 exiting successfully. Buy a developer a beer!
