                               Psi4 1.3.2 release

  ==> Input File <==

--------------------------------------------------------------------------
#psi4
#
memory 32 gb

molecule  {
0 1
  O       -1.4697740     2.5644010     0.0803940
  N        1.9215081    -0.5593422    -0.0554006
  N       -1.9102790     0.3061000     0.0485010
  N       -0.3427170    -1.4672350    -0.0387560
  N        1.5166440     1.6409000    -0.0105650
  N       -2.6294290    -1.9169300     0.1110730
  C        0.5576980    -0.4369160    -0.0295360
  C        0.3578145     0.9433770    -0.0097936
  C       -1.0221650     1.4237120     0.0351730
  C        2.4390620     0.6894910    -0.0699270
  C       -1.5730580    -1.0260450     0.0187980
  C        2.6353690    -1.8453210    -0.0655260
  H        3.5092610     0.8590810    -0.0866130
  H        2.3729340    -2.4304260     0.8177420
  H        2.3794720    -2.4140780    -0.9605130
  H        3.7041390    -1.6305860    -0.0592400
  H       -2.8879820     0.5691470     0.1693100
  H       -2.3258040    -2.8676930    -0.0642460
  H       -3.4596940    -1.6726380    -0.4173570
units angstrom
no_reorient  #important for SAPT in psi4, default
symmetry c1  #important for SAPT in psi4, default
}

set PROPERTIES_ORIGIN ["COM"]
properties('MP2/aug-cc-pvtz', properties = ['dipole'])
--------------------------------------------------------------------------

    Molecular point group: c1
  Charge       = 0
  Multiplicity = 1
  Basis Set: AUG-CC-PVTZ
    Blend: AUG-CC-PVTZ
  Basis Set: (AUG-CC-PVTZ AUX)
    Blend: AUG-CC-PVTZ-JKFIT

    Orbital Energies [Eh]
    ---------------------

    Doubly Occupied:

       1A    -20.522411     2A    -15.633362     3A    -15.629531
       4A    -15.610166     5A    -15.570822     6A    -15.555488
       7A    -11.395205     8A    -11.365752     9A    -11.314562
      10A    -11.303784    11A    -11.291164    12A    -11.247403
      13A     -1.391263    14A     -1.364301    15A     -1.335107
      16A     -1.218384    17A     -1.216674    18A     -1.190852
      19A     -1.027264    20A     -0.986049    21A     -0.902060
      22A     -0.881646    23A     -0.807657    24A     -0.765378
      25A     -0.742880    26A     -0.728989    27A     -0.692080
      28A     -0.670928    29A     -0.647841    30A     -0.642061
      31A     -0.625861    32A     -0.610061    33A     -0.593063
      34A     -0.578381    35A     -0.563962    36A     -0.541749
      37A     -0.493369    38A     -0.459227    39A     -0.441605
      40A     -0.429160    41A     -0.426882    42A     -0.395387
      43A     -0.295203

  @DF-RHF Final Energy:  -578.62939651890031

   => Energetics <=

    Nuclear Repulsion Energy =            693.6430046671791843
    One-Electron Energy =               -2164.3348556943719814
    Two-Electron Energy =                 892.0624545082924897
    Total Energy =                       -578.6293965189003075
  Basis Set: (AUG-CC-PVTZ AUX)
    Blend: AUG-CC-PVTZ-RI
    Molecular point group: c1

    Geometry (in Angstrom), charge = 0, multiplicity = 1:

       Center              X                  Y                   Z               Mass
    ------------   -----------------  -----------------  -----------------  -----------------
         O           -1.471722108315     2.562114023704     0.080402245309    15.994914619570
         N            1.919559991685    -0.561629176296    -0.055392354691    14.003074004430
         N           -1.912227108315     0.303813023704     0.048509245309    14.003074004430
         N           -0.344665108315    -1.469521976296    -0.038747754691    14.003074004430
         N            1.514695891685     1.638613023704    -0.010556754691    14.003074004430
         N           -2.631377108315    -1.919216976296     0.111081245309    14.003074004430
         C            0.555749891685    -0.439202976296    -0.029527754691    12.000000000000
         C            0.355866391685     0.941090023704    -0.009785354691    12.000000000000
         C           -1.024113108315     1.421425023704     0.035181245309    12.000000000000
         C            2.437113891685     0.687204023704    -0.069918754691    12.000000000000
         C           -1.575006108315    -1.028331976296     0.018806245309    12.000000000000
         C            2.633420891685    -1.847607976296    -0.065517754691    12.000000000000
         H            3.507312891685     0.856794023704    -0.086604754691     1.007825032230
         H            2.370985891685    -2.432712976296     0.817750245309     1.007825032230
         H            2.377523891685    -2.416364976296    -0.960504754691     1.007825032230
         H            3.702190891685    -1.632872976296    -0.059231754691     1.007825032230
         H           -2.889930108315     0.566860023704     0.169318245309     1.007825032230
         H           -2.327752108315    -2.869979976296    -0.064237754691     1.007825032230
         H           -3.461642108315    -1.674924976296    -0.417348754691     1.007825032230

  Basis Set: AUG-CC-PVTZ
    Blend: AUG-CC-PVTZ
  Basis Set: (AUG-CC-PVTZ AUX)
    Blend: AUG-CC-PVTZ-JKFIT
	 Reference Energy          =    -578.6293965189003075 [Eh]
	 Singles Energy            =      -0.0000000000000000 [Eh]
	 Same-Spin Energy          =      -0.6162559290238743 [Eh]
	 Opposite-Spin Energy      =      -1.8196334650489021 [Eh]
	 Correlation Energy        =      -2.4358893940727766 [Eh]
	 Total Energy              =    -581.0652859129730814 [Eh]

	 ================> DF-SCS-MP2 Energies <==================
	-----------------------------------------------------------
	 SCS Same-Spin Scale       =       0.3333333333333333 [-]
	 SCS Opposite-Spin Scale   =       1.2000000000000000 [-]
	 SCS Same-Spin Energy      =      -0.2054186430079581 [Eh]
	 SCS Opposite-Spin Energy  =      -2.1835601580586825 [Eh]
	 SCS Correlation Energy    =      -2.3889788010666404 [Eh]
	 SCS Total Energy          =    -581.0183753199669354 [Eh]
	-----------------------------------------------------------

  Dipole Moment: [D]
     X:    -0.0144      Y:    -6.7995      Z:    -0.9377     Total:     6.8638

*** Psi4 exiting successfully. Buy a developer a beer!
