                               Psi4 1.3.2 release

  ==> Input File <==

--------------------------------------------------------------------------
#psi4
#
memory 32 gb

molecule  {
0 1
  O       -1.4697740     2.5644010     0.0803940
  N        1.9191590    -0.5831280    -0.0556370
  N       -1.9102790     0.3061000     0.0485010
  N       -0.3427170    -1.4672350    -0.0387560
  N        1.5166440     1.6409000    -0.0105650
  N       -2.6294290    -1.9169300     0.1110730
  C        0.5576980    -0.4369160    -0.0295360
  C        0.3337570     0.9396730    -0.0094060
  C       -0.9654012     1.3759943     0.0258531
  C        2.4390620     0.6894910    -0.0699270
  C       -1.5730580    -1.0260450     0.0187980
  C        2.6353690    -1.8453210    -0.0655260
  H        3.5092610     0.8590810    -0.0866130
  H        2.3729340    -2.4304260     0.8177420
  H        2.3794720    -2.4140780    -0.9605130
  H        3.7041390    -1.6305860    -0.0592400
  H       -2.9007462     0.5173658     0.1669630
  H       -2.3258040    -2.8676930    -0.0642460
  H       -3.4596940    -1.6726380    -0.4173570
units angstrom
no_reorient  #important for SAPT in psi4, default
symmetry c1  #important for SAPT in psi4, default
}

set PROPERTIES_ORIGIN ["COM"]
properties('MP2/aug-cc-pvtz', properties = ['dipole'])
--------------------------------------------------------------------------

    Molecular point group: c1
  Charge       = 0
  Multiplicity = 1
  Basis Set: AUG-CC-PVTZ
    Blend: AUG-CC-PVTZ
  Basis Set: (AUG-CC-PVTZ AUX)
    Blend: AUG-CC-PVTZ-JKFIT

    Orbital Energies [Eh]
    ---------------------

    Doubly Occupied:

       1A    -20.503169     2A    -15.638686     3A    -15.633206
       4A    -15.613653     5A    -15.575849     6A    -15.564674
       7A    -11.398079     8A    -11.360341     9A    -11.329462
      10A    -11.314432    11A    -11.293561    12A    -11.247180
      13A     -1.386065    14A     -1.351766    15A     -1.312773
      16A     -1.221941    17A     -1.214094    18A     -1.195958
      19A     -1.043850    20A     -0.994515    21A     -0.913472
      22A     -0.880967    23A     -0.809700    24A     -0.772358
      25A     -0.749674    26A     -0.734717    27A     -0.693860
      28A     -0.676463    29A     -0.649852    30A     -0.648181
      31A     -0.628692    32A     -0.601728    33A     -0.588701
      34A     -0.575905    35A     -0.565667    36A     -0.528613
      37A     -0.497694    38A     -0.461978    39A     -0.438173
      40A     -0.420938    41A     -0.419656    42A     -0.396487
      43A     -0.304783

  @DF-RHF Final Energy:  -578.61632721477758

   => Energetics <=

    Nuclear Repulsion Energy =            694.0801588160080655
    One-Electron Energy =               -2165.0899439783324851
    Two-Electron Energy =                 892.3934579475469491
    Total Energy =                       -578.6163272147775842
  Basis Set: (AUG-CC-PVTZ AUX)
    Blend: AUG-CC-PVTZ-RI
    Molecular point group: c1

    Geometry (in Angstrom), charge = 0, multiplicity = 1:

       Center              X                  Y                   Z               Mass
    ------------   -----------------  -----------------  -----------------  -----------------
         O           -1.473822594626     2.568186302768     0.081085995657    15.994914619570
         N            1.915110405374    -0.579342697232    -0.054945004343    14.003074004430
         N           -1.914327594626     0.309885302768     0.049192995657    14.003074004430
         N           -0.346765594626    -1.463449697232    -0.038064004343    14.003074004430
         N            1.512595405374     1.644685302768    -0.009873004343    14.003074004430
         N           -2.633477594626    -1.913144697232     0.111764995657    14.003074004430
         C            0.553649405374    -0.433130697232    -0.028844004343    12.000000000000
         C            0.329708405374     0.943458302768    -0.008714004343    12.000000000000
         C           -0.969449794626     1.379779602768     0.026545095657    12.000000000000
         C            2.435013405374     0.693276302768    -0.069235004343    12.000000000000
         C           -1.577106594626    -1.022259697232     0.019489995657    12.000000000000
         C            2.631320405374    -1.841535697232    -0.064834004343    12.000000000000
         H            3.505212405374     0.862866302768    -0.085921004343     1.007825032230
         H            2.368885405374    -2.426640697232     0.818433995657     1.007825032230
         H            2.375423405374    -2.410292697232    -0.959821004343     1.007825032230
         H            3.700090405374    -1.626800697232    -0.058548004343     1.007825032230
         H           -2.904794794626     0.521151102768     0.167654995657     1.007825032230
         H           -2.329852594626    -2.863907697232    -0.063554004343     1.007825032230
         H           -3.463742594626    -1.668852697232    -0.416665004343     1.007825032230

  Basis Set: AUG-CC-PVTZ
    Blend: AUG-CC-PVTZ
  Basis Set: (AUG-CC-PVTZ AUX)
    Blend: AUG-CC-PVTZ-JKFIT
	 Reference Energy          =    -578.6163272147775842 [Eh]
	 Singles Energy            =      -0.0000000000000000 [Eh]
	 Same-Spin Energy          =      -0.6174521023163607 [Eh]
	 Opposite-Spin Energy      =      -1.8224403218128202 [Eh]
	 Correlation Energy        =      -2.4398924241291811 [Eh]
	 Total Energy              =    -581.0562196389067822 [Eh]

	 ================> DF-SCS-MP2 Energies <==================
	-----------------------------------------------------------
	 SCS Same-Spin Scale       =       0.3333333333333333 [-]
	 SCS Opposite-Spin Scale   =       1.2000000000000000 [-]
	 SCS Same-Spin Energy      =      -0.2058173674387869 [Eh]
	 SCS Opposite-Spin Energy  =      -2.1869283861753841 [Eh]
	 SCS Correlation Energy    =      -2.3927457536141712 [Eh]
	 SCS Total Energy          =    -581.0090729683917061 [Eh]
	-----------------------------------------------------------

  Dipole Moment: [D]
     X:     0.3789      Y:    -7.3825      Z:    -0.9656     Total:     7.4550

*** Psi4 exiting successfully. Buy a developer a beer!
