                               Psi4 1.3.2 release

  ==> Input File <==

--------------------------------------------------------------------------
#psi4
#
memory 32 gb

molecule  {
0 1
  O       -1.4697740     2.5644010     0.0803940
  N        1.9191590    -0.5831280    -0.0556370
  N       -1.9102790     0.3061000     0.0485010
  N       -0.3427170    -1.4672350    -0.0387560
  N        1.5166440     1.6409000    -0.0105650
  N       -2.6294290    -1.9169300     0.1110730
  C        0.5576980    -0.4369160    -0.0295360
  C        0.3337570     0.9396730    -0.0094060
  C       -1.0221650     1.4237120     0.0351730
  C        2.4390620     0.6894910    -0.0699270
  C       -1.5730580    -1.0260450     0.0187980
  C        2.6353690    -1.8453210    -0.0655260
  H        3.7067728     0.8903799    -0.0896925
  H        2.3729340    -2.4304260     0.8177420
  H        2.3794720    -2.4140780    -0.9605130
  H        3.7041390    -1.6305860    -0.0592400
  H       -2.8879820     0.5691470     0.1693100
  H       -2.3258040    -2.8676930    -0.0642460
  H       -3.4596940    -1.6726380    -0.4173570
units angstrom
no_reorient  #important for SAPT in psi4, default
symmetry c1  #important for SAPT in psi4, default
}

set PROPERTIES_ORIGIN ["COM"]
properties('MP2/aug-cc-pvtz', properties = ['dipole'])
--------------------------------------------------------------------------

    Molecular point group: c1
  Charge       = 0
  Multiplicity = 1
  Basis Set: AUG-CC-PVTZ
    Blend: AUG-CC-PVTZ
  Basis Set: (AUG-CC-PVTZ AUX)
    Blend: AUG-CC-PVTZ-JKFIT

    Orbital Energies [Eh]
    ---------------------

    Doubly Occupied:

       1A    -20.521284     2A    -15.634916     3A    -15.629790
       4A    -15.611010     5A    -15.571436     6A    -15.561088
       7A    -11.396511     8A    -11.364882     9A    -11.327089
      10A    -11.320233    11A    -11.289046    12A    -11.248284
      13A     -1.391251    14A     -1.361411    15A     -1.334524
      16A     -1.219474    17A     -1.216811    18A     -1.191694
      19A     -1.027135    20A     -0.986482    21A     -0.896537
      22A     -0.881241    23A     -0.798772    24A     -0.767375
      25A     -0.741814    26A     -0.721359    27A     -0.689763
      28A     -0.671234    29A     -0.649623    30A     -0.636234
      31A     -0.626505    32A     -0.610971    33A     -0.578896
      34A     -0.565385    35A     -0.560919    36A     -0.541996
      37A     -0.493864    38A     -0.459745    39A     -0.439555
      40A     -0.429864    41A     -0.429223    42A     -0.393866
      43A     -0.298992

  @DF-RHF Final Energy:  -578.60760478384907

   => Energetics <=

    Nuclear Repulsion Energy =            692.4246207710618819
    One-Electron Energy =               -2161.8882840015471629
    Two-Electron Energy =                 890.8560584466362116
    Total Energy =                       -578.6076047838490695
  Basis Set: (AUG-CC-PVTZ AUX)
    Blend: AUG-CC-PVTZ-RI
    Molecular point group: c1

    Geometry (in Angstrom), charge = 0, multiplicity = 1:

       Center              X                  Y                   Z               Mass
    ------------   -----------------  -----------------  -----------------  -----------------
         O           -1.470979811399     2.564210036652     0.080412924273    15.994914619570
         N            1.917953188601    -0.583318963348    -0.055618075727    14.003074004430
         N           -1.911484811399     0.305909036652     0.048519924273    14.003074004430
         N           -0.343922811399    -1.467425963348    -0.038737075727    14.003074004430
         N            1.515438188601     1.640709036652    -0.010546075727    14.003074004430
         N           -2.630634811399    -1.917120963348     0.111091924273    14.003074004430
         C            0.556492188601    -0.437106963348    -0.029517075727    12.000000000000
         C            0.332551188601     0.939482036652    -0.009387075727    12.000000000000
         C           -1.023370811399     1.423521036652     0.035191924273    12.000000000000
         C            2.437856188601     0.689300036652    -0.069908075727    12.000000000000
         C           -1.574263811399    -1.026235963348     0.018816924273    12.000000000000
         C            2.634163188601    -1.845511963348    -0.065507075727    12.000000000000
         H            3.705566988601     0.890188936652    -0.089673575727     1.007825032230
         H            2.371728188601    -2.430616963348     0.817760924273     1.007825032230
         H            2.378266188601    -2.414268963348    -0.960494075727     1.007825032230
         H            3.702933188601    -1.630776963348    -0.059221075727     1.007825032230
         H           -2.889187811399     0.568956036652     0.169328924273     1.007825032230
         H           -2.327009811399    -2.867883963348    -0.064227075727     1.007825032230
         H           -3.460899811399    -1.672828963348    -0.417338075727     1.007825032230

  Basis Set: AUG-CC-PVTZ
    Blend: AUG-CC-PVTZ
  Basis Set: (AUG-CC-PVTZ AUX)
    Blend: AUG-CC-PVTZ-JKFIT
	 Reference Energy          =    -578.6076047838490695 [Eh]
	 Singles Energy            =      -0.0000000000000000 [Eh]
	 Same-Spin Energy          =      -0.6167697793839705 [Eh]
	 Opposite-Spin Energy      =      -1.8221041047810385 [Eh]
	 Correlation Energy        =      -2.4388738841650088 [Eh]
	 Total Energy              =    -581.0464786680140605 [Eh]

	 ================> DF-SCS-MP2 Energies <==================
	-----------------------------------------------------------
	 SCS Same-Spin Scale       =       0.3333333333333333 [-]
	 SCS Opposite-Spin Scale   =       1.2000000000000000 [-]
	 SCS Same-Spin Energy      =      -0.2055899264613235 [Eh]
	 SCS Opposite-Spin Energy  =      -2.1865249257372459 [Eh]
	 SCS Correlation Energy    =      -2.3921148521985693 [Eh]
	 SCS Total Energy          =    -580.9997196360476437 [Eh]
	-----------------------------------------------------------

  Dipole Moment: [D]
     X:    -0.0458      Y:    -6.7712      Z:    -0.9355     Total:     6.8357

*** Psi4 exiting successfully. Buy a developer a beer!
