                               Psi4 1.3.2 release

  ==> Input File <==

--------------------------------------------------------------------------
#psi4
#
memory 32 gb

molecule  {
0 1
  O       -1.4697740     2.5644010     0.0803940
  N        1.9191590    -0.5831280    -0.0556370
  N       -1.9102790     0.3061000     0.0485010
  N       -0.3427170    -1.4672350    -0.0387560
  N        1.5517169     1.5780387    -0.0117029
  N       -2.6294290    -1.9169300     0.1110730
  C        0.6294410    -0.4233015    -0.0299877
  C        0.3337570     0.9396730    -0.0094060
  C       -1.0221650     1.4237120     0.0351730
  C        2.4390620     0.6894910    -0.0699270
  C       -1.5730580    -1.0260450     0.0187980
  C        2.6353690    -1.8453210    -0.0655260
  H        3.5092610     0.8590810    -0.0866130
  H        2.3729340    -2.4304260     0.8177420
  H        2.3794720    -2.4140780    -0.9605130
  H        3.7041390    -1.6305860    -0.0592400
  H       -2.8879820     0.5691470     0.1693100
  H       -2.3258040    -2.8676930    -0.0642460
  H       -3.4596940    -1.6726380    -0.4173570
units angstrom
no_reorient  #important for SAPT in psi4, default
symmetry c1  #important for SAPT in psi4, default
}

set PROPERTIES_ORIGIN ["COM"]
properties('MP2/aug-cc-pvtz', properties = ['dipole'])
--------------------------------------------------------------------------

    Molecular point group: c1
  Charge       = 0
  Multiplicity = 1
  Basis Set: AUG-CC-PVTZ
    Blend: AUG-CC-PVTZ
  Basis Set: (AUG-CC-PVTZ AUX)
    Blend: AUG-CC-PVTZ-JKFIT

    Orbital Energies [Eh]
    ---------------------

    Doubly Occupied:

       1A    -20.521183     2A    -15.631798     3A    -15.625608
       4A    -15.607921     5A    -15.567116     6A    -15.552263
       7A    -11.392209     8A    -11.366641     9A    -11.318254
      10A    -11.295650    11A    -11.291918    12A    -11.243944
      13A     -1.396896    14A     -1.376537    15A     -1.331161
      16A     -1.221945    17A     -1.214957    18A     -1.187430
      19A     -1.037126    20A     -0.992057    21A     -0.903239
      22A     -0.877686    23A     -0.804005    24A     -0.770454
      25A     -0.749685    26A     -0.727688    27A     -0.691517
      28A     -0.679120    29A     -0.652999    30A     -0.636581
      31A     -0.623145    32A     -0.609593    33A     -0.607538
      34A     -0.586551    35A     -0.569591    36A     -0.540956
      37A     -0.483001    38A     -0.455141    39A     -0.437552
      40A     -0.428680    41A     -0.421970    42A     -0.395345
      43A     -0.306740

  @DF-RHF Final Energy:  -578.62600328665326

   => Energetics <=

    Nuclear Repulsion Energy =            695.0254370204110046
    One-Electron Energy =               -2167.0400953198986826
    Two-Electron Energy =                 893.3886550128343060
    Total Energy =                       -578.6260032866532583
  Basis Set: (AUG-CC-PVTZ AUX)
    Blend: AUG-CC-PVTZ-RI
    Molecular point group: c1

    Geometry (in Angstrom), charge = 0, multiplicity = 1:

       Center              X                  Y                   Z               Mass
    ------------   -----------------  -----------------  -----------------  -----------------
         O           -1.477964857653     2.568744135216     0.080523492196    15.994914619570
         N            1.910968142347    -0.578784864784    -0.055507507804    14.003074004430
         N           -1.918469857653     0.310443135216     0.048630492196    14.003074004430
         N           -0.350907857653    -1.462891864784    -0.038626507804    14.003074004430
         N            1.543526042347     1.582381835216    -0.011573407804    14.003074004430
         N           -2.637619857653    -1.912586864784     0.111202492196    14.003074004430
         C            0.621250142347    -0.418958364784    -0.029858207804    12.000000000000
         C            0.325566142347     0.944016135216    -0.009276507804    12.000000000000
         C           -1.030355857653     1.428055135216     0.035302492196    12.000000000000
         C            2.430871142347     0.693834135216    -0.069797507804    12.000000000000
         C           -1.581248857653    -1.021701864784     0.018927492196    12.000000000000
         C            2.627178142347    -1.840977864784    -0.065396507804    12.000000000000
         H            3.501070142347     0.863424135216    -0.086483507804     1.007825032230
         H            2.364743142347    -2.426082864784     0.817871492196     1.007825032230
         H            2.371281142347    -2.409734864784    -0.960383507804     1.007825032230
         H            3.695948142347    -1.626242864784    -0.059110507804     1.007825032230
         H           -2.896172857653     0.573490135216     0.169439492196     1.007825032230
         H           -2.333994857653    -2.863349864784    -0.064116507804     1.007825032230
         H           -3.467884857653    -1.668294864784    -0.417227507804     1.007825032230

  Basis Set: AUG-CC-PVTZ
    Blend: AUG-CC-PVTZ
  Basis Set: (AUG-CC-PVTZ AUX)
    Blend: AUG-CC-PVTZ-JKFIT
	 Reference Energy          =    -578.6260032866532583 [Eh]
	 Singles Energy            =      -0.0000000000000000 [Eh]
	 Same-Spin Energy          =      -0.6136792670920708 [Eh]
	 Opposite-Spin Energy      =      -1.8153580889819008 [Eh]
	 Correlation Energy        =      -2.4290373560739713 [Eh]
	 Total Energy              =    -581.0550406427272492 [Eh]

	 ================> DF-SCS-MP2 Energies <==================
	-----------------------------------------------------------
	 SCS Same-Spin Scale       =       0.3333333333333333 [-]
	 SCS Opposite-Spin Scale   =       1.2000000000000000 [-]
	 SCS Same-Spin Energy      =      -0.2045597556973569 [Eh]
	 SCS Opposite-Spin Energy  =      -2.1784297067782807 [Eh]
	 SCS Correlation Energy    =      -2.3829894624756376 [Eh]
	 SCS Total Energy          =    -581.0089927491288790 [Eh]
	-----------------------------------------------------------

  Dipole Moment: [D]
     X:     0.2672      Y:    -6.5815      Z:    -0.9400     Total:     6.6537

*** Psi4 exiting successfully. Buy a developer a beer!
