                               Psi4 1.3.2 release

  ==> Input File <==

--------------------------------------------------------------------------
#psi4
#
memory 32 gb

molecule  {
0 1
  O       -1.5092988     2.5480350     0.0817413
  N        1.9191590    -0.5831280    -0.0556370
  N       -1.9486849     0.3377586     0.0508848
  N       -0.3427170    -1.4672350    -0.0387560
  N        1.5166440     1.6409000    -0.0105650
  N       -2.6294290    -1.9169300     0.1110730
  C        0.5576980    -0.4369160    -0.0295360
  C        0.3337570     0.9396730    -0.0094060
  C       -1.0221650     1.4237120     0.0351730
  C        2.4390620     0.6894910    -0.0699270
  C       -1.5730580    -1.0260450     0.0187980
  C        2.6353690    -1.8453210    -0.0655260
  H        3.5092610     0.8590810    -0.0866130
  H        2.3729340    -2.4304260     0.8177420
  H        2.3794720    -2.4140780    -0.9605130
  H        3.7041390    -1.6305860    -0.0592400
  H       -2.8879820     0.5691470     0.1693100
  H       -2.3258040    -2.8676930    -0.0642460
  H       -3.4596940    -1.6726380    -0.4173570
units angstrom
no_reorient  #important for SAPT in psi4, default
symmetry c1  #important for SAPT in psi4, default
}

set PROPERTIES_ORIGIN ["COM"]
properties('MP2/aug-cc-pvtz', properties = ['dipole'])
--------------------------------------------------------------------------

    Molecular point group: c1
  Charge       = 0
  Multiplicity = 1
  Basis Set: AUG-CC-PVTZ
    Blend: AUG-CC-PVTZ
  Basis Set: (AUG-CC-PVTZ AUX)
    Blend: AUG-CC-PVTZ-JKFIT

    Orbital Energies [Eh]
    ---------------------

    Doubly Occupied:

       1A    -20.517086     2A    -15.634707     3A    -15.622811
       4A    -15.611044     5A    -15.574396     6A    -15.561517
       7A    -11.399433     8A    -11.362550     9A    -11.321361
      10A    -11.308329    11A    -11.290633    12A    -11.249563
      13A     -1.388678    14A     -1.361700    15A     -1.329034
      16A     -1.217874    17A     -1.215389    18A     -1.192531
      19A     -1.029432    20A     -0.987847    21A     -0.903280
      22A     -0.877243    23A     -0.806098    24A     -0.768461
      25A     -0.749940    26A     -0.727044    27A     -0.691193
      28A     -0.671538    29A     -0.648375    30A     -0.645906
      31A     -0.623823    32A     -0.608166    33A     -0.596763
      34A     -0.579660    35A     -0.561144    36A     -0.542088
      37A     -0.495954    38A     -0.458889    39A     -0.438373
      40A     -0.429540    41A     -0.426246    42A     -0.394589
      43A     -0.299828

  @DF-RHF Final Energy:  -578.62753769601261

   => Energetics <=

    Nuclear Repulsion Energy =            692.4453625323690176
    One-Electron Energy =               -2161.9056888911986789
    Two-Electron Energy =                 890.8327886628170518
    Total Energy =                       -578.6275376960126096
  Basis Set: (AUG-CC-PVTZ AUX)
    Blend: AUG-CC-PVTZ-RI
    Molecular point group: c1

    Geometry (in Angstrom), charge = 0, multiplicity = 1:

       Center              X                  Y                   Z               Mass
    ------------   -----------------  -----------------  -----------------  -----------------
         O           -1.502210586009     2.546935297206     0.081408641246    15.994914619570
         N            1.926247213991    -0.584227702794    -0.055969658754    14.003074004430
         N           -1.941596686009     0.336658897206     0.050552141246    14.003074004430
         N           -0.335628786009    -1.468334702794    -0.039088658754    14.003074004430
         N            1.523732213991     1.639800297206    -0.010897658754    14.003074004430
         N           -2.622340786009    -1.918029702794     0.110740341246    14.003074004430
         C            0.564786213991    -0.438015702794    -0.029868658754    12.000000000000
         C            0.340845213991     0.938573297206    -0.009738658754    12.000000000000
         C           -1.015076786009     1.422612297206     0.034840341246    12.000000000000
         C            2.446150213991     0.688391297206    -0.070259658754    12.000000000000
         C           -1.565969786009    -1.027144702794     0.018465341246    12.000000000000
         C            2.642457213991    -1.846420702794    -0.065858658754    12.000000000000
         H            3.516349213991     0.857981297206    -0.086945658754     1.007825032230
         H            2.380022213991    -2.431525702794     0.817409341246     1.007825032230
         H            2.386560213991    -2.415177702794    -0.960845658754     1.007825032230
         H            3.711227213991    -1.631685702794    -0.059572658754     1.007825032230
         H           -2.880893786009     0.568047297206     0.168977341246     1.007825032230
         H           -2.318715786009    -2.868792702794    -0.064578658754     1.007825032230
         H           -3.452605786009    -1.673737702794    -0.417689658754     1.007825032230

  Basis Set: AUG-CC-PVTZ
    Blend: AUG-CC-PVTZ
  Basis Set: (AUG-CC-PVTZ AUX)
    Blend: AUG-CC-PVTZ-JKFIT
	 Reference Energy          =    -578.6275376960126096 [Eh]
	 Singles Energy            =      -0.0000000000000000 [Eh]
	 Same-Spin Energy          =      -0.6154278774641244 [Eh]
	 Opposite-Spin Energy      =      -1.8193201732554960 [Eh]
	 Correlation Energy        =      -2.4347480507196204 [Eh]
	 Total Energy              =    -581.0622857467321865 [Eh]

	 ================> DF-SCS-MP2 Energies <==================
	-----------------------------------------------------------
	 SCS Same-Spin Scale       =       0.3333333333333333 [-]
	 SCS Opposite-Spin Scale   =       1.2000000000000000 [-]
	 SCS Same-Spin Energy      =      -0.2051426258213748 [Eh]
	 SCS Opposite-Spin Energy  =      -2.1831842079065953 [Eh]
	 SCS Correlation Energy    =      -2.3883268337279699 [Eh]
	 SCS Total Energy          =    -581.0158645297406110 [Eh]
	-----------------------------------------------------------

  Dipole Moment: [D]
     X:     0.1816      Y:    -6.8966      Z:    -0.9391     Total:     6.9626

*** Psi4 exiting successfully. Buy a developer a beer!
