                               Psi4 1.3.2 release

  ==> Input File <==

--------------------------------------------------------------------------
#psi4
#
memory 32 gb

molecule  {
0 1
  O       -1.4697740     2.5644010     0.0803940
  N        1.9191590    -0.5831280    -0.0556370
  N       -1.9102790     0.3061000     0.0485010
  N       -0.3427170    -1.4672350    -0.0387560
  N        1.5166440     1.6409000    -0.0105650
  N       -2.6294290    -1.9169300     0.1110730
  C        0.5576980    -0.4369160    -0.0295360
  C        0.3276896     0.9500116    -0.0088563
  C       -1.0221650     1.4237120     0.0351730
  C        2.4473409     0.6975808    -0.0698110
  C       -1.5730580    -1.0260450     0.0187980
  C        2.6353690    -1.8453210    -0.0655260
  H        3.5092610     0.8590810    -0.0866130
  H        2.3729340    -2.4304260     0.8177420
  H        2.3794720    -2.4140780    -0.9605130
  H        3.7041390    -1.6305860    -0.0592400
  H       -2.8879820     0.5691470     0.1693100
  H       -2.3258040    -2.8676930    -0.0642460
  H       -3.4596940    -1.6726380    -0.4173570
units angstrom
no_reorient  #important for SAPT in psi4, default
symmetry c1  #important for SAPT in psi4, default
}

set PROPERTIES_ORIGIN ["COM"]
properties('MP2/aug-cc-pvtz', properties = ['dipole'])
--------------------------------------------------------------------------

    Molecular point group: c1
  Charge       = 0
  Multiplicity = 1
  Basis Set: AUG-CC-PVTZ
    Blend: AUG-CC-PVTZ
  Basis Set: (AUG-CC-PVTZ AUX)
    Blend: AUG-CC-PVTZ-JKFIT

    Orbital Energies [Eh]
    ---------------------

    Doubly Occupied:

       1A    -20.519315     2A    -15.632951     3A    -15.629420
       4A    -15.611096     5A    -15.571352     6A    -15.560814
       7A    -11.396652     8A    -11.363033     9A    -11.321542
      10A    -11.307573    11A    -11.289039    12A    -11.247221
      13A     -1.390018    14A     -1.358183    15A     -1.333364
      16A     -1.219215    17A     -1.216393    18A     -1.189925
      19A     -1.029260    20A     -0.985802    21A     -0.901928
      22A     -0.882486    23A     -0.808500    24A     -0.765298
      25A     -0.741231    26A     -0.730579    27A     -0.692396
      28A     -0.670133    29A     -0.648569    30A     -0.642777
      31A     -0.626652    32A     -0.609064    33A     -0.598486
      34A     -0.578419    35A     -0.560264    36A     -0.541309
      37A     -0.493400    38A     -0.459482    39A     -0.439169
      40A     -0.429112    41A     -0.427555    42A     -0.392160
      43A     -0.297949

  @DF-RHF Final Energy:  -578.63005988314421

   => Energetics <=

    Nuclear Repulsion Energy =            693.0709795792491832
    One-Electron Energy =               -2163.1839046771019639
    Two-Electron Energy =                 891.4828652147086814
    Total Energy =                       -578.6300598831442130
  Basis Set: (AUG-CC-PVTZ AUX)
    Blend: AUG-CC-PVTZ-RI
    Molecular point group: c1

    Geometry (in Angstrom), charge = 0, multiplicity = 1:

       Center              X                  Y                   Z               Mass
    ------------   -----------------  -----------------  -----------------  -----------------
         O           -1.469934651773     2.563061416919     0.080345726544    15.994914619570
         N            1.918998348227    -0.584467583081    -0.055685273456    14.003074004430
         N           -1.910439651773     0.304760416919     0.048452726544    14.003074004430
         N           -0.342877651773    -1.468574583081    -0.038804273456    14.003074004430
         N            1.516483348227     1.639560416919    -0.010613273456    14.003074004430
         N           -2.629589651773    -1.918269583081     0.111024726544    14.003074004430
         C            0.557537348227    -0.438255583081    -0.029584273456    12.000000000000
         C            0.327528948227     0.948672016919    -0.008904573456    12.000000000000
         C           -1.022325651773     1.422372416919     0.035124726544    12.000000000000
         C            2.447180248227     0.696241216919    -0.069859273456    12.000000000000
         C           -1.573218651773    -1.027384583081     0.018749726544    12.000000000000
         C            2.635208348227    -1.846660583081    -0.065574273456    12.000000000000
         H            3.509100348227     0.857741416919    -0.086661273456     1.007825032230
         H            2.372773348227    -2.431765583081     0.817693726544     1.007825032230
         H            2.379311348227    -2.415417583081    -0.960561273456     1.007825032230
         H            3.703978348227    -1.631925583081    -0.059288273456     1.007825032230
         H           -2.888142651773     0.567807416919     0.169261726544     1.007825032230
         H           -2.325964651773    -2.869032583081    -0.064294273456     1.007825032230
         H           -3.459854651773    -1.673977583081    -0.417405273456     1.007825032230

  Basis Set: AUG-CC-PVTZ
    Blend: AUG-CC-PVTZ
  Basis Set: (AUG-CC-PVTZ AUX)
    Blend: AUG-CC-PVTZ-JKFIT
	 Reference Energy          =    -578.6300598831442130 [Eh]
	 Singles Energy            =      -0.0000000000000000 [Eh]
	 Same-Spin Energy          =      -0.6161746124507061 [Eh]
	 Opposite-Spin Energy      =      -1.8200025748200250 [Eh]
	 Correlation Energy        =      -2.4361771872707312 [Eh]
	 Total Energy              =    -581.0662370704148998 [Eh]

	 ================> DF-SCS-MP2 Energies <==================
	-----------------------------------------------------------
	 SCS Same-Spin Scale       =       0.3333333333333333 [-]
	 SCS Opposite-Spin Scale   =       1.2000000000000000 [-]
	 SCS Same-Spin Energy      =      -0.2053915374835687 [Eh]
	 SCS Opposite-Spin Energy  =      -2.1840030897840301 [Eh]
	 SCS Correlation Energy    =      -2.3893946272675990 [Eh]
	 SCS Total Energy          =    -581.0194545104118333 [Eh]
	-----------------------------------------------------------

  Dipole Moment: [D]
     X:     0.0098      Y:    -6.7963      Z:    -0.9385     Total:     6.8608

*** Psi4 exiting successfully. Buy a developer a beer!
