                               Psi4 1.3.2 release

  ==> Input File <==

--------------------------------------------------------------------------
#psi4
#
memory 32 gb

molecule  {
0 1
  O       -1.4697740     2.5644010     0.0803940
  N        1.9191590    -0.5831280    -0.0556370
  N       -1.9102790     0.3061000     0.0485010
  N       -0.3427170    -1.4672350    -0.0387560
  N        1.5166440     1.6409000    -0.0105650
  N       -2.6294290    -1.9169300     0.1110730
  C        0.3588776    -0.4155640    -0.0257244
  C        0.3337570     0.9396730    -0.0094060
  C       -1.0221650     1.4237120     0.0351730
  C        2.4390620     0.6894910    -0.0699270
  C       -1.5730580    -1.0260450     0.0187980
  C        2.6353690    -1.8453210    -0.0655260
  H        3.5092610     0.8590810    -0.0866130
  H        2.3729340    -2.4304260     0.8177420
  H        2.3794720    -2.4140780    -0.9605130
  H        3.7041390    -1.6305860    -0.0592400
  H       -2.8879820     0.5691470     0.1693100
  H       -2.3258040    -2.8676930    -0.0642460
  H       -3.4596940    -1.6726380    -0.4173570
units angstrom
no_reorient  #important for SAPT in psi4, default
symmetry c1  #important for SAPT in psi4, default
}

set PROPERTIES_ORIGIN ["COM"]
properties('MP2/aug-cc-pvtz', properties = ['dipole'])
--------------------------------------------------------------------------

    Molecular point group: c1
  Charge       = 0
  Multiplicity = 1
  Basis Set: AUG-CC-PVTZ
    Blend: AUG-CC-PVTZ
  Basis Set: (AUG-CC-PVTZ AUX)
    Blend: AUG-CC-PVTZ-JKFIT

    Orbital Energies [Eh]
    ---------------------

    Doubly Occupied:

       1A    -20.521021     2A    -15.639712     3A    -15.618877
       4A    -15.607665     5A    -15.582499     6A    -15.547310
       7A    -11.408583     8A    -11.363458     9A    -11.324815
      10A    -11.309883    11A    -11.275309    12A    -11.251761
      13A     -1.404235    14A     -1.361389    15A     -1.314637
      16A     -1.250613    17A     -1.228228    18A     -1.171031
      19A     -1.039381    20A     -0.961422    21A     -0.901788
      22A     -0.890891    23A     -0.814055    24A     -0.767308
      25A     -0.738857    26A     -0.723365    27A     -0.697425
      28A     -0.668455    29A     -0.654209    30A     -0.631879
      31A     -0.624637    32A     -0.609030    33A     -0.590140
      34A     -0.559828    35A     -0.548321    36A     -0.541377
      37A     -0.499659    38A     -0.477904    39A     -0.443458
      40A     -0.439939    41A     -0.425603    42A     -0.378407
      43A     -0.296975

  @DF-RHF Final Energy:  -578.58222560586444

   => Energetics <=

    Nuclear Repulsion Energy =            694.1685383834643517
    One-Electron Energy =               -2165.2908507648953673
    Two-Electron Energy =                 892.5400867755666923
    Total Energy =                       -578.5822256058644371
  Basis Set: (AUG-CC-PVTZ AUX)
    Blend: AUG-CC-PVTZ-RI
    Molecular point group: c1

    Geometry (in Angstrom), charge = 0, multiplicity = 1:

       Center              X                  Y                   Z               Mass
    ------------   -----------------  -----------------  -----------------  -----------------
         O           -1.455319912579     2.562848875270     0.080117023995    15.994914619570
         N            1.933613087421    -0.584680124730    -0.055913976005    14.003074004430
         N           -1.895824912579     0.304547875270     0.048224023995    14.003074004430
         N           -0.328262912579    -1.468787124730    -0.039032976005    14.003074004430
         N            1.531098087421     1.639347875270    -0.010841976005    14.003074004430
         N           -2.614974912579    -1.918482124730     0.110796023995    14.003074004430
         C            0.373331687421    -0.417116124730    -0.026001376005    12.000000000000
         C            0.348211087421     0.938120875270    -0.009682976005    12.000000000000
         C           -1.007710912579     1.422159875270     0.034896023995    12.000000000000
         C            2.453516087421     0.687938875270    -0.070203976005    12.000000000000
         C           -1.558603912579    -1.027597124730     0.018521023995    12.000000000000
         C            2.649823087421    -1.846873124730    -0.065802976005    12.000000000000
         H            3.523715087421     0.857528875270    -0.086889976005     1.007825032230
         H            2.387388087421    -2.431978124730     0.817465023995     1.007825032230
         H            2.393926087421    -2.415630124730    -0.960789976005     1.007825032230
         H            3.718593087421    -1.632138124730    -0.059516976005     1.007825032230
         H           -2.873527912579     0.567594875270     0.169033023995     1.007825032230
         H           -2.311349912579    -2.869245124730    -0.064522976005     1.007825032230
         H           -3.445239912579    -1.674190124730    -0.417633976005     1.007825032230

  Basis Set: AUG-CC-PVTZ
    Blend: AUG-CC-PVTZ
  Basis Set: (AUG-CC-PVTZ AUX)
    Blend: AUG-CC-PVTZ-JKFIT
	 Reference Energy          =    -578.5822256058644371 [Eh]
	 Singles Energy            =      -0.0000000000000000 [Eh]
	 Same-Spin Energy          =      -0.6180921313170300 [Eh]
	 Opposite-Spin Energy      =      -1.8234108247582503 [Eh]
	 Correlation Energy        =      -2.4415029560752801 [Eh]
	 Total Energy              =    -581.0237285619397198 [Eh]

	 ================> DF-SCS-MP2 Energies <==================
	-----------------------------------------------------------
	 SCS Same-Spin Scale       =       0.3333333333333333 [-]
	 SCS Opposite-Spin Scale   =       1.2000000000000000 [-]
	 SCS Same-Spin Energy      =      -0.2060307104390100 [Eh]
	 SCS Opposite-Spin Energy  =      -2.1880929897099004 [Eh]
	 SCS Correlation Energy    =      -2.3941237001489104 [Eh]
	 SCS Total Energy          =    -580.9763493060133897 [Eh]
	-----------------------------------------------------------

  Dipole Moment: [D]
     X:    -0.9910      Y:    -6.9214      Z:    -0.9246     Total:     7.0528

*** Psi4 exiting successfully. Buy a developer a beer!
