                               Psi4 1.3.2 release

  ==> Input File <==

--------------------------------------------------------------------------
#psi4
#
memory 32 gb

molecule  {
0 1
  O       -1.4697740     2.5644010     0.0803940
  N        1.9191590    -0.5831280    -0.0556370
  N       -1.9296368     0.3217692     0.0492343
  N       -0.3427170    -1.4672350    -0.0387560
  N        1.5166440     1.6409000    -0.0105650
  N       -2.6294290    -1.9169300     0.1110730
  C        0.5576980    -0.4369160    -0.0295360
  C        0.3420027     0.9634220    -0.0093818
  C       -1.0221650     1.4237120     0.0351730
  C        2.4390620     0.6894910    -0.0699270
  C       -1.5730580    -1.0260450     0.0187980
  C        2.6353690    -1.8453210    -0.0655260
  H        3.5092610     0.8590810    -0.0866130
  H        2.3729340    -2.4304260     0.8177420
  H        2.3794720    -2.4140780    -0.9605130
  H        3.7041390    -1.6305860    -0.0592400
  H       -2.8879820     0.5691470     0.1693100
  H       -2.3258040    -2.8676930    -0.0642460
  H       -3.4596940    -1.6726380    -0.4173570
units angstrom
no_reorient  #important for SAPT in psi4, default
symmetry c1  #important for SAPT in psi4, default
}

set PROPERTIES_ORIGIN ["COM"]
properties('MP2/aug-cc-pvtz', properties = ['dipole'])
--------------------------------------------------------------------------

    Molecular point group: c1
  Charge       = 0
  Multiplicity = 1
  Basis Set: AUG-CC-PVTZ
    Blend: AUG-CC-PVTZ
  Basis Set: (AUG-CC-PVTZ AUX)
    Blend: AUG-CC-PVTZ-JKFIT

    Orbital Energies [Eh]
    ---------------------

    Doubly Occupied:

       1A    -20.517684     2A    -15.634918     3A    -15.627550
       4A    -15.611256     5A    -15.573392     6A    -15.559927
       7A    -11.398251     8A    -11.362489     9A    -11.320947
      10A    -11.306731    11A    -11.290191    12A    -11.249105
      13A     -1.388798    14A     -1.360613    15A     -1.332034
      16A     -1.218528    17A     -1.217715    18A     -1.194147
      19A     -1.025920    20A     -0.987924    21A     -0.902041
      22A     -0.880539    23A     -0.806748    24A     -0.764889
      25A     -0.747466    26A     -0.729227    27A     -0.692000
      28A     -0.670924    29A     -0.647488    30A     -0.645012
      31A     -0.625530    32A     -0.607721    33A     -0.598104
      34A     -0.579132    35A     -0.561629    36A     -0.541526
      37A     -0.495681    38A     -0.459511    39A     -0.439752
      40A     -0.428265    41A     -0.425948    42A     -0.395464
      43A     -0.294687

  @DF-RHF Final Energy:  -578.62889477958674

   => Energetics <=

    Nuclear Repulsion Energy =            692.7198260564126713
    One-Electron Energy =               -2162.4626328164772531
    Two-Electron Energy =                 891.1139119804777238
    Total Energy =                       -578.6288947795867443
  Basis Set: (AUG-CC-PVTZ AUX)
    Blend: AUG-CC-PVTZ-RI
    Molecular point group: c1

    Geometry (in Angstrom), charge = 0, multiplicity = 1:

       Center              X                  Y                   Z               Mass
    ------------   -----------------  -----------------  -----------------  -----------------
         O           -1.468731136589     2.561345341043     0.080330154174    15.994914619570
         N            1.920201863411    -0.586183658957    -0.055700845826    14.003074004430
         N           -1.928593936589     0.318713541043     0.049170454174    14.003074004430
         N           -0.341674136589    -1.470290658957    -0.038819845826    14.003074004430
         N            1.517686863411     1.637844341043    -0.010628845826    14.003074004430
         N           -2.628386136589    -1.919985658957     0.111009154174    14.003074004430
         C            0.558740863411    -0.439971658957    -0.029599845826    12.000000000000
         C            0.343045563411     0.960366341043    -0.009445645826    12.000000000000
         C           -1.021122136589     1.420656341043     0.035109154174    12.000000000000
         C            2.440104863411     0.686435341043    -0.069990845826    12.000000000000
         C           -1.572015136589    -1.029100658957     0.018734154174    12.000000000000
         C            2.636411863411    -1.848376658957    -0.065589845826    12.000000000000
         H            3.510303863411     0.856025341043    -0.086676845826     1.007825032230
         H            2.373976863411    -2.433481658957     0.817678154174     1.007825032230
         H            2.380514863411    -2.417133658957    -0.960576845826     1.007825032230
         H            3.705181863411    -1.633641658957    -0.059303845826     1.007825032230
         H           -2.886939136589     0.566091341043     0.169246154174     1.007825032230
         H           -2.324761136589    -2.870748658957    -0.064309845826     1.007825032230
         H           -3.458651136589    -1.675693658957    -0.417420845826     1.007825032230

  Basis Set: AUG-CC-PVTZ
    Blend: AUG-CC-PVTZ
  Basis Set: (AUG-CC-PVTZ AUX)
    Blend: AUG-CC-PVTZ-JKFIT
	 Reference Energy          =    -578.6288947795867443 [Eh]
	 Singles Energy            =      -0.0000000000000000 [Eh]
	 Same-Spin Energy          =      -0.6162460145119630 [Eh]
	 Opposite-Spin Energy      =      -1.8199251443826019 [Eh]
	 Correlation Energy        =      -2.4361711588945649 [Eh]
	 Total Energy              =    -581.0650659384813252 [Eh]

	 ================> DF-SCS-MP2 Energies <==================
	-----------------------------------------------------------
	 SCS Same-Spin Scale       =       0.3333333333333333 [-]
	 SCS Opposite-Spin Scale   =       1.2000000000000000 [-]
	 SCS Same-Spin Energy      =      -0.2054153381706543 [Eh]
	 SCS Opposite-Spin Energy  =      -2.1839101732591222 [Eh]
	 SCS Correlation Energy    =      -2.3893255114297767 [Eh]
	 SCS Total Energy          =    -581.0182202910165188 [Eh]
	-----------------------------------------------------------

  Dipole Moment: [D]
     X:     0.0655      Y:    -6.8658      Z:    -0.9373     Total:     6.9298

*** Psi4 exiting successfully. Buy a developer a beer!
