                               Psi4 1.3.2 release

  ==> Input File <==

--------------------------------------------------------------------------
#psi4
#
memory 32 gb

molecule  {
0 1
  O       -1.4697740     2.5644010     0.0803940
  N        1.9247017    -0.5799607    -0.0665750
  N       -1.9102790     0.3061000     0.0485010
  N       -0.3427170    -1.4672350    -0.0387560
  N        1.5166440     1.6409000    -0.0105650
  N       -2.6294290    -1.9169300     0.1110730
  C        0.5576980    -0.4369160    -0.0295360
  C        0.3337570     0.9396730    -0.0094060
  C       -1.0221650     1.4237120     0.0351730
  C        2.4390620     0.6894910    -0.0699270
  C       -1.5730580    -1.0260450     0.0187980
  C        2.6353690    -1.8453210    -0.0655260
  H        3.5092610     0.8590810    -0.0866130
  H        2.3787800    -2.4373610     0.8148336
  H        2.3794720    -2.4140780    -0.9605130
  H        3.7041390    -1.6305860    -0.0592400
  H       -2.8879820     0.5691470     0.1693100
  H       -2.3258040    -2.8676930    -0.0642460
  H       -3.4596940    -1.6726380    -0.4173570
units angstrom
no_reorient  #important for SAPT in psi4, default
symmetry c1  #important for SAPT in psi4, default
}

set PROPERTIES_ORIGIN ["COM"]
properties('MP2/aug-cc-pvtz', properties = ['dipole'])
--------------------------------------------------------------------------

    Molecular point group: c1
  Charge       = 0
  Multiplicity = 1
  Basis Set: AUG-CC-PVTZ
    Blend: AUG-CC-PVTZ
  Basis Set: (AUG-CC-PVTZ AUX)
    Blend: AUG-CC-PVTZ-JKFIT

    Orbital Energies [Eh]
    ---------------------

    Doubly Occupied:

       1A    -20.521095     2A    -15.633090     3A    -15.629463
       4A    -15.610692     5A    -15.571098     6A    -15.558913
       7A    -11.396053     8A    -11.364441     9A    -11.319348
      10A    -11.307186    11A    -11.289408    12A    -11.247316
      13A     -1.390725    14A     -1.360515    15A     -1.334173
      16A     -1.219158    17A     -1.216039    18A     -1.190635
      19A     -1.029196    20A     -0.986596    21A     -0.902189
      22A     -0.882204    23A     -0.807855    24A     -0.766725
      25A     -0.741291    26A     -0.729293    27A     -0.692278
      28A     -0.670856    29A     -0.650468    30A     -0.642087
      31A     -0.626665    32A     -0.611008    33A     -0.593380
      34A     -0.577382    35A     -0.561079    36A     -0.541546
      37A     -0.493814    38A     -0.459395    39A     -0.439916
      40A     -0.429232    41A     -0.428931    42A     -0.392929
      43A     -0.298292

  @DF-RHF Final Energy:  -578.63059250418451

   => Energetics <=

    Nuclear Repulsion Energy =            693.3662155822174782
    One-Electron Energy =               -2163.7657037137551015
    Two-Electron Energy =                 891.7688956273530039
    Total Energy =                       -578.6305925041845057
  Basis Set: (AUG-CC-PVTZ AUX)
    Blend: AUG-CC-PVTZ-RI
    Molecular point group: c1

    Geometry (in Angstrom), charge = 0, multiplicity = 1:

       Center              X                  Y                   Z               Mass
    ------------   -----------------  -----------------  -----------------  -----------------
         O           -1.470279779830     2.564174784766     0.081339790230    15.994914619570
         N            1.924195920170    -0.580186915234    -0.065629209770    14.003074004430
         N           -1.910784779830     0.305873784766     0.049446790230    14.003074004430
         N           -0.343222779830    -1.467461215234    -0.037810209770    14.003074004430
         N            1.516138220170     1.640673784766    -0.009619209770    14.003074004430
         N           -2.629934779830    -1.917156215234     0.112018790230    14.003074004430
         C            0.557192220170    -0.437142215234    -0.028590209770    12.000000000000
         C            0.333251220170     0.939446784766    -0.008460209770    12.000000000000
         C           -1.022670779830     1.423485784766     0.036118790230    12.000000000000
         C            2.438556220170     0.689264784766    -0.068981209770    12.000000000000
         C           -1.573563779830    -1.026271215234     0.019743790230    12.000000000000
         C            2.634863220170    -1.845547215234    -0.064580209770    12.000000000000
         H            3.508755220170     0.858854784766    -0.085667209770     1.007825032230
         H            2.378274220170    -2.437587215234     0.815779390230     1.007825032230
         H            2.378966220170    -2.414304215234    -0.959567209770     1.007825032230
         H            3.703633220170    -1.630812215234    -0.058294209770     1.007825032230
         H           -2.888487779830     0.568920784766     0.170255790230     1.007825032230
         H           -2.326309779830    -2.867919215234    -0.063300209770     1.007825032230
         H           -3.460199779830    -1.672864215234    -0.416411209770     1.007825032230

  Basis Set: AUG-CC-PVTZ
    Blend: AUG-CC-PVTZ
  Basis Set: (AUG-CC-PVTZ AUX)
    Blend: AUG-CC-PVTZ-JKFIT
	 Reference Energy          =    -578.6305925041845057 [Eh]
	 Singles Energy            =      -0.0000000000000000 [Eh]
	 Same-Spin Energy          =      -0.6161022531811966 [Eh]
	 Opposite-Spin Energy      =      -1.8198510108955213 [Eh]
	 Correlation Energy        =      -2.4359532640767179 [Eh]
	 Total Energy              =    -581.0665457682612214 [Eh]

	 ================> DF-SCS-MP2 Energies <==================
	-----------------------------------------------------------
	 SCS Same-Spin Scale       =       0.3333333333333333 [-]
	 SCS Opposite-Spin Scale   =       1.2000000000000000 [-]
	 SCS Same-Spin Energy      =      -0.2053674177270655 [Eh]
	 SCS Opposite-Spin Energy  =      -2.1838212130746255 [Eh]
	 SCS Correlation Energy    =      -2.3891886308016912 [Eh]
	 SCS Total Energy          =    -581.0197811349861468 [Eh]
	-----------------------------------------------------------

  Dipole Moment: [D]
     X:    -0.0251      Y:    -6.7946      Z:    -0.9305     Total:     6.8581

*** Psi4 exiting successfully. Buy a developer a beer!
