                               Psi4 1.3.2 release

  ==> Input File <==

--------------------------------------------------------------------------
#psi4
#
memory 32 gb

molecule  {
0 1
  O       -1.4697740     2.5644010     0.0803940
  N        1.9191590    -0.5831280    -0.0556370
  N       -1.9102790     0.3061000     0.0485010
  N       -0.3427170    -1.4672350    -0.0387560
  N        1.4914714     1.6817236    -0.0086682
  N       -2.6294290    -1.9169300     0.1110730
  C        0.5576980    -0.4369160    -0.0295360
  C        0.3337570     0.9396730    -0.0094060
  C       -1.0044073     1.4707336     0.0363812
  C        2.4390620     0.6894910    -0.0699270
  C       -1.5730580    -1.0260450     0.0187980
  C        2.6353690    -1.8453210    -0.0655260
  H        3.5092610     0.8590810    -0.0866130
  H        2.3729340    -2.4304260     0.8177420
  H        2.3794720    -2.4140780    -0.9605130
  H        3.7041390    -1.6305860    -0.0592400
  H       -2.8879820     0.5691470     0.1693100
  H       -2.3258040    -2.8676930    -0.0642460
  H       -3.4596940    -1.6726380    -0.4173570
units angstrom
no_reorient  #important for SAPT in psi4, default
symmetry c1  #important for SAPT in psi4, default
}

set PROPERTIES_ORIGIN ["COM"]
properties('MP2/aug-cc-pvtz', properties = ['dipole'])
--------------------------------------------------------------------------

    Molecular point group: c1
  Charge       = 0
  Multiplicity = 1
  Basis Set: AUG-CC-PVTZ
    Blend: AUG-CC-PVTZ
  Basis Set: (AUG-CC-PVTZ AUX)
    Blend: AUG-CC-PVTZ-JKFIT

    Orbital Energies [Eh]
    ---------------------

    Doubly Occupied:

       1A    -20.531662     2A    -15.637378     3A    -15.619581
       4A    -15.606405     5A    -15.566161     6A    -15.565415
       7A    -11.390802     8A    -11.365325     9A    -11.318434
      10A    -11.312268    11A    -11.290688    12A    -11.246888
      13A     -1.406841    14A     -1.363895    15A     -1.330761
      16A     -1.212121    17A     -1.208220    18A     -1.185308
      19A     -1.023074    20A     -0.989162    21A     -0.898544
      22A     -0.871557    23A     -0.804536    24A     -0.768265
      25A     -0.730669    26A     -0.724913    27A     -0.689258
      28A     -0.669726    29A     -0.654245    30A     -0.639384
      31A     -0.624308    32A     -0.622182    33A     -0.583591
      34A     -0.579629    35A     -0.559705    36A     -0.548412
      37A     -0.493104    38A     -0.456029    39A     -0.443536
      40A     -0.435059    41A     -0.427865    42A     -0.393312
      43A     -0.293127

  @DF-RHF Final Energy:  -578.62229271338902

   => Energetics <=

    Nuclear Repulsion Energy =            692.2772229117634879
    One-Electron Energy =               -2161.6363447066687513
    Two-Electron Energy =                 890.7368290815161345
    Total Energy =                       -578.6222927133890153
  Basis Set: (AUG-CC-PVTZ AUX)
    Blend: AUG-CC-PVTZ-RI
    Molecular point group: c1

    Geometry (in Angstrom), charge = 0, multiplicity = 1:

       Center              X                  Y                   Z               Mass
    ------------   -----------------  -----------------  -----------------  -----------------
         O           -1.468929354948     2.557519515485     0.080145375054    15.994914619570
         N            1.920003645052    -0.590009484515    -0.055885624946    14.003074004430
         N           -1.909434354948     0.299218515485     0.048252375054    14.003074004430
         N           -0.341872354948    -1.474116484515    -0.039004624946    14.003074004430
         N            1.492316045052     1.674842115485    -0.008916824946    14.003074004430
         N           -2.628584354948    -1.923811484515     0.110824375054    14.003074004430
         C            0.558542645052    -0.443797484515    -0.029784624946    12.000000000000
         C            0.334601645052     0.932791515485    -0.009654624946    12.000000000000
         C           -1.003562654948     1.463852115485     0.036132575054    12.000000000000
         C            2.439906645052     0.682609515485    -0.070175624946    12.000000000000
         C           -1.572213354948    -1.032926484515     0.018549375054    12.000000000000
         C            2.636213645052    -1.852202484515    -0.065774624946    12.000000000000
         H            3.510105645052     0.852199515485    -0.086861624946     1.007825032230
         H            2.373778645052    -2.437307484515     0.817493375054     1.007825032230
         H            2.380316645052    -2.420959484515    -0.960761624946     1.007825032230
         H            3.704983645052    -1.637467484515    -0.059488624946     1.007825032230
         H           -2.887137354948     0.562265515485     0.169061375054     1.007825032230
         H           -2.324959354948    -2.874574484515    -0.064494624946     1.007825032230
         H           -3.458849354948    -1.679519484515    -0.417605624946     1.007825032230

  Basis Set: AUG-CC-PVTZ
    Blend: AUG-CC-PVTZ
  Basis Set: (AUG-CC-PVTZ AUX)
    Blend: AUG-CC-PVTZ-JKFIT
	 Reference Energy          =    -578.6222927133890153 [Eh]
	 Singles Energy            =      -0.0000000000000000 [Eh]
	 Same-Spin Energy          =      -0.6169356577530356 [Eh]
	 Opposite-Spin Energy      =      -1.8218410017139204 [Eh]
	 Correlation Energy        =      -2.4387766594669560 [Eh]
	 Total Energy              =    -581.0610693728559681 [Eh]

	 ================> DF-SCS-MP2 Energies <==================
	-----------------------------------------------------------
	 SCS Same-Spin Scale       =       0.3333333333333333 [-]
	 SCS Opposite-Spin Scale   =       1.2000000000000000 [-]
	 SCS Same-Spin Energy      =      -0.2056452192510119 [Eh]
	 SCS Opposite-Spin Energy  =      -2.1862092020567045 [Eh]
	 SCS Correlation Energy    =      -2.3918544213077162 [Eh]
	 SCS Total Energy          =    -581.0141471346967137 [Eh]
	-----------------------------------------------------------

  Dipole Moment: [D]
     X:     0.0366      Y:    -6.4310      Z:    -0.9284     Total:     6.4978

*** Psi4 exiting successfully. Buy a developer a beer!
