                               Psi4 1.3.2 release

  ==> Input File <==

--------------------------------------------------------------------------
#psi4
#
memory 32 gb

molecule  {
0 1
  O       -1.4697740     2.5644010     0.0803940
  N        1.9178289    -0.5950046    -0.0557522
  N       -1.9102790     0.3061000     0.0485010
  N       -0.3427170    -1.4672350    -0.0387560
  N        1.5166440     1.6409000    -0.0105650
  N       -2.6294290    -1.9169300     0.1110730
  C        0.5576980    -0.4369160    -0.0295360
  C        0.3217534     0.9376637    -0.0092145
  C       -1.0221650     1.4237120     0.0351730
  C        2.4390620     0.6894910    -0.0699270
  C       -1.5730580    -1.0260450     0.0187980
  C        2.6353690    -1.8453210    -0.0655260
  H        3.5092610     0.8590810    -0.0866130
  H        2.3729340    -2.4304260     0.8177420
  H        2.3794720    -2.4140780    -0.9605130
  H        3.7041390    -1.6305860    -0.0592400
  H       -2.8879820     0.5691470     0.1693100
  H       -2.3258040    -2.8676930    -0.0642460
  H       -3.4596940    -1.6726380    -0.4173570
units angstrom
no_reorient  #important for SAPT in psi4, default
symmetry c1  #important for SAPT in psi4, default
}

set PROPERTIES_ORIGIN ["COM"]
properties('MP2/aug-cc-pvtz', properties = ['dipole'])
--------------------------------------------------------------------------

    Molecular point group: c1
  Charge       = 0
  Multiplicity = 1
  Basis Set: AUG-CC-PVTZ
    Blend: AUG-CC-PVTZ
  Basis Set: (AUG-CC-PVTZ AUX)
    Blend: AUG-CC-PVTZ-JKFIT

    Orbital Energies [Eh]
    ---------------------

    Doubly Occupied:

       1A    -20.520053     2A    -15.632640     3A    -15.629132
       4A    -15.610923     5A    -15.570875     6A    -15.561631
       7A    -11.396427     8A    -11.363404     9A    -11.321408
      10A    -11.309014    11A    -11.288515    12A    -11.246757
      13A     -1.390458    14A     -1.358969    15A     -1.333331
      16A     -1.219417    17A     -1.215963    18A     -1.190677
      19A     -1.030613    20A     -0.986872    21A     -0.901239
      22A     -0.882364    23A     -0.808022    24A     -0.767626
      25A     -0.740371    26A     -0.729496    27A     -0.692213
      28A     -0.671365    29A     -0.651137    30A     -0.641884
      31A     -0.626948    32A     -0.610607    33A     -0.593882
      34A     -0.578167    35A     -0.559721    36A     -0.541390
      37A     -0.493853    38A     -0.459257    39A     -0.439061
      40A     -0.430040    41A     -0.428944    42A     -0.391481
      43A     -0.300016

  @DF-RHF Final Energy:  -578.63018031509739

   => Energetics <=

    Nuclear Repulsion Energy =            693.3700286693017460
    One-Electron Energy =               -2163.7680944431353964
    Two-Electron Energy =                 891.7678854587362594
    Total Energy =                       -578.6301803150973910
  Basis Set: (AUG-CC-PVTZ AUX)
    Blend: AUG-CC-PVTZ-RI
    Molecular point group: c1

    Geometry (in Angstrom), charge = 0, multiplicity = 1:

       Center              X                  Y                   Z               Mass
    ------------   -----------------  -----------------  -----------------  -----------------
         O           -1.468788396540     2.565554744756     0.080389973062    15.994914619570
         N            1.918814503460    -0.593850855244    -0.055756226938    14.003074004430
         N           -1.909293396540     0.307253744756     0.048496973062    14.003074004430
         N           -0.341731396540    -1.466081255244    -0.038760026938    14.003074004430
         N            1.517629603460     1.642053744756    -0.010569026938    14.003074004430
         N           -2.628443396540    -1.915776255244     0.111068973062    14.003074004430
         C            0.558683603460    -0.435762255244    -0.029540026938    12.000000000000
         C            0.322739003460     0.938817444756    -0.009218526938    12.000000000000
         C           -1.021179396540     1.424865744756     0.035168973062    12.000000000000
         C            2.440047603460     0.690644744756    -0.069931026938    12.000000000000
         C           -1.572072396540    -1.024891255244     0.018793973062    12.000000000000
         C            2.636354603460    -1.844167255244    -0.065530026938    12.000000000000
         H            3.510246603460     0.860234744756    -0.086617026938     1.007825032230
         H            2.373919603460    -2.429272255244     0.817737973062     1.007825032230
         H            2.380457603460    -2.412924255244    -0.960517026938     1.007825032230
         H            3.705124603460    -1.629432255244    -0.059244026938     1.007825032230
         H           -2.886996396540     0.570300744756     0.169305973062     1.007825032230
         H           -2.324818396540    -2.866539255244    -0.064250026938     1.007825032230
         H           -3.458708396540    -1.671484255244    -0.417361026938     1.007825032230

  Basis Set: AUG-CC-PVTZ
    Blend: AUG-CC-PVTZ
  Basis Set: (AUG-CC-PVTZ AUX)
    Blend: AUG-CC-PVTZ-JKFIT
	 Reference Energy          =    -578.6301803150973910 [Eh]
	 Singles Energy            =      -0.0000000000000000 [Eh]
	 Same-Spin Energy          =      -0.6160056685180240 [Eh]
	 Opposite-Spin Energy      =      -1.8199617538246815 [Eh]
	 Correlation Energy        =      -2.4359674223427055 [Eh]
	 Total Energy              =    -581.0661477374401329 [Eh]

	 ================> DF-SCS-MP2 Energies <==================
	-----------------------------------------------------------
	 SCS Same-Spin Scale       =       0.3333333333333333 [-]
	 SCS Opposite-Spin Scale   =       1.2000000000000000 [-]
	 SCS Same-Spin Energy      =      -0.2053352228393413 [Eh]
	 SCS Opposite-Spin Energy  =      -2.1839541045896178 [Eh]
	 SCS Correlation Energy    =      -2.3892893274289593 [Eh]
	 SCS Total Energy          =    -581.0194696425263601 [Eh]
	-----------------------------------------------------------

  Dipole Moment: [D]
     X:    -0.0079      Y:    -6.7858      Z:    -0.9376     Total:     6.8503

*** Psi4 exiting successfully. Buy a developer a beer!
