                               Psi4 1.3.2 release

  ==> Input File <==

--------------------------------------------------------------------------
#psi4
#
memory 32 gb

molecule  {
0 1
  O       -1.4697740     2.5644010     0.0803940
  N        1.9302986    -0.5768898    -0.0775130
  N       -1.9102790     0.3061000     0.0485010
  N       -0.3427170    -1.4672350    -0.0387560
  N        1.5166440     1.6409000    -0.0105650
  N       -2.6294290    -1.9169300     0.1110730
  C        0.5576980    -0.4369160    -0.0295360
  C        0.3337570     0.9396730    -0.0094060
  C       -1.0221650     1.4237120     0.0351730
  C        2.4390620     0.6894910    -0.0699270
  C       -1.5730580    -1.0260450     0.0187980
  C        2.6353690    -1.8453210    -0.0655260
  H        3.5092610     0.8590810    -0.0866130
  H        2.3846455    -2.4442509     0.8118582
  H        2.3794720    -2.4140780    -0.9605130
  H        3.7041390    -1.6305860    -0.0592400
  H       -2.8879820     0.5691470     0.1693100
  H       -2.3258040    -2.8676930    -0.0642460
  H       -3.4596940    -1.6726380    -0.4173570
units angstrom
no_reorient  #important for SAPT in psi4, default
symmetry c1  #important for SAPT in psi4, default
}

set PROPERTIES_ORIGIN ["COM"]
properties('MP2/aug-cc-pvtz', properties = ['dipole'])
--------------------------------------------------------------------------

    Molecular point group: c1
  Charge       = 0
  Multiplicity = 1
  Basis Set: AUG-CC-PVTZ
    Blend: AUG-CC-PVTZ
  Basis Set: (AUG-CC-PVTZ AUX)
    Blend: AUG-CC-PVTZ-JKFIT

    Orbital Energies [Eh]
    ---------------------

    Doubly Occupied:

       1A    -20.521314     2A    -15.633305     3A    -15.629631
       4A    -15.610699     5A    -15.571334     6A    -15.558261
       7A    -11.396065     8A    -11.364623     9A    -11.319593
      10A    -11.307119    11A    -11.289428    12A    -11.247695
      13A     -1.390783    14A     -1.360451    15A     -1.334341
      16A     -1.219242    17A     -1.215895    18A     -1.190631
      19A     -1.028988    20A     -0.986714    21A     -0.902707
      22A     -0.882230    23A     -0.807814    24A     -0.766670
      25A     -0.741380    26A     -0.729243    27A     -0.692393
      28A     -0.670575    29A     -0.651338    30A     -0.642010
      31A     -0.626741    32A     -0.611543    33A     -0.593110
      34A     -0.576122    35A     -0.561090    36A     -0.541488
      37A     -0.493893    38A     -0.459540    39A     -0.439926
      40A     -0.429306    41A     -0.428904    42A     -0.393170
      43A     -0.298178

  @DF-RHF Final Energy:  -578.63021199761488

   => Energetics <=

    Nuclear Repulsion Energy =            693.2760025447466887
    One-Electron Energy =               -2163.5814614617947882
    Two-Electron Energy =                 891.6752469194332207
    Total Energy =                       -578.6302119976148788
  Basis Set: (AUG-CC-PVTZ AUX)
    Blend: AUG-CC-PVTZ-RI
    Molecular point group: c1

    Geometry (in Angstrom), charge = 0, multiplicity = 1:

       Center              X                  Y                   Z               Mass
    ------------   -----------------  -----------------  -----------------  -----------------
         O           -1.470790397902     2.563956336196     0.082285867529    15.994914619570
         N            1.929282202098    -0.577334463804    -0.075621132471    14.003074004430
         N           -1.911295397902     0.305655336196     0.050392867529    14.003074004430
         N           -0.343733397902    -1.467679663804    -0.036864132471    14.003074004430
         N            1.515627602098     1.640455336196    -0.008673132471    14.003074004430
         N           -2.630445397902    -1.917374663804     0.112964867529    14.003074004430
         C            0.556681602098    -0.437360663804    -0.027644132471    12.000000000000
         C            0.332740602098     0.939228336196    -0.007514132471    12.000000000000
         C           -1.023181397902     1.423267336196     0.037064867529    12.000000000000
         C            2.438045602098     0.689046336196    -0.068035132471    12.000000000000
         C           -1.574074397902    -1.026489663804     0.020689867529    12.000000000000
         C            2.634352602098    -1.845765663804    -0.063634132471    12.000000000000
         H            3.508244602098     0.858636336196    -0.084721132471     1.007825032230
         H            2.383629102098    -2.444695563804     0.813750067529     1.007825032230
         H            2.378455602098    -2.414522663804    -0.958621132471     1.007825032230
         H            3.703122602098    -1.631030663804    -0.057348132471     1.007825032230
         H           -2.888998397902     0.568702336196     0.171201867529     1.007825032230
         H           -2.326820397902    -2.868137663804    -0.062354132471     1.007825032230
         H           -3.460710397902    -1.673082663804    -0.415465132471     1.007825032230

  Basis Set: AUG-CC-PVTZ
    Blend: AUG-CC-PVTZ
  Basis Set: (AUG-CC-PVTZ AUX)
    Blend: AUG-CC-PVTZ-JKFIT
	 Reference Energy          =    -578.6302119976148788 [Eh]
	 Singles Energy            =      -0.0000000000000000 [Eh]
	 Same-Spin Energy          =      -0.6161350590105803 [Eh]
	 Opposite-Spin Energy      =      -1.8199007647017567 [Eh]
	 Correlation Energy        =      -2.4360358237123370 [Eh]
	 Total Energy              =    -581.0662478213272379 [Eh]

	 ================> DF-SCS-MP2 Energies <==================
	-----------------------------------------------------------
	 SCS Same-Spin Scale       =       0.3333333333333333 [-]
	 SCS Opposite-Spin Scale   =       1.2000000000000000 [-]
	 SCS Same-Spin Energy      =      -0.2053783530035267 [Eh]
	 SCS Opposite-Spin Energy  =      -2.1838809176421079 [Eh]
	 SCS Correlation Energy    =      -2.3892592706456348 [Eh]
	 SCS Total Energy          =    -581.0194712682605314 [Eh]
	-----------------------------------------------------------

  Dipole Moment: [D]
     X:    -0.0382      Y:    -6.7975      Z:    -0.9234     Total:     6.8601

*** Psi4 exiting successfully. Buy a developer a beer!
