                               Psi4 1.4a3.dev225

  ==> Input File <==

--------------------------------------------------------------------------
#psi4
#
memory 32 gb

molecule  {
0 1
  O        1.6617960     2.5152110     0.0229320
  N       -1.9329240    -0.4005880    -0.0147920
  N        1.9545050     0.2323110     0.0113410
  N        0.2669280    -1.4301930    -0.0208730
  N       -1.3834780     1.7915450    -0.0193170
  N        2.5221760    -2.0364130     0.0734370
  C       -0.5634760    -0.3442740    -0.0026930
  C       -0.2488450     1.0144850    -0.0147620
  C        1.1380320     1.4076430     0.0031510
  C       -2.3683130     0.9036150    -0.0164120
  C        1.5275980    -1.0721200    -0.0057920
  C       -2.7597644    -1.6544367     0.0355893
  H       -3.4247340     1.1445090    -0.0228960
  H       -2.2735910    -2.3629350    -0.6109560
  H       -2.7853950    -1.9995380     1.0543320
  H       -3.7366260    -1.3828770    -0.3245450
  H        2.9468270     0.4301980     0.1174830
  H        2.1372730    -2.9631930    -0.0801050
  H        3.3349710    -1.8642740    -0.5097710
units angstrom
no_reorient  #important for SAPT in psi4, default
symmetry c1  #important for SAPT in psi4, default
}

set PROPERTIES_ORIGIN ["COM"]
properties('MP2/aug-cc-pvtz', properties = ['dipole'])
--------------------------------------------------------------------------

    Molecular point group: c1
  Charge       = 0
  Multiplicity = 1
  Basis Set: AUG-CC-PVTZ
    Blend: AUG-CC-PVTZ
  Basis Set: (AUG-CC-PVTZ AUX)
    Blend: AUG-CC-PVTZ-JKFIT

    Orbital Energies [Eh]
    ---------------------

    Doubly Occupied:

       1A    -20.520395     2A    -15.631125     3A    -15.628482
       4A    -15.610104     5A    -15.570157     6A    -15.558168
       7A    -11.395115     8A    -11.363851     9A    -11.317935
      10A    -11.305393    11A    -11.291135    12A    -11.245744
      13A     -1.389363    14A     -1.356616    15A     -1.331875
      16A     -1.217748    17A     -1.214478    18A     -1.183573
      19A     -1.027429    20A     -0.987747    21A     -0.899368
      22A     -0.880880    23A     -0.805739    24A     -0.763298
      25A     -0.739295    26A     -0.727208    27A     -0.689811
      28A     -0.669356    29A     -0.642312    30A     -0.641567
      31A     -0.626623    32A     -0.608902    33A     -0.592957
      34A     -0.585658    35A     -0.565833    36A     -0.541966
      37A     -0.491456    38A     -0.459515    39A     -0.438820
      40A     -0.428699    41A     -0.427840    42A     -0.392605
      43A     -0.297234

  @DF-RHF Final Energy:  -578.62844557868607

   => Energetics <=

    Nuclear Repulsion Energy =            692.1162440159187099
    One-Electron Energy =               -2161.3626293804004490
    Two-Electron Energy =                 890.6179397857956701
    Total Energy =                       -578.6284455786860690
  Basis Set: (AUG-CC-PVTZ AUX)
    Blend: AUG-CC-PVTZ-RI
    Molecular point group: c1

    Geometry (in Angstrom), charge = 0, multiplicity = 1:

       Center              X                  Y                   Z               Mass
    ------------   -----------------  -----------------  -----------------  -----------------
         O            1.640971911128     2.464269790079     0.020547468837    15.994914619570
         N           -1.953748088872    -0.451529209921    -0.017176531163    14.003074004430
         N            1.933680911128     0.181369790079     0.008956468837    14.003074004430
         N            0.246103911128    -1.481134209921    -0.023257531163    14.003074004430
         N           -1.404302088872     1.740603790079    -0.021701531163    14.003074004430
         N            2.501351911128    -2.087354209921     0.071052468837    14.003074004430
         C           -0.584300088872    -0.395215209921    -0.005077531163    12.000000000000
         C           -0.269669088872     0.963543790079    -0.017146531163    12.000000000000
         C            1.117207911128     1.356701790079     0.000766468837    12.000000000000
         C           -2.389137088872     0.852673790079    -0.018796531163    12.000000000000
         C            1.506773911128    -1.123061209921    -0.008176531163    12.000000000000
         C           -2.780588488872    -1.705377909921     0.033204768837    12.000000000000
         H           -3.445558088872     1.093567790079    -0.025280531163     1.007825032230
         H           -2.294415088872    -2.413876209921    -0.613340531163     1.007825032230
         H           -2.806219088872    -2.050479209921     1.051947468837     1.007825032230
         H           -3.757450088872    -1.433818209921    -0.326929531163     1.007825032230
         H            2.926002911128     0.379256790079     0.115098468837     1.007825032230
         H            2.116448911128    -3.014134209921    -0.082489531163     1.007825032230
         H            3.314146911128    -1.915215209921    -0.512155531163     1.007825032230

  Basis Set: AUG-CC-PVTZ
    Blend: AUG-CC-PVTZ
  Basis Set: (AUG-CC-PVTZ AUX)
    Blend: AUG-CC-PVTZ-JKFIT
	 Reference Energy          =    -578.6284455786860690 [Eh]
	 Singles Energy            =      -0.0000000000000000 [Eh]
	 Same-Spin Energy          =      -0.6158980636161101 [Eh]
	 Opposite-Spin Energy      =      -1.8199222993794546 [Eh]
	 Correlation Energy        =      -2.4358203629955648 [Eh]
	 Total Energy              =    -581.0642659416815832 [Eh]

	 ================> DF-SCS-MP2 Energies <==================
	-----------------------------------------------------------
	 SCS Same-Spin Scale       =       0.3333333333333333 [-]
	 SCS Opposite-Spin Scale   =       1.2000000000000000 [-]
	 SCS Same-Spin Energy      =      -0.2052993545387033 [Eh]
	 SCS Opposite-Spin Energy  =      -2.1839067592553456 [Eh]
	 SCS Correlation Energy    =      -2.3892061137940490 [Eh]
	 SCS Total Energy          =    -581.0176516924801717 [Eh]
	-----------------------------------------------------------

  Dipole Moment: [D]
     X:    -0.6385      Y:    -6.8632      Z:    -0.8394     Total:     6.9438

*** Psi4 exiting successfully. Buy a developer a beer!
