                               Psi4 1.3.2 release

  ==> Input File <==

--------------------------------------------------------------------------
#psi4
#
memory 32 gb

molecule  {
0 1
  O       -1.4697740     2.5644010     0.0803940
  N        1.9234419    -0.5355192    -0.0551563
  N       -1.9102790     0.3061000     0.0485010
  N       -0.3427170    -1.4672350    -0.0387560
  N        1.5166440     1.6409000    -0.0105650
  N       -2.6294290    -1.9169300     0.1110730
  C        0.5576980    -0.4369160    -0.0295360
  C        0.3819329     0.9466606    -0.0101872
  C       -1.0221650     1.4237120     0.0351730
  C        2.4390620     0.6894910    -0.0699270
  C       -1.5730580    -1.0260450     0.0187980
  C        2.6353690    -1.8453210    -0.0655260
  H        3.5092610     0.8590810    -0.0866130
  H        2.3729340    -2.4304260     0.8177420
  H        2.3794720    -2.4140780    -0.9605130
  H        3.7041390    -1.6305860    -0.0592400
  H       -2.8879820     0.5691470     0.1693100
  H       -2.3258040    -2.8676930    -0.0642460
  H       -3.4596940    -1.6726380    -0.4173570
units angstrom
no_reorient  #important for SAPT in psi4, default
symmetry c1  #important for SAPT in psi4, default
}

set PROPERTIES_ORIGIN ["COM"]
properties('MP2/aug-cc-pvtz', properties = ['dipole'])
--------------------------------------------------------------------------

    Molecular point group: c1
  Charge       = 0
  Multiplicity = 1
  Basis Set: AUG-CC-PVTZ
    Blend: AUG-CC-PVTZ
  Basis Set: (AUG-CC-PVTZ AUX)
    Blend: AUG-CC-PVTZ-JKFIT

    Orbital Energies [Eh]
    ---------------------

    Doubly Occupied:

       1A    -20.523756     2A    -15.633895     3A    -15.629611
       4A    -15.609568     5A    -15.570744     6A    -15.551406
       7A    -11.394258     8A    -11.366896     9A    -11.310023
      10A    -11.300328    11A    -11.293008    12A    -11.247932
      13A     -1.392256    14A     -1.368616    15A     -1.335846
      16A     -1.217665    17A     -1.217163    18A     -1.191431
      19A     -1.025501    20A     -0.986112    21A     -0.902058
      22A     -0.880852    23A     -0.807397    24A     -0.764422
      25A     -0.744540    26A     -0.728588    27A     -0.691966
      28A     -0.671068    29A     -0.647986    30A     -0.640860
      31A     -0.625157    32A     -0.609548    33A     -0.592106
      34A     -0.577089    35A     -0.567171    36A     -0.541622
      37A     -0.492902    38A     -0.459148    39A     -0.443237
      40A     -0.429143    41A     -0.424285    42A     -0.398356
      43A     -0.292096

  @DF-RHF Final Energy:  -578.62462739434375

   => Energetics <=

    Nuclear Repulsion Energy =            693.8740387572396457
    One-Electron Energy =               -2164.8021035448109615
    Two-Electron Energy =                 892.3034373932274548
    Total Energy =                       -578.6246273943437473
  Basis Set: (AUG-CC-PVTZ AUX)
    Blend: AUG-CC-PVTZ-RI
    Molecular point group: c1

    Geometry (in Angstrom), charge = 0, multiplicity = 1:

       Center              X                  Y                   Z               Mass
    ------------   -----------------  -----------------  -----------------  -----------------
         O           -1.473639533752     2.559854318154     0.080410134617    15.994914619570
         N            1.919576366248    -0.540065881846    -0.055140165383    14.003074004430
         N           -1.914144533752     0.301553318154     0.048517134617    14.003074004430
         N           -0.346582533752    -1.471781681846    -0.038739865383    14.003074004430
         N            1.512778466248     1.636353318154    -0.010548865383    14.003074004430
         N           -2.633294533752    -1.921476681846     0.111089134617    14.003074004430
         C            0.553832466248    -0.441462681846    -0.029519865383    12.000000000000
         C            0.378067366248     0.942113918154    -0.010171065383    12.000000000000
         C           -1.026030533752     1.419165318154     0.035189134617    12.000000000000
         C            2.435196466248     0.684944318154    -0.069910865383    12.000000000000
         C           -1.576923533752    -1.030591681846     0.018814134617    12.000000000000
         C            2.631503466248    -1.849867681846    -0.065509865383    12.000000000000
         H            3.505395466248     0.854534318154    -0.086596865383     1.007825032230
         H            2.369068466248    -2.434972681846     0.817758134617     1.007825032230
         H            2.375606466248    -2.418624681846    -0.960496865383     1.007825032230
         H            3.700273466248    -1.635132681846    -0.059223865383     1.007825032230
         H           -2.891847533752     0.564600318154     0.169326134617     1.007825032230
         H           -2.329669533752    -2.872239681846    -0.064229865383     1.007825032230
         H           -3.463559533752    -1.677184681846    -0.417340865383     1.007825032230

  Basis Set: AUG-CC-PVTZ
    Blend: AUG-CC-PVTZ
  Basis Set: (AUG-CC-PVTZ AUX)
    Blend: AUG-CC-PVTZ-JKFIT
	 Reference Energy          =    -578.6246273943437473 [Eh]
	 Singles Energy            =      -0.0000000000000000 [Eh]
	 Same-Spin Energy          =      -0.6164897399722353 [Eh]
	 Opposite-Spin Energy      =      -1.8195915919748860 [Eh]
	 Correlation Energy        =      -2.4360813319471211 [Eh]
	 Total Energy              =    -581.0607087262908408 [Eh]

	 ================> DF-SCS-MP2 Energies <==================
	-----------------------------------------------------------
	 SCS Same-Spin Scale       =       0.3333333333333333 [-]
	 SCS Opposite-Spin Scale   =       1.2000000000000000 [-]
	 SCS Same-Spin Energy      =      -0.2054965799907451 [Eh]
	 SCS Opposite-Spin Energy  =      -2.1835099103698630 [Eh]
	 SCS Correlation Energy    =      -2.3890064903606083 [Eh]
	 SCS Total Energy          =    -581.0136338847044044 [Eh]
	-----------------------------------------------------------

  Dipole Moment: [D]
     X:    -0.0053      Y:    -6.8048      Z:    -0.9380     Total:     6.8692

*** Psi4 exiting successfully. Buy a developer a beer!
