                               Psi4 1.3.2 release

  ==> Input File <==

--------------------------------------------------------------------------
#psi4
#
memory 32 gb

molecule  {
0 1
  O       -1.4697740     2.5644010     0.0803940
  N        1.9215130    -0.5593472    -0.0551174
  N       -1.9102790     0.3061000     0.0485010
  N       -0.3605577    -1.4513729    -0.0380863
  N        1.5166440     1.6409000    -0.0105650
  N       -2.6294290    -1.9169300     0.1110730
  C        0.5576980    -0.4369160    -0.0295360
  C        0.3337570     0.9396730    -0.0094060
  C       -1.0221650     1.4237120     0.0351730
  C        2.4390620     0.6894910    -0.0699270
  C       -1.5730580    -1.0260450     0.0187980
  C        2.6353690    -1.8453210    -0.0655260
  H        3.5092610     0.8590810    -0.0866130
  H        2.3729340    -2.4304260     0.8177420
  H        2.3794720    -2.4140780    -0.9605130
  H        3.7041390    -1.6305860    -0.0592400
  H       -2.8879820     0.5691470     0.1693100
  H       -2.3258040    -2.8676930    -0.0642460
  H       -3.4596940    -1.6726380    -0.4173570
units angstrom
no_reorient  #important for SAPT in psi4, default
symmetry c1  #important for SAPT in psi4, default
}

set PROPERTIES_ORIGIN ["COM"]
properties('MP2/aug-cc-pvtz', properties = ['dipole'])
--------------------------------------------------------------------------

    Molecular point group: c1
  Charge       = 0
  Multiplicity = 1
  Basis Set: AUG-CC-PVTZ
    Blend: AUG-CC-PVTZ
  Basis Set: (AUG-CC-PVTZ AUX)
    Blend: AUG-CC-PVTZ-JKFIT

    Orbital Energies [Eh]
    ---------------------

    Doubly Occupied:

       1A    -20.520517     2A    -15.635095     3A    -15.626456
       4A    -15.608184     5A    -15.568536     6A    -15.557062
       7A    -11.391050     8A    -11.363665     9A    -11.318276
      10A    -11.305550    11A    -11.292614    12A    -11.247095
      13A     -1.391543    14A     -1.363319    15A     -1.336596
      16A     -1.217698    17A     -1.216503    18A     -1.189158
      19A     -1.031476    20A     -0.987195    21A     -0.905218
      22A     -0.880638    23A     -0.809692    24A     -0.765810
      25A     -0.741390    26A     -0.729599    27A     -0.691426
      28A     -0.672064    29A     -0.649388    30A     -0.644178
      31A     -0.627612    32A     -0.610453    33A     -0.592497
      34A     -0.580505    35A     -0.563607    36A     -0.542413
      37A     -0.491082    38A     -0.459034    39A     -0.438447
      40A     -0.428282    41A     -0.427609    42A     -0.393938
      43A     -0.299482

  @DF-RHF Final Energy:  -578.63110213810057

   => Energetics <=

    Nuclear Repulsion Energy =            694.1462883496583345
    One-Electron Energy =               -2165.3308728534257170
    Two-Electron Energy =                 892.5534823656668095
    Total Energy =                       -578.6311021381005730
  Basis Set: (AUG-CC-PVTZ AUX)
    Blend: AUG-CC-PVTZ-RI
    Molecular point group: c1

    Geometry (in Angstrom), charge = 0, multiplicity = 1:

       Center              X                  Y                   Z               Mass
    ------------   -----------------  -----------------  -----------------  -----------------
         O           -1.468460085282     2.561038083436     0.080293229329    15.994914619570
         N            1.922826914718    -0.562710116564    -0.055218170671    14.003074004430
         N           -1.908965085282     0.302737083436     0.048400229329    14.003074004430
         N           -0.359243785282    -1.454735816564    -0.038187070671    14.003074004430
         N            1.517957914718     1.637537083436    -0.010665770671    14.003074004430
         N           -2.628115085282    -1.920292916564     0.110972229329    14.003074004430
         C            0.559011914718    -0.440278916564    -0.029636770671    12.000000000000
         C            0.335070914718     0.936310083436    -0.009506770671    12.000000000000
         C           -1.020851085282     1.420349083436     0.035072229329    12.000000000000
         C            2.440375914718     0.686128083436    -0.070027770671    12.000000000000
         C           -1.571744085282    -1.029407916564     0.018697229329    12.000000000000
         C            2.636682914718    -1.848683916564    -0.065626770671    12.000000000000
         H            3.510574914718     0.855718083436    -0.086713770671     1.007825032230
         H            2.374247914718    -2.433788916564     0.817641229329     1.007825032230
         H            2.380785914718    -2.417440916564    -0.960613770671     1.007825032230
         H            3.705452914718    -1.633948916564    -0.059340770671     1.007825032230
         H           -2.886668085282     0.565784083436     0.169209229329     1.007825032230
         H           -2.324490085282    -2.871055916564    -0.064346770671     1.007825032230
         H           -3.458380085282    -1.676000916564    -0.417457770671     1.007825032230

  Basis Set: AUG-CC-PVTZ
    Blend: AUG-CC-PVTZ
  Basis Set: (AUG-CC-PVTZ AUX)
    Blend: AUG-CC-PVTZ-JKFIT
	 Reference Energy          =    -578.6311021381005730 [Eh]
	 Singles Energy            =      -0.0000000000000000 [Eh]
	 Same-Spin Energy          =      -0.6158017257684609 [Eh]
	 Opposite-Spin Energy      =      -1.8189086058871844 [Eh]
	 Correlation Energy        =      -2.4347103316556451 [Eh]
	 Total Energy              =    -581.0658124697562243 [Eh]

	 ================> DF-SCS-MP2 Energies <==================
	-----------------------------------------------------------
	 SCS Same-Spin Scale       =       0.3333333333333333 [-]
	 SCS Opposite-Spin Scale   =       1.2000000000000000 [-]
	 SCS Same-Spin Energy      =      -0.2052672419228203 [Eh]
	 SCS Opposite-Spin Energy  =      -2.1826903270646212 [Eh]
	 SCS Correlation Energy    =      -2.3879575689874413 [Eh]
	 SCS Total Energy          =    -581.0190597070879903 [Eh]
	-----------------------------------------------------------

  Dipole Moment: [D]
     X:     0.1218      Y:    -6.8690      Z:    -0.9447     Total:     6.9348

*** Psi4 exiting successfully. Buy a developer a beer!
