                               Psi4 1.3.2 release

  ==> Input File <==

--------------------------------------------------------------------------
#psi4
#
memory 32 gb

molecule  {
0 1
  O       -1.4697740     2.5644010     0.0803940
  N        1.9191590    -0.5831280    -0.0556370
  N       -1.9487182     0.3377741     0.0499634
  N       -0.3427170    -1.4672350    -0.0387560
  N        1.5166440     1.6409000    -0.0105650
  N       -2.6294290    -1.9169300     0.1110730
  C        0.5576980    -0.4369160    -0.0295360
  C        0.3498328     0.9873112    -0.0093441
  C       -1.0221650     1.4237120     0.0351730
  C        2.4390620     0.6894910    -0.0699270
  C       -1.5730580    -1.0260450     0.0187980
  C        2.6353690    -1.8453210    -0.0655260
  H        3.5092610     0.8590810    -0.0866130
  H        2.3729340    -2.4304260     0.8177420
  H        2.3794720    -2.4140780    -0.9605130
  H        3.7041390    -1.6305860    -0.0592400
  H       -2.8879820     0.5691470     0.1693100
  H       -2.3258040    -2.8676930    -0.0642460
  H       -3.4596940    -1.6726380    -0.4173570
units angstrom
no_reorient  #important for SAPT in psi4, default
symmetry c1  #important for SAPT in psi4, default
}

set PROPERTIES_ORIGIN ["COM"]
properties('MP2/aug-cc-pvtz', properties = ['dipole'])
--------------------------------------------------------------------------

    Molecular point group: c1
  Charge       = 0
  Multiplicity = 1
  Basis Set: AUG-CC-PVTZ
    Blend: AUG-CC-PVTZ
  Basis Set: (AUG-CC-PVTZ AUX)
    Blend: AUG-CC-PVTZ-JKFIT

    Orbital Energies [Eh]
    ---------------------

    Doubly Occupied:

       1A    -20.514668     2A    -15.636951     3A    -15.625786
       4A    -15.611812     5A    -15.575835     6A    -15.560244
       7A    -11.400349     8A    -11.361016     9A    -11.322556
      10A    -11.306096    11A    -11.290977    12A    -11.251373
      13A     -1.387235    14A     -1.360771    15A     -1.330206
      16A     -1.221070    17A     -1.216468    18A     -1.197474
      19A     -1.022641    20A     -0.989463    21A     -0.903419
      22A     -0.878269    23A     -0.805543    24A     -0.763013
      25A     -0.753735    26A     -0.729321    27A     -0.691490
      28A     -0.670799    29A     -0.649068    30A     -0.644538
      31A     -0.624304    32A     -0.606792    33A     -0.600258
      34A     -0.579634    35A     -0.562284    36A     -0.541571
      37A     -0.497514    38A     -0.459948    39A     -0.439300
      40A     -0.427319    41A     -0.422677    42A     -0.398231
      43A     -0.291024

  @DF-RHF Final Energy:  -578.62339130034184

   => Energetics <=

    Nuclear Repulsion Energy =            692.0058132693786774
    One-Electron Energy =               -2161.0123273264089221
    Two-Electron Energy =                 890.3831227566884081
    Total Energy =                       -578.6233913003418365
  Basis Set: (AUG-CC-PVTZ AUX)
    Blend: AUG-CC-PVTZ-RI
    Molecular point group: c1

    Geometry (in Angstrom), charge = 0, multiplicity = 1:

       Center              X                  Y                   Z               Mass
    ------------   -----------------  -----------------  -----------------  -----------------
         O           -1.467681628859     2.558250875142     0.080265561212    15.994914619570
         N            1.921251371141    -0.589278124858    -0.055765438788    14.003074004430
         N           -1.946625828859     0.331623975142     0.049834961212    14.003074004430
         N           -0.340624628859    -1.473385124858    -0.038884438788    14.003074004430
         N            1.518736371141     1.634749875142    -0.010693438788    14.003074004430
         N           -2.627336628859    -1.923080124858     0.110944561212    14.003074004430
         C            0.559790371141    -0.443066124858    -0.029664438788    12.000000000000
         C            0.351925171141     0.981161075142    -0.009472538788    12.000000000000
         C           -1.020072628859     1.417561875142     0.035044561212    12.000000000000
         C            2.441154371141     0.683340875142    -0.070055438788    12.000000000000
         C           -1.570965628859    -1.032195124858     0.018669561212    12.000000000000
         C            2.637461371141    -1.851471124858    -0.065654438788    12.000000000000
         H            3.511353371141     0.852930875142    -0.086741438788     1.007825032230
         H            2.375026371141    -2.436576124858     0.817613561212     1.007825032230
         H            2.381564371141    -2.420228124858    -0.960641438788     1.007825032230
         H            3.706231371141    -1.636736124858    -0.059368438788     1.007825032230
         H           -2.885889628859     0.562996875142     0.169181561212     1.007825032230
         H           -2.323711628859    -2.873843124858    -0.064374438788     1.007825032230
         H           -3.457601628859    -1.678788124858    -0.417485438788     1.007825032230

  Basis Set: AUG-CC-PVTZ
    Blend: AUG-CC-PVTZ
  Basis Set: (AUG-CC-PVTZ AUX)
    Blend: AUG-CC-PVTZ-JKFIT
	 Reference Energy          =    -578.6233913003418365 [Eh]
	 Singles Energy            =      -0.0000000000000000 [Eh]
	 Same-Spin Energy          =      -0.6165152537573551 [Eh]
	 Opposite-Spin Energy      =      -1.8202566021833124 [Eh]
	 Correlation Energy        =      -2.4367718559406675 [Eh]
	 Total Energy              =    -581.0601631562825560 [Eh]

	 ================> DF-SCS-MP2 Energies <==================
	-----------------------------------------------------------
	 SCS Same-Spin Scale       =       0.3333333333333333 [-]
	 SCS Opposite-Spin Scale   =       1.2000000000000000 [-]
	 SCS Same-Spin Energy      =      -0.2055050845857850 [Eh]
	 SCS Opposite-Spin Energy  =      -2.1843079226199746 [Eh]
	 SCS Correlation Energy    =      -2.3898130072057597 [Eh]
	 SCS Total Energy          =    -581.0132043075475394 [Eh]
	-----------------------------------------------------------

  Dipole Moment: [D]
     X:     0.1451      Y:    -6.9349      Z:    -0.9370     Total:     6.9994

*** Psi4 exiting successfully. Buy a developer a beer!
