                               Psi4 1.3.2 release

  ==> Input File <==

--------------------------------------------------------------------------
#psi4
#
memory 32 gb

molecule  {
0 1
  O       -1.4697740     2.5644010     0.0803940
  N        1.9191590    -0.5831280    -0.0556370
  N       -1.9102790     0.3061000     0.0485010
  N       -0.3427170    -1.4672350    -0.0387560
  N        1.5677744     1.6878881    -0.0097686
  N       -2.6294290    -1.9169300     0.1110730
  C        0.5576980    -0.4369160    -0.0295360
  C        0.3337570     0.9396730    -0.0094060
  C       -1.0221650     1.4237120     0.0351730
  C        2.4390620     0.6894910    -0.0699270
  C       -1.5730580    -1.0260450     0.0187980
  C        2.6353690    -1.8453210    -0.0655260
  H        3.4989640     0.9148171    -0.0841015
  H        2.3729340    -2.4304260     0.8177420
  H        2.3794720    -2.4140780    -0.9605130
  H        3.7041390    -1.6305860    -0.0592400
  H       -2.8879820     0.5691470     0.1693100
  H       -2.3258040    -2.8676930    -0.0642460
  H       -3.4596940    -1.6726380    -0.4173570
units angstrom
no_reorient  #important for SAPT in psi4, default
symmetry c1  #important for SAPT in psi4, default
}

set PROPERTIES_ORIGIN ["COM"]
properties('MP2/aug-cc-pvtz', properties = ['dipole'])
--------------------------------------------------------------------------

    Molecular point group: c1
  Charge       = 0
  Multiplicity = 1
  Basis Set: AUG-CC-PVTZ
    Blend: AUG-CC-PVTZ
  Basis Set: (AUG-CC-PVTZ AUX)
    Blend: AUG-CC-PVTZ-JKFIT

    Orbital Energies [Eh]
    ---------------------

    Doubly Occupied:

       1A    -20.519399     2A    -15.633684     3A    -15.629801
       4A    -15.612065     5A    -15.572903     6A    -15.566430
       7A    -11.398157     8A    -11.363717     9A    -11.324093
      10A    -11.309601    11A    -11.290131    12A    -11.250180
      13A     -1.389674    14A     -1.358169    15A     -1.333277
      16A     -1.219973    17A     -1.215087    18A     -1.184097
      19A     -1.032607    20A     -0.984201    21A     -0.899861
      22A     -0.883390    23A     -0.806187    24A     -0.766537
      25A     -0.737846    26A     -0.729691    27A     -0.692424
      28A     -0.671163    29A     -0.650864    30A     -0.643539
      31A     -0.627381    32A     -0.610025    33A     -0.579338
      34A     -0.575497    35A     -0.558394    36A     -0.541706
      37A     -0.495499    38A     -0.460110    39A     -0.440870
      40A     -0.432447    41A     -0.429751    42A     -0.388090
      43A     -0.303766

  @DF-RHF Final Energy:  -578.62488660285203

   => Energetics <=

    Nuclear Repulsion Energy =            691.4503333393622597
    One-Electron Energy =               -2159.9271907042143539
    Two-Electron Energy =                 889.8519707620000645
    Total Energy =                       -578.6248866028520297
  Basis Set: (AUG-CC-PVTZ AUX)
    Blend: AUG-CC-PVTZ-RI
    Molecular point group: c1

    Geometry (in Angstrom), charge = 0, multiplicity = 1:

       Center              X                  Y                   Z               Mass
    ------------   -----------------  -----------------  -----------------  -----------------
         O           -1.474048588431     2.560074659583     0.080311226204    15.994914619570
         N            1.914884411569    -0.587454340417    -0.055719773796    14.003074004430
         N           -1.914553588431     0.301773659583     0.048418226204    14.003074004430
         N           -0.346991588431    -1.471561340417    -0.038838773796    14.003074004430
         N            1.563499811569     1.683561759583    -0.009851373796    14.003074004430
         N           -2.633703588431    -1.921256340417     0.110990226204    14.003074004430
         C            0.553423411569    -0.441242340417    -0.029618773796    12.000000000000
         C            0.329482411569     0.935346659583    -0.009488773796    12.000000000000
         C           -1.026439588431     1.419385659583     0.035090226204    12.000000000000
         C            2.434787411569     0.685164659583    -0.070009773796    12.000000000000
         C           -1.577332588431    -1.030371340417     0.018715226204    12.000000000000
         C            2.631094411569    -1.849647340417    -0.065608773796    12.000000000000
         H            3.494689411569     0.910490759583    -0.084184273796     1.007825032230
         H            2.368659411569    -2.434752340417     0.817659226204     1.007825032230
         H            2.375197411569    -2.418404340417    -0.960595773796     1.007825032230
         H            3.699864411569    -1.634912340417    -0.059322773796     1.007825032230
         H           -2.892256588431     0.564820659583     0.169227226204     1.007825032230
         H           -2.330078588431    -2.872019340417    -0.064328773796     1.007825032230
         H           -3.463968588431    -1.676964340417    -0.417439773796     1.007825032230

  Basis Set: AUG-CC-PVTZ
    Blend: AUG-CC-PVTZ
  Basis Set: (AUG-CC-PVTZ AUX)
    Blend: AUG-CC-PVTZ-JKFIT
	 Reference Energy          =    -578.6248866028520297 [Eh]
	 Singles Energy            =      -0.0000000000000000 [Eh]
	 Same-Spin Energy          =      -0.6155144256022573 [Eh]
	 Opposite-Spin Energy      =      -1.8206325564276402 [Eh]
	 Correlation Energy        =      -2.4361469820298973 [Eh]
	 Total Energy              =    -581.0610335848818977 [Eh]

	 ================> DF-SCS-MP2 Energies <==================
	-----------------------------------------------------------
	 SCS Same-Spin Scale       =       0.3333333333333333 [-]
	 SCS Opposite-Spin Scale   =       1.2000000000000000 [-]
	 SCS Same-Spin Energy      =      -0.2051714752007524 [Eh]
	 SCS Opposite-Spin Energy  =      -2.1847590677131681 [Eh]
	 SCS Correlation Energy    =      -2.3899305429139206 [Eh]
	 SCS Total Energy          =    -581.0148171457659600 [Eh]
	-----------------------------------------------------------

  Dipole Moment: [D]
     X:    -0.1044      Y:    -6.8789      Z:    -0.9356     Total:     6.9430

*** Psi4 exiting successfully. Buy a developer a beer!
