                               Psi4 1.4a3.dev225

  ==> Input File <==

--------------------------------------------------------------------------
#psi4
#
memory 32 gb

molecule  {
0 1
  O        1.6617960     2.5152110     0.0229320
  N       -1.9329240    -0.4005880    -0.0147920
  N        1.9545050     0.2323110     0.0113410
  N        0.2669280    -1.4301930    -0.0208730
  N       -1.3834780     1.7915450    -0.0193170
  N        2.5221760    -2.0364130     0.0734370
  C       -0.5634760    -0.3442740    -0.0026930
  C       -0.2488450     1.0144850    -0.0147620
  C        1.1380320     1.4076430     0.0031510
  C       -2.3683130     0.9036150    -0.0164120
  C        1.5275980    -1.0721200    -0.0057920
  C       -2.7322540    -1.6127190     0.0339130
  H       -3.4247340     1.1445090    -0.0228960
  H       -2.2946222    -2.3285352    -0.5813867
  H       -2.7853950    -1.9995380     1.0543320
  H       -3.7366260    -1.3828770    -0.3245450
  H        2.9468270     0.4301980     0.1174830
  H        2.1372730    -2.9631930    -0.0801050
  H        3.3349710    -1.8642740    -0.5097710
units angstrom
no_reorient  #important for SAPT in psi4, default
symmetry c1  #important for SAPT in psi4, default
}

set PROPERTIES_ORIGIN ["COM"]
properties('MP2/aug-cc-pvtz', properties = ['dipole'])
--------------------------------------------------------------------------

    Molecular point group: c1
  Charge       = 0
  Multiplicity = 1
  Basis Set: AUG-CC-PVTZ
    Blend: AUG-CC-PVTZ
  Basis Set: (AUG-CC-PVTZ AUX)
    Blend: AUG-CC-PVTZ-JKFIT

    Orbital Energies [Eh]
    ---------------------

    Doubly Occupied:

       1A    -20.521395     2A    -15.632430     3A    -15.629406
       4A    -15.610745     5A    -15.571150     6A    -15.559819
       7A    -11.396088     8A    -11.364905     9A    -11.319579
      10A    -11.306872    11A    -11.283563    12A    -11.247181
      13A     -1.390800    14A     -1.360563    15A     -1.333793
      16A     -1.218744    17A     -1.216013    18A     -1.190652
      19A     -1.029235    20A     -0.990219    21A     -0.901750
      22A     -0.881961    23A     -0.807388    24A     -0.767340
      25A     -0.741741    26A     -0.728567    27A     -0.691538
      28A     -0.672039    29A     -0.650337    30A     -0.642289
      31A     -0.627720    32A     -0.611513    33A     -0.594563
      34A     -0.581290    35A     -0.562501    36A     -0.541872
      37A     -0.493515    38A     -0.460370    39A     -0.440089
      40A     -0.429699    41A     -0.429000    42A     -0.392950
      43A     -0.298500

  @DF-RHF Final Energy:  -578.62966968672981

   => Energetics <=

    Nuclear Repulsion Energy =            693.3858947693249775
    One-Electron Energy =               -2163.7877561470213550
    Two-Electron Energy =                 891.7721916909665651
    Total Energy =                       -578.6296696867298124
  Basis Set: (AUG-CC-PVTZ AUX)
    Blend: AUG-CC-PVTZ-RI
    Molecular point group: c1

    Geometry (in Angstrom), charge = 0, multiplicity = 1:

       Center              X                  Y                   Z               Mass
    ------------   -----------------  -----------------  -----------------  -----------------
         O            1.639100351935     2.461026939170     0.020488794514    15.994914619570
         N           -1.955619648065    -0.454772060830    -0.017235205486    14.003074004430
         N            1.931809351935     0.178126939170     0.008897794514    14.003074004430
         N            0.244232351935    -1.484377060830    -0.023316205486    14.003074004430
         N           -1.406173648065     1.737360939170    -0.021760205486    14.003074004430
         N            2.499480351935    -2.090597060830     0.070993794514    14.003074004430
         C           -0.586171648065    -0.398458060830    -0.005136205486    12.000000000000
         C           -0.271540648065     0.960300939170    -0.017205205486    12.000000000000
         C            1.115336351935     1.353458939170     0.000707794514    12.000000000000
         C           -2.391008648065     0.849430939170    -0.018855205486    12.000000000000
         C            1.504902351935    -1.126304060830    -0.008235205486    12.000000000000
         C           -2.754949648065    -1.666903060830     0.031469794514    12.000000000000
         H           -3.447429648065     1.090324939170    -0.025339205486     1.007825032230
         H           -2.317317848065    -2.382719260830    -0.583829905486     1.007825032230
         H           -2.808090648065    -2.053722060830     1.051888794514     1.007825032230
         H           -3.759321648065    -1.437061060830    -0.326988205486     1.007825032230
         H            2.924131351935     0.376013939170     0.115039794514     1.007825032230
         H            2.114577351935    -3.017377060830    -0.082548205486     1.007825032230
         H            3.312275351935    -1.918458060830    -0.512214205486     1.007825032230

  Basis Set: AUG-CC-PVTZ
    Blend: AUG-CC-PVTZ
  Basis Set: (AUG-CC-PVTZ AUX)
    Blend: AUG-CC-PVTZ-JKFIT
	 Reference Energy          =    -578.6296696867298124 [Eh]
	 Singles Energy            =      -0.0000000000000000 [Eh]
	 Same-Spin Energy          =      -0.6160209098099759 [Eh]
	 Opposite-Spin Energy      =      -1.8194866845820536 [Eh]
	 Correlation Energy        =      -2.4355075943920297 [Eh]
	 Total Energy              =    -581.0651772811218052 [Eh]

	 ================> DF-SCS-MP2 Energies <==================
	-----------------------------------------------------------
	 SCS Same-Spin Scale       =       0.3333333333333333 [-]
	 SCS Opposite-Spin Scale   =       1.2000000000000000 [-]
	 SCS Same-Spin Energy      =      -0.2053403032699920 [Eh]
	 SCS Opposite-Spin Energy  =      -2.1833840214984641 [Eh]
	 SCS Correlation Energy    =      -2.3887243247684560 [Eh]
	 SCS Total Energy          =    -581.0183940114982306 [Eh]
	-----------------------------------------------------------

  Dipole Moment: [D]
     X:    -0.5343      Y:    -6.7598      Z:    -0.8545     Total:     6.8345

*** Psi4 exiting successfully. Buy a developer a beer!
