                               Psi4 1.4a3.dev225

  ==> Input File <==

--------------------------------------------------------------------------
#psi4
#
memory 32 gb

molecule  {
0 1
  O        1.6617960     2.5152110     0.0229320
  N       -1.9329240    -0.4005880    -0.0147920
  N        1.9545050     0.2323110     0.0113410
  N        0.2669280    -1.4301930    -0.0208730
  N       -1.3834780     1.7915450    -0.0193170
  N        2.5221760    -2.0364130     0.0734370
  C       -0.5634760    -0.3442740    -0.0026930
  C       -0.2488450     1.0144850    -0.0147620
  C        1.1266217     1.4240684     0.0030365
  C       -2.3683130     0.9036150    -0.0164120
  C        1.5275980    -1.0721200    -0.0057920
  C       -2.7322540    -1.6127190     0.0339130
  H       -3.4247340     1.1445090    -0.0228960
  H       -2.2735910    -2.3629350    -0.6109560
  H       -2.7853950    -1.9995380     1.0543320
  H       -3.7366260    -1.3828770    -0.3245450
  H        2.9468270     0.4301980     0.1174830
  H        2.1372730    -2.9631930    -0.0801050
  H        3.3349710    -1.8642740    -0.5097710
units angstrom
no_reorient  #important for SAPT in psi4, default
symmetry c1  #important for SAPT in psi4, default
}

set PROPERTIES_ORIGIN ["COM"]
properties('MP2/aug-cc-pvtz', properties = ['dipole'])
--------------------------------------------------------------------------

    Molecular point group: c1
  Charge       = 0
  Multiplicity = 1
  Basis Set: AUG-CC-PVTZ
    Blend: AUG-CC-PVTZ
  Basis Set: (AUG-CC-PVTZ AUX)
    Blend: AUG-CC-PVTZ-JKFIT

    Orbital Energies [Eh]
    ---------------------

    Doubly Occupied:

       1A    -20.524330     2A    -15.632993     3A    -15.626089
       4A    -15.609469     5A    -15.569569     6A    -15.559979
       7A    -11.394585     8A    -11.365517     9A    -11.320560
      10A    -11.307060    11A    -11.289179    12A    -11.246782
      13A     -1.393260    14A     -1.363051    15A     -1.333537
      16A     -1.215942    17A     -1.214552    18A     -1.189601
      19A     -1.029420    20A     -0.986605    21A     -0.900608
      22A     -0.878466    23A     -0.805668    24A     -0.766954
      25A     -0.739010    26A     -0.727646    27A     -0.690172
      28A     -0.670446    29A     -0.650553    30A     -0.641263
      31A     -0.623750    32A     -0.614348    33A     -0.594299
      34A     -0.578627    35A     -0.561296    36A     -0.543105
      37A     -0.492474    38A     -0.459822    39A     -0.440806
      40A     -0.430808    41A     -0.429705    42A     -0.392943
      43A     -0.298796

  @DF-RHF Final Energy:  -578.63070931389120

   => Energetics <=

    Nuclear Repulsion Energy =            693.0947413700514517
    One-Electron Energy =               -2163.2436198053201224
    Two-Electron Energy =                 891.5181691213774684
    Total Energy =                       -578.6307093138912023
  Basis Set: (AUG-CC-PVTZ AUX)
    Blend: AUG-CC-PVTZ-RI
    Molecular point group: c1

    Geometry (in Angstrom), charge = 0, multiplicity = 1:

       Center              X                  Y                   Z               Mass
    ------------   -----------------  -----------------  -----------------  -----------------
         O            1.639801456277     2.460042867673     0.020677657504    15.994914619570
         N           -1.954918543723    -0.455756132327    -0.017046342496    14.003074004430
         N            1.932510456277     0.177142867673     0.009086657504    14.003074004430
         N            0.244933456277    -1.485361132327    -0.023127342496    14.003074004430
         N           -1.405472543723     1.736376867673    -0.021571342496    14.003074004430
         N            2.500181456277    -2.091581132327     0.071182657504    14.003074004430
         C           -0.585470543723    -0.399442132327    -0.004947342496    12.000000000000
         C           -0.270839543723     0.959316867673    -0.017016342496    12.000000000000
         C            1.104627156277     1.368900267673     0.000782157504    12.000000000000
         C           -2.390307543723     0.848446867673    -0.018666342496    12.000000000000
         C            1.505603456277    -1.127288132327    -0.008046342496    12.000000000000
         C           -2.754248543723    -1.667887132327     0.031658657504    12.000000000000
         H           -3.446728543723     1.089340867673    -0.025150342496     1.007825032230
         H           -2.295585543723    -2.418103132327    -0.613210342496     1.007825032230
         H           -2.807389543723    -2.054706132327     1.052077657504     1.007825032230
         H           -3.758620543723    -1.438045132327    -0.326799342496     1.007825032230
         H            2.924832456277     0.375029867673     0.115228657504     1.007825032230
         H            2.115278456277    -3.018361132327    -0.082359342496     1.007825032230
         H            3.312976456277    -1.919442132327    -0.512025342496     1.007825032230

  Basis Set: AUG-CC-PVTZ
    Blend: AUG-CC-PVTZ
  Basis Set: (AUG-CC-PVTZ AUX)
    Blend: AUG-CC-PVTZ-JKFIT
	 Reference Energy          =    -578.6307093138912023 [Eh]
	 Singles Energy            =      -0.0000000000000000 [Eh]
	 Same-Spin Energy          =      -0.6159243655689752 [Eh]
	 Opposite-Spin Energy      =      -1.8195612592369725 [Eh]
	 Correlation Energy        =      -2.4354856248059478 [Eh]
	 Total Energy              =    -581.0661949386970946 [Eh]

	 ================> DF-SCS-MP2 Energies <==================
	-----------------------------------------------------------
	 SCS Same-Spin Scale       =       0.3333333333333333 [-]
	 SCS Opposite-Spin Scale   =       1.2000000000000000 [-]
	 SCS Same-Spin Energy      =      -0.2053081218563251 [Eh]
	 SCS Opposite-Spin Energy  =      -2.1834735110843670 [Eh]
	 SCS Correlation Energy    =      -2.3887816329406921 [Eh]
	 SCS Total Energy          =    -581.0194909468318656 [Eh]
	-----------------------------------------------------------

  Dipole Moment: [D]
     X:    -0.5530      Y:    -6.6098      Z:    -0.8495     Total:     6.6871

*** Psi4 exiting successfully. Buy a developer a beer!
