                               Psi4 1.3.2 release

  ==> Input File <==

--------------------------------------------------------------------------
#psi4
#
memory 32 gb

molecule  {
0 1
  O       -1.4697740     2.5644010     0.0803940
  N        1.9191590    -0.5831280    -0.0556370
  N       -1.9102790     0.3061000     0.0485010
  N       -0.3427170    -1.4672350    -0.0387560
  N        1.5166440     1.6409000    -0.0105650
  N       -2.6294290    -1.9169300     0.1110730
  C        0.5576980    -0.4369160    -0.0295360
  C        0.3337570     0.9396730    -0.0094060
  C       -1.0221650     1.4237120     0.0351730
  C        2.4390620     0.6894910    -0.0699270
  C       -1.5582522    -1.0444575     0.0136950
  C        2.6353690    -1.8453210    -0.0655260
  H        3.5092610     0.8590810    -0.0866130
  H        2.3729340    -2.4304260     0.8177420
  H        2.3794720    -2.4140780    -0.9605130
  H        3.7041390    -1.6305860    -0.0592400
  H       -2.8879820     0.5691470     0.1693100
  H       -2.3093031    -2.8618105    -0.0666779
  H       -3.4596940    -1.6726380    -0.4173570
units angstrom
no_reorient  #important for SAPT in psi4, default
symmetry c1  #important for SAPT in psi4, default
}

set PROPERTIES_ORIGIN ["COM"]
properties('MP2/aug-cc-pvtz', properties = ['dipole'])
--------------------------------------------------------------------------

    Molecular point group: c1
  Charge       = 0
  Multiplicity = 1
  Basis Set: AUG-CC-PVTZ
    Blend: AUG-CC-PVTZ
  Basis Set: (AUG-CC-PVTZ AUX)
    Blend: AUG-CC-PVTZ-JKFIT

    Orbital Energies [Eh]
    ---------------------

    Doubly Occupied:

       1A    -20.519952     2A    -15.634235     3A    -15.625515
       4A    -15.609914     5A    -15.572116     6A    -15.560398
       7A    -11.394569     8A    -11.362993     9A    -11.320029
      10A    -11.307922    11A    -11.290258    12A    -11.248198
      13A     -1.389343    14A     -1.361152    15A     -1.333798
      16A     -1.219899    17A     -1.215298    18A     -1.191598
      19A     -1.030749    20A     -0.986995    21A     -0.901166
      22A     -0.878858    23A     -0.809140    24A     -0.767193
      25A     -0.740165    26A     -0.727241    27A     -0.690877
      28A     -0.671904    29A     -0.648756    30A     -0.644190
      31A     -0.626491    32A     -0.610315    33A     -0.593784
      34A     -0.579574    35A     -0.561619    36A     -0.542368
      37A     -0.494670    38A     -0.460278    39A     -0.439120
      40A     -0.429360    41A     -0.427078    42A     -0.393453
      43A     -0.300761

  @DF-RHF Final Energy:  -578.63003641004195

   => Energetics <=

    Nuclear Repulsion Energy =            693.4999763475860846
    One-Electron Energy =               -2164.0334350571715731
    Two-Electron Energy =                 891.9034222995434220
    Total Energy =                       -578.6300364100419529
  Basis Set: (AUG-CC-PVTZ AUX)
    Blend: AUG-CC-PVTZ-RI
    Molecular point group: c1

    Geometry (in Angstrom), charge = 0, multiplicity = 1:

       Center              X                  Y                   Z               Mass
    ------------   -----------------  -----------------  -----------------  -----------------
         O           -1.470950988121     2.565703782721     0.080779951266    15.994914619570
         N            1.917982011879    -0.581825217279    -0.055251048734    14.003074004430
         N           -1.911455988121     0.307402782721     0.048886951266    14.003074004430
         N           -0.343893988121    -1.465932217279    -0.038370048734    14.003074004430
         N            1.515467011879     1.642202782721    -0.010179048734    14.003074004430
         N           -2.630605988121    -1.915627217279     0.111458951266    14.003074004430
         C            0.556521011879    -0.435613217279    -0.029150048734    12.000000000000
         C            0.332580011879     0.940975782721    -0.009020048734    12.000000000000
         C           -1.023341988121     1.425014782721     0.035558951266    12.000000000000
         C            2.437885011879     0.690793782721    -0.069541048734    12.000000000000
         C           -1.559429188121    -1.043154717279     0.014080951266    12.000000000000
         C            2.634192011879    -1.844018217279    -0.065140048734    12.000000000000
         H            3.508084011879     0.860383782721    -0.086227048734     1.007825032230
         H            2.371757011879    -2.429123217279     0.818127951266     1.007825032230
         H            2.378295011879    -2.412775217279    -0.960127048734     1.007825032230
         H            3.702962011879    -1.629283217279    -0.058854048734     1.007825032230
         H           -2.889158988121     0.570449782721     0.169695951266     1.007825032230
         H           -2.310480088121    -2.860507717279    -0.066291948734     1.007825032230
         H           -3.460870988121    -1.671335217279    -0.416971048734     1.007825032230

  Basis Set: AUG-CC-PVTZ
    Blend: AUG-CC-PVTZ
  Basis Set: (AUG-CC-PVTZ AUX)
    Blend: AUG-CC-PVTZ-JKFIT
	 Reference Energy          =    -578.6300364100419529 [Eh]
	 Singles Energy            =      -0.0000000000000000 [Eh]
	 Same-Spin Energy          =      -0.6159231825450899 [Eh]
	 Opposite-Spin Energy      =      -1.8197295056378620 [Eh]
	 Correlation Energy        =      -2.4356526881829517 [Eh]
	 Total Energy              =    -581.0656890982248797 [Eh]

	 ================> DF-SCS-MP2 Energies <==================
	-----------------------------------------------------------
	 SCS Same-Spin Scale       =       0.3333333333333333 [-]
	 SCS Opposite-Spin Scale   =       1.2000000000000000 [-]
	 SCS Same-Spin Energy      =      -0.2053077275150300 [Eh]
	 SCS Opposite-Spin Energy  =      -2.1836754067654343 [Eh]
	 SCS Correlation Energy    =      -2.3889831342804642 [Eh]
	 SCS Total Energy          =    -581.0190195443224184 [Eh]
	-----------------------------------------------------------

  Dipole Moment: [D]
     X:     0.1074      Y:    -6.8505      Z:    -0.9526     Total:     6.9173

*** Psi4 exiting successfully. Buy a developer a beer!
