                               Psi4 1.4a3.dev225

  ==> Input File <==

--------------------------------------------------------------------------
#psi4
#
memory 32 gb

molecule  {
0 1
  O        1.6617960     2.5152110     0.0229320
  N       -1.9329240    -0.4005880    -0.0147920
  N        1.9545050     0.2323110     0.0113410
  N        0.2669280    -1.4301930    -0.0208730
  N       -1.3834780     1.7915450    -0.0193170
  N        2.5221760    -2.0364130     0.0734370
  C       -0.5634760    -0.3442740    -0.0026930
  C       -0.2653461     1.0257859    -0.0148282
  C        1.1380320     1.4076430     0.0031510
  C       -2.3683130     0.9036150    -0.0164120
  C        1.5275980    -1.0721200    -0.0057920
  C       -2.7322540    -1.6127190     0.0339130
  H       -3.4247340     1.1445090    -0.0228960
  H       -2.2735910    -2.3629350    -0.6109560
  H       -2.7853950    -1.9995380     1.0543320
  H       -3.7366260    -1.3828770    -0.3245450
  H        2.9468270     0.4301980     0.1174830
  H        2.1372730    -2.9631930    -0.0801050
  H        3.3349710    -1.8642740    -0.5097710
units angstrom
no_reorient  #important for SAPT in psi4, default
symmetry c1  #important for SAPT in psi4, default
}

set PROPERTIES_ORIGIN ["COM"]
properties('MP2/aug-cc-pvtz', properties = ['dipole'])
--------------------------------------------------------------------------

    Molecular point group: c1
  Charge       = 0
  Multiplicity = 1
  Basis Set: AUG-CC-PVTZ
    Blend: AUG-CC-PVTZ
  Basis Set: (AUG-CC-PVTZ AUX)
    Blend: AUG-CC-PVTZ-JKFIT

    Orbital Energies [Eh]
    ---------------------

    Doubly Occupied:

       1A    -20.521953     2A    -15.633216     3A    -15.629864
       4A    -15.610634     5A    -15.571154     6A    -15.559340
       7A    -11.395802     8A    -11.365840     9A    -11.318321
      10A    -11.306237    11A    -11.288947    12A    -11.248361
      13A     -1.390864    14A     -1.361442    15A     -1.334242
      16A     -1.218645    17A     -1.217305    18A     -1.192858
      19A     -1.026698    20A     -0.986104    21A     -0.900055
      22A     -0.881916    23A     -0.807403    24A     -0.765507
      25A     -0.742411    26A     -0.728763    27A     -0.691232
      28A     -0.670504    29A     -0.648248    30A     -0.642463
      31A     -0.625226    32A     -0.610069    33A     -0.595910
      34A     -0.577976    35A     -0.562039    36A     -0.541423
      37A     -0.493998    38A     -0.460560    39A     -0.441877
      40A     -0.429904    41A     -0.427380    42A     -0.394729
      43A     -0.295626

  @DF-RHF Final Energy:  -578.62976476785116

   => Energetics <=

    Nuclear Repulsion Energy =            693.0800728805534163
    One-Electron Energy =               -2163.1935832272229163
    Two-Electron Energy =                 891.4837455788183433
    Total Energy =                       -578.6297647678511566
  Basis Set: (AUG-CC-PVTZ AUX)
    Blend: AUG-CC-PVTZ-RI
    Molecular point group: c1

    Geometry (in Angstrom), charge = 0, multiplicity = 1:

       Center              X                  Y                   Z               Mass
    ------------   -----------------  -----------------  -----------------  -----------------
         O            1.640171550348     2.460415411688     0.020674146161    15.994914619570
         N           -1.954548449652    -0.455383588312    -0.017049853839    14.003074004430
         N            1.932880550348     0.177515411688     0.009083146161    14.003074004430
         N            0.245303550348    -1.484988588312    -0.023130853839    14.003074004430
         N           -1.405102449652     1.736749411688    -0.021574853839    14.003074004430
         N            2.500551550348    -2.091208588312     0.071179146161    14.003074004430
         C           -0.585100449652    -0.399069588312    -0.004950853839    12.000000000000
         C           -0.286970549652     0.970990311688    -0.017086053839    12.000000000000
         C            1.116407550348     1.352847411688     0.000893146161    12.000000000000
         C           -2.389937449652     0.848819411688    -0.018669853839    12.000000000000
         C            1.505973550348    -1.126915588312    -0.008049853839    12.000000000000
         C           -2.753878449652    -1.667514588312     0.031655146161    12.000000000000
         H           -3.446358449652     1.089713411688    -0.025153853839     1.007825032230
         H           -2.295215449652    -2.417730588312    -0.613213853839     1.007825032230
         H           -2.807019449652    -2.054333588312     1.052074146161     1.007825032230
         H           -3.758250449652    -1.437672588312    -0.326802853839     1.007825032230
         H            2.925202550348     0.375402411688     0.115225146161     1.007825032230
         H            2.115648550348    -3.017988588312    -0.082362853839     1.007825032230
         H            3.313346550348    -1.919069588312    -0.512028853839     1.007825032230

  Basis Set: AUG-CC-PVTZ
    Blend: AUG-CC-PVTZ
  Basis Set: (AUG-CC-PVTZ AUX)
    Blend: AUG-CC-PVTZ-JKFIT
	 Reference Energy          =    -578.6297647678511566 [Eh]
	 Singles Energy            =      -0.0000000000000000 [Eh]
	 Same-Spin Energy          =      -0.6163517618176299 [Eh]
	 Opposite-Spin Energy      =      -1.8199457525816756 [Eh]
	 Correlation Energy        =      -2.4362975143993055 [Eh]
	 Total Energy              =    -581.0660622822504138 [Eh]

	 ================> DF-SCS-MP2 Energies <==================
	-----------------------------------------------------------
	 SCS Same-Spin Scale       =       0.3333333333333333 [-]
	 SCS Opposite-Spin Scale   =       1.2000000000000000 [-]
	 SCS Same-Spin Energy      =      -0.2054505872725433 [Eh]
	 SCS Opposite-Spin Energy  =      -2.1839349030980104 [Eh]
	 SCS Correlation Energy    =      -2.3893854903705538 [Eh]
	 SCS Total Energy          =    -581.0191502582216572 [Eh]
	-----------------------------------------------------------

  Dipole Moment: [D]
     X:    -0.5166      Y:    -6.7209      Z:    -0.8506     Total:     6.7942

*** Psi4 exiting successfully. Buy a developer a beer!
