                               Psi4 1.3.2 release

  ==> Input File <==

--------------------------------------------------------------------------
#psi4
#
memory 32 gb

molecule  {
0 1
  O       -1.4697740     2.5644010     0.0803940
  N        1.9191590    -0.5831280    -0.0556370
  N       -1.9102790     0.3061000     0.0485010
  N       -0.3427170    -1.4672350    -0.0387560
  N        1.5001557     1.6246512    -0.0108667
  N       -2.6294290    -1.9169300     0.1110730
  C        0.5576980    -0.4369160    -0.0295360
  C        0.3337570     0.9396730    -0.0094060
  C       -1.0221650     1.4237120     0.0351730
  C        2.4390620     0.6894910    -0.0699270
  C       -1.5730580    -1.0260450     0.0187980
  C        2.6353690    -1.8453210    -0.0655260
  H        3.5120426     0.8403914    -0.0874404
  H        2.3729340    -2.4304260     0.8177420
  H        2.3794720    -2.4140780    -0.9605130
  H        3.7041390    -1.6305860    -0.0592400
  H       -2.8879820     0.5691470     0.1693100
  H       -2.3258040    -2.8676930    -0.0642460
  H       -3.4596940    -1.6726380    -0.4173570
units angstrom
no_reorient  #important for SAPT in psi4, default
symmetry c1  #important for SAPT in psi4, default
}

set PROPERTIES_ORIGIN ["COM"]
properties('MP2/aug-cc-pvtz', properties = ['dipole'])
--------------------------------------------------------------------------

    Molecular point group: c1
  Charge       = 0
  Multiplicity = 1
  Basis Set: AUG-CC-PVTZ
    Blend: AUG-CC-PVTZ
  Basis Set: (AUG-CC-PVTZ AUX)
    Blend: AUG-CC-PVTZ-JKFIT

    Orbital Energies [Eh]
    ---------------------

    Doubly Occupied:

       1A    -20.521444     2A    -15.632607     3A    -15.629136
       4A    -15.610219     5A    -15.570160     6A    -15.557228
       7A    -11.395315     8A    -11.364454     9A    -11.317383
      10A    -11.306439    11A    -11.289112    12A    -11.245748
      13A     -1.391142    14A     -1.361637    15A     -1.334252
      16A     -1.218928    17A     -1.216895    18A     -1.192666
      19A     -1.028375    20A     -0.987292    21A     -0.902406
      22A     -0.881643    23A     -0.808448    24A     -0.767091
      25A     -0.742393    26A     -0.729177    27A     -0.692064
      28A     -0.671196    29A     -0.649316    30A     -0.641582
      31A     -0.626346    32A     -0.610678    33A     -0.599164
      34A     -0.578346    35A     -0.562082    36A     -0.541568
      37A     -0.493176    38A     -0.459005    39A     -0.440223
      40A     -0.428978    41A     -0.426781    42A     -0.394416
      43A     -0.296485

  @DF-RHF Final Energy:  -578.63060092121100

   => Energetics <=

    Nuclear Repulsion Energy =            694.1447077790905951
    One-Electron Energy =               -2165.3246217146015624
    Two-Electron Energy =                 892.5493130142999689
    Total Energy =                       -578.6306009212109984
  Basis Set: (AUG-CC-PVTZ AUX)
    Blend: AUG-CC-PVTZ-RI
    Molecular point group: c1

    Geometry (in Angstrom), charge = 0, multiplicity = 1:

       Center              X                  Y                   Z               Mass
    ------------   -----------------  -----------------  -----------------  -----------------
         O           -1.468392099284     2.565893692847     0.080424768117    15.994914619570
         N            1.920540900716    -0.581635307153    -0.055606231883    14.003074004430
         N           -1.908897099284     0.307592692847     0.048531768117    14.003074004430
         N           -0.341335099284    -1.465742307153    -0.038725231883    14.003074004430
         N            1.501537600716     1.626143892847    -0.010835931883    14.003074004430
         N           -2.628047099284    -1.915437307153     0.111103768117    14.003074004430
         C            0.559079900716    -0.435423307153    -0.029505231883    12.000000000000
         C            0.335138900716     0.941165692847    -0.009375231883    12.000000000000
         C           -1.020783099284     1.425204692847     0.035203768117    12.000000000000
         C            2.440443900716     0.690983692847    -0.069896231883    12.000000000000
         C           -1.571676099284    -1.024552307153     0.018828768117    12.000000000000
         C            2.636750900716    -1.843828307153    -0.065495231883    12.000000000000
         H            3.513424500716     0.841884092847    -0.087409631883     1.007825032230
         H            2.374315900716    -2.428933307153     0.817772768117     1.007825032230
         H            2.380853900716    -2.412585307153    -0.960482231883     1.007825032230
         H            3.705520900716    -1.629093307153    -0.059209231883     1.007825032230
         H           -2.886600099284     0.570639692847     0.169340768117     1.007825032230
         H           -2.324422099284    -2.866200307153    -0.064215231883     1.007825032230
         H           -3.458312099284    -1.671145307153    -0.417326231883     1.007825032230

  Basis Set: AUG-CC-PVTZ
    Blend: AUG-CC-PVTZ
  Basis Set: (AUG-CC-PVTZ AUX)
    Blend: AUG-CC-PVTZ-JKFIT
	 Reference Energy          =    -578.6306009212109984 [Eh]
	 Singles Energy            =      -0.0000000000000000 [Eh]
	 Same-Spin Energy          =      -0.6163399328389511 [Eh]
	 Opposite-Spin Energy      =      -1.8197007938455720 [Eh]
	 Correlation Energy        =      -2.4360407266845230 [Eh]
	 Total Energy              =    -581.0666416478954943 [Eh]

	 ================> DF-SCS-MP2 Energies <==================
	-----------------------------------------------------------
	 SCS Same-Spin Scale       =       0.3333333333333333 [-]
	 SCS Opposite-Spin Scale   =       1.2000000000000000 [-]
	 SCS Same-Spin Energy      =      -0.2054466442796503 [Eh]
	 SCS Opposite-Spin Energy  =      -2.1836409526146863 [Eh]
	 SCS Correlation Energy    =      -2.3890875968943366 [Eh]
	 SCS Total Energy          =    -581.0196885181053403 [Eh]
	-----------------------------------------------------------

  Dipole Moment: [D]
     X:     0.0180      Y:    -6.7563      Z:    -0.9381     Total:     6.8211

*** Psi4 exiting successfully. Buy a developer a beer!
