                               Psi4 1.3.2 release

  ==> Input File <==

--------------------------------------------------------------------------
#psi4
#
memory 32 gb

molecule  {
0 1
  O       -1.4697740     2.5644010     0.0803940
  N        1.9191590    -0.5831280    -0.0556370
  N       -1.9102790     0.3061000     0.0485010
  N       -0.3427170    -1.4672350    -0.0387560
  N        1.5042360     1.6614217    -0.0096166
  N       -2.6294290    -1.9169300     0.1110730
  C        0.5576980    -0.4369160    -0.0295360
  C        0.3337570     0.9396730    -0.0094060
  C       -1.0134913     1.4473001     0.0357840
  C        2.4390620     0.6894910    -0.0699270
  C       -1.5730580    -1.0260450     0.0187980
  C        2.6353690    -1.8453210    -0.0655260
  H        3.5092610     0.8590810    -0.0866130
  H        2.3729340    -2.4304260     0.8177420
  H        2.3794720    -2.4140780    -0.9605130
  H        3.7041390    -1.6305860    -0.0592400
  H       -2.8879820     0.5691470     0.1693100
  H       -2.3258040    -2.8676930    -0.0642460
  H       -3.4596940    -1.6726380    -0.4173570
units angstrom
no_reorient  #important for SAPT in psi4, default
symmetry c1  #important for SAPT in psi4, default
}

set PROPERTIES_ORIGIN ["COM"]
properties('MP2/aug-cc-pvtz', properties = ['dipole'])
--------------------------------------------------------------------------

    Molecular point group: c1
  Charge       = 0
  Multiplicity = 1
  Basis Set: AUG-CC-PVTZ
    Blend: AUG-CC-PVTZ
  Basis Set: (AUG-CC-PVTZ AUX)
    Blend: AUG-CC-PVTZ-JKFIT

    Orbital Energies [Eh]
    ---------------------

    Doubly Occupied:

       1A    -20.526245     2A    -15.635117     3A    -15.624598
       4A    -15.608584     5A    -15.568514     6A    -15.562513
       7A    -11.393481     8A    -11.364785     9A    -11.318761
      10A    -11.309806    11A    -11.290036    12A    -11.246773
      13A     -1.396670    14A     -1.363170    15A     -1.333024
      16A     -1.215383    17A     -1.212423    18A     -1.188071
      19A     -1.026219    20A     -0.987800    21A     -0.899985
      22A     -0.876854    23A     -0.806027    24A     -0.767650
      25A     -0.735880    26A     -0.727131    27A     -0.690528
      28A     -0.670334    29A     -0.651821    30A     -0.640484
      31A     -0.624701    32A     -0.617309    33A     -0.588563
      34A     -0.579152    35A     -0.559962    36A     -0.544954
      37A     -0.493396    38A     -0.457677    39A     -0.442004
      40A     -0.432313    41A     -0.428823    42A     -0.392961
      43A     -0.295777

  @DF-RHF Final Energy:  -578.62785939262824

   => Energetics <=

    Nuclear Repulsion Energy =            692.8477250109893930
    One-Electron Energy =               -2162.7586452298951372
    Two-Electron Energy =                 891.2830608262773922
    Total Energy =                       -578.6278593926282383
  Basis Set: (AUG-CC-PVTZ AUX)
    Blend: AUG-CC-PVTZ-RI
    Molecular point group: c1

    Geometry (in Angstrom), charge = 0, multiplicity = 1:

       Center              X                  Y                   Z               Mass
    ------------   -----------------  -----------------  -----------------  -----------------
         O           -1.469351828598     2.560945382889     0.080269246910    15.994914619570
         N            1.919581171402    -0.586583617111    -0.055761753090    14.003074004430
         N           -1.909856828598     0.302644382889     0.048376246910    14.003074004430
         N           -0.342294828598    -1.470690617111    -0.038880753090    14.003074004430
         N            1.504658171402     1.657966082889    -0.009741353090    14.003074004430
         N           -2.629006828598    -1.920385617111     0.110948246910    14.003074004430
         C            0.558120171402    -0.440371617111    -0.029660753090    12.000000000000
         C            0.334179171402     0.936217382889    -0.009530753090    12.000000000000
         C           -1.013069128598     1.443844482889     0.035659246910    12.000000000000
         C            2.439484171402     0.686035382889    -0.070051753090    12.000000000000
         C           -1.572635828598    -1.029500617111     0.018673246910    12.000000000000
         C            2.635791171402    -1.848776617111    -0.065650753090    12.000000000000
         H            3.509683171402     0.855625382889    -0.086737753090     1.007825032230
         H            2.373356171402    -2.433881617111     0.817617246910     1.007825032230
         H            2.379894171402    -2.417533617111    -0.960637753090     1.007825032230
         H            3.704561171402    -1.634041617111    -0.059364753090     1.007825032230
         H           -2.887559828598     0.565691382889     0.169185246910     1.007825032230
         H           -2.325381828598    -2.871148617111    -0.064370753090     1.007825032230
         H           -3.459271828598    -1.676093617111    -0.417481753090     1.007825032230

  Basis Set: AUG-CC-PVTZ
    Blend: AUG-CC-PVTZ
  Basis Set: (AUG-CC-PVTZ AUX)
    Blend: AUG-CC-PVTZ-JKFIT
	 Reference Energy          =    -578.6278593926282383 [Eh]
	 Singles Energy            =      -0.0000000000000000 [Eh]
	 Same-Spin Energy          =      -0.6164657769172416 [Eh]
	 Opposite-Spin Energy      =      -1.8207632762219954 [Eh]
	 Correlation Energy        =      -2.4372290531392369 [Eh]
	 Total Energy              =    -581.0650884457675147 [Eh]

	 ================> DF-SCS-MP2 Energies <==================
	-----------------------------------------------------------
	 SCS Same-Spin Scale       =       0.3333333333333333 [-]
	 SCS Opposite-Spin Scale   =       1.2000000000000000 [-]
	 SCS Same-Spin Energy      =      -0.2054885923057472 [Eh]
	 SCS Opposite-Spin Energy  =      -2.1849159314663944 [Eh]
	 SCS Correlation Energy    =      -2.3904045237721414 [Eh]
	 SCS Total Energy          =    -581.0182639164004286 [Eh]
	-----------------------------------------------------------

  Dipole Moment: [D]
     X:     0.0105      Y:    -6.6153      Z:    -0.9331     Total:     6.6808

*** Psi4 exiting successfully. Buy a developer a beer!
