                               Psi4 1.4a3.dev225

  ==> Input File <==

--------------------------------------------------------------------------
#psi4
#
memory 32 gb

molecule  {
0 1
  O        1.6617960     2.5152110     0.0229320
  N       -1.9329240    -0.4005880    -0.0147920
  N        1.9545050     0.2323110     0.0113410
  N        0.2669280    -1.4301930    -0.0208730
  N       -1.3834780     1.7915450    -0.0193170
  N        2.5221760    -2.0364130     0.0734370
  C       -0.5634760    -0.3442740    -0.0026930
  C       -0.2488450     1.0144850    -0.0147620
  C        1.1380320     1.4076430     0.0031510
  C       -2.3683130     0.9036150    -0.0164120
  C        1.5468357    -1.0666558    -0.0055619
  C       -2.7322540    -1.6127190     0.0339130
  H       -3.4247340     1.1445090    -0.0228960
  H       -2.2735910    -2.3629350    -0.6109560
  H       -2.7853950    -1.9995380     1.0543320
  H       -3.7366260    -1.3828770    -0.3245450
  H        2.9468270     0.4301980     0.1174830
  H        2.1372730    -2.9631930    -0.0801050
  H        3.3349710    -1.8642740    -0.5097710
units angstrom
no_reorient  #important for SAPT in psi4, default
symmetry c1  #important for SAPT in psi4, default
}

set PROPERTIES_ORIGIN ["COM"]
properties('MP2/aug-cc-pvtz', properties = ['dipole'])
--------------------------------------------------------------------------

    Molecular point group: c1
  Charge       = 0
  Multiplicity = 1
  Basis Set: AUG-CC-PVTZ
    Blend: AUG-CC-PVTZ
  Basis Set: (AUG-CC-PVTZ AUX)
    Blend: AUG-CC-PVTZ-JKFIT

    Orbital Energies [Eh]
    ---------------------

    Doubly Occupied:

       1A    -20.521693     2A    -15.631585     3A    -15.631378
       4A    -15.613109     5A    -15.569673     6A    -15.558996
       7A    -11.397621     8A    -11.365542     9A    -11.318607
      10A    -11.306221    11A    -11.288202    12A    -11.245811
      13A     -1.391371    14A     -1.359626    15A     -1.334875
      16A     -1.223190    17A     -1.212900    18A     -1.188467
      19A     -1.027634    20A     -0.985249    21A     -0.901514
      22A     -0.883764    23A     -0.806203    24A     -0.766047
      25A     -0.742111    26A     -0.731309    27A     -0.693554
      28A     -0.669773    29A     -0.650037    30A     -0.641042
      31A     -0.624909    32A     -0.610377    33A     -0.593790
      34A     -0.577284    35A     -0.561084    36A     -0.541123
      37A     -0.491122    38A     -0.460512    39A     -0.440394
      40A     -0.430297    41A     -0.428080    42A     -0.391835
      43A     -0.296056

  @DF-RHF Final Energy:  -578.62953690991162

   => Energetics <=

    Nuclear Repulsion Energy =            693.0288589362252196
    One-Electron Energy =               -2163.1088537315067697
    Two-Electron Energy =                 891.4504578853698149
    Total Energy =                       -578.6295369099116215
  Basis Set: (AUG-CC-PVTZ AUX)
    Blend: AUG-CC-PVTZ-RI
    Molecular point group: c1

    Geometry (in Angstrom), charge = 0, multiplicity = 1:

       Center              X                  Y                   Z               Mass
    ------------   -----------------  -----------------  -----------------  -----------------
         O            1.637573389354     2.460839731650     0.020652605564    15.994914619570
         N           -1.957146610646    -0.454959268350    -0.017071394436    14.003074004430
         N            1.930282389354     0.177939731650     0.009061605564    14.003074004430
         N            0.242705389354    -1.484564268350    -0.023152394436    14.003074004430
         N           -1.407700610646     1.737173731650    -0.021596394436    14.003074004430
         N            2.497953389354    -2.090784268350     0.071157605564    14.003074004430
         C           -0.587698610646    -0.398645268350    -0.004972394436    12.000000000000
         C           -0.273067610646     0.960113731650    -0.017041394436    12.000000000000
         C            1.113809389354     1.353271731650     0.000871605564    12.000000000000
         C           -2.392535610646     0.849243731650    -0.018691394436    12.000000000000
         C            1.522613089354    -1.121027068350    -0.007841294436    12.000000000000
         C           -2.756476610646    -1.667090268350     0.031633605564    12.000000000000
         H           -3.448956610646     1.090137731650    -0.025175394436     1.007825032230
         H           -2.297813610646    -2.417306268350    -0.613235394436     1.007825032230
         H           -2.809617610646    -2.053909268350     1.052052605564     1.007825032230
         H           -3.760848610646    -1.437248268350    -0.326824394436     1.007825032230
         H            2.922604389354     0.375826731650     0.115203605564     1.007825032230
         H            2.113050389354    -3.017564268350    -0.082384394436     1.007825032230
         H            3.310748389354    -1.918645268350    -0.512050394436     1.007825032230

  Basis Set: AUG-CC-PVTZ
    Blend: AUG-CC-PVTZ
  Basis Set: (AUG-CC-PVTZ AUX)
    Blend: AUG-CC-PVTZ-JKFIT
	 Reference Energy          =    -578.6295369099116215 [Eh]
	 Singles Energy            =      -0.0000000000000000 [Eh]
	 Same-Spin Energy          =      -0.6162908186982115 [Eh]
	 Opposite-Spin Energy      =      -1.8200137279471535 [Eh]
	 Correlation Energy        =      -2.4363045466453652 [Eh]
	 Total Energy              =    -581.0658414565569956 [Eh]

	 ================> DF-SCS-MP2 Energies <==================
	-----------------------------------------------------------
	 SCS Same-Spin Scale       =       0.3333333333333333 [-]
	 SCS Opposite-Spin Scale   =       1.2000000000000000 [-]
	 SCS Same-Spin Energy      =      -0.2054302728994038 [Eh]
	 SCS Opposite-Spin Energy  =      -2.1840164735365843 [Eh]
	 SCS Correlation Energy    =      -2.3894467464359881 [Eh]
	 SCS Total Energy          =    -581.0189836563475865 [Eh]
	-----------------------------------------------------------

  Dipole Moment: [D]
     X:    -0.3762      Y:    -6.7654      Z:    -0.8471     Total:     6.8285

*** Psi4 exiting successfully. Buy a developer a beer!
