                               Psi4 1.3.2 release

  ==> Input File <==

--------------------------------------------------------------------------
#psi4
#
memory 32 gb

molecule  {
0 1
  O       -1.4697740     2.5644010     0.0803940
  N        1.9191590    -0.5831280    -0.0556370
  N       -1.9102790     0.3061000     0.0485010
  N       -0.3427170    -1.4672350    -0.0387560
  N        1.5166440     1.6409000    -0.0105650
  N       -2.6294290    -1.9169300     0.1110730
  C        0.5576980    -0.4369160    -0.0295360
  C        0.3337570     0.9396730    -0.0094060
  C       -1.0221650     1.4237120     0.0351730
  C        2.4279384     0.6939810    -0.0697243
  C       -1.5730580    -1.0260450     0.0187980
  C        2.6243296    -1.8515234    -0.0652902
  H        3.5092610     0.8590810    -0.0866130
  H        2.3729340    -2.4304260     0.8177420
  H        2.3794720    -2.4140780    -0.9605130
  H        3.7041390    -1.6305860    -0.0592400
  H       -2.8879820     0.5691470     0.1693100
  H       -2.3258040    -2.8676930    -0.0642460
  H       -3.4596940    -1.6726380    -0.4173570
units angstrom
no_reorient  #important for SAPT in psi4, default
symmetry c1  #important for SAPT in psi4, default
}

set PROPERTIES_ORIGIN ["COM"]
properties('MP2/aug-cc-pvtz', properties = ['dipole'])
--------------------------------------------------------------------------

    Molecular point group: c1
  Charge       = 0
  Multiplicity = 1
  Basis Set: AUG-CC-PVTZ
    Blend: AUG-CC-PVTZ
  Basis Set: (AUG-CC-PVTZ AUX)
    Blend: AUG-CC-PVTZ-JKFIT

    Orbital Energies [Eh]
    ---------------------

    Doubly Occupied:

       1A    -20.520543     2A    -15.632056     3A    -15.629210
       4A    -15.610749     5A    -15.570847     6A    -15.558971
       7A    -11.396139     8A    -11.363961     9A    -11.319076
      10A    -11.307279    11A    -11.289570    12A    -11.246678
      13A     -1.390763    14A     -1.361320    15A     -1.334322
      16A     -1.219047    17A     -1.217487    18A     -1.192104
      19A     -1.029692    20A     -0.986633    21A     -0.900843
      22A     -0.882523    23A     -0.806903    24A     -0.766917
      25A     -0.741747    26A     -0.728639    27A     -0.692064
      28A     -0.672252    29A     -0.649986    30A     -0.641146
      31A     -0.626906    32A     -0.610672    33A     -0.592590
      34A     -0.574704    35A     -0.562982    36A     -0.541872
      37A     -0.494254    38A     -0.459688    39A     -0.440051
      40A     -0.429574    41A     -0.429095    42A     -0.393610
      43A     -0.299142

  @DF-RHF Final Energy:  -578.63113742248629

   => Energetics <=

    Nuclear Repulsion Energy =            693.7480027400442850
    One-Electron Energy =               -2164.5290641490782946
    Two-Electron Energy =                 892.1499239865477193
    Total Energy =                       -578.6311374224862902
  Basis Set: (AUG-CC-PVTZ AUX)
    Blend: AUG-CC-PVTZ-RI
    Molecular point group: c1

    Geometry (in Angstrom), charge = 0, multiplicity = 1:

       Center              X                  Y                   Z               Mass
    ------------   -----------------  -----------------  -----------------  -----------------
         O           -1.468162659565     2.564525625033     0.080362243668    15.994914619570
         N            1.920770340435    -0.583003374967    -0.055668756332    14.003074004430
         N           -1.908667659565     0.306224625033     0.048469243668    14.003074004430
         N           -0.341105659565    -1.467110374967    -0.038787756332    14.003074004430
         N            1.518255340435     1.641024625033    -0.010596756332    14.003074004430
         N           -2.627817659565    -1.916805374967     0.111041243668    14.003074004430
         C            0.559309340435    -0.436791374967    -0.029567756332    12.000000000000
         C            0.335368340435     0.939797625033    -0.009437756332    12.000000000000
         C           -1.020553659565     1.423836625033     0.035141243668    12.000000000000
         C            2.429549740435     0.694105625033    -0.069756056332    12.000000000000
         C           -1.571446659565    -1.025920374967     0.018766243668    12.000000000000
         C            2.625940940435    -1.851398774967    -0.065321956332    12.000000000000
         H            3.510872340435     0.859205625033    -0.086644756332     1.007825032230
         H            2.374545340435    -2.430301374967     0.817710243668     1.007825032230
         H            2.381083340435    -2.413953374967    -0.960544756332     1.007825032230
         H            3.705750340435    -1.630461374967    -0.059271756332     1.007825032230
         H           -2.886370659565     0.569271625033     0.169278243668     1.007825032230
         H           -2.324192659565    -2.867568374967    -0.064277756332     1.007825032230
         H           -3.458082659565    -1.672513374967    -0.417388756332     1.007825032230

  Basis Set: AUG-CC-PVTZ
    Blend: AUG-CC-PVTZ
  Basis Set: (AUG-CC-PVTZ AUX)
    Blend: AUG-CC-PVTZ-JKFIT
	 Reference Energy          =    -578.6311374224862902 [Eh]
	 Singles Energy            =      -0.0000000000000000 [Eh]
	 Same-Spin Energy          =      -0.6158280895078467 [Eh]
	 Opposite-Spin Energy      =      -1.8193325913732719 [Eh]
	 Correlation Energy        =      -2.4351606808811184 [Eh]
	 Total Energy              =    -581.0662981033674441 [Eh]

	 ================> DF-SCS-MP2 Energies <==================
	-----------------------------------------------------------
	 SCS Same-Spin Scale       =       0.3333333333333333 [-]
	 SCS Opposite-Spin Scale   =       1.2000000000000000 [-]
	 SCS Same-Spin Energy      =      -0.2052760298359489 [Eh]
	 SCS Opposite-Spin Energy  =      -2.1831991096479260 [Eh]
	 SCS Correlation Energy    =      -2.3884751394838748 [Eh]
	 SCS Total Energy          =    -581.0196125619701206 [Eh]
	-----------------------------------------------------------

  Dipole Moment: [D]
     X:    -0.0218      Y:    -6.7848      Z:    -0.9374     Total:     6.8492

*** Psi4 exiting successfully. Buy a developer a beer!
