                               Psi4 1.3.2 release

  ==> Input File <==

--------------------------------------------------------------------------
#psi4
#
memory 32 gb

molecule  {
0 1
  O       -1.4697740     2.5644010     0.0803940
  N        1.9132174    -0.6305587    -0.0560859
  N       -1.9102790     0.3061000     0.0485010
  N       -0.3427170    -1.4672350    -0.0387560
  N        1.5166440     1.6409000    -0.0105650
  N       -2.6294290    -1.9169300     0.1110730
  C        0.5576980    -0.4369160    -0.0295360
  C        0.2858539     0.9310082    -0.0086493
  C       -1.0221650     1.4237120     0.0351730
  C        2.4390620     0.6894910    -0.0699270
  C       -1.5730580    -1.0260450     0.0187980
  C        2.6353690    -1.8453210    -0.0655260
  H        3.5092610     0.8590810    -0.0866130
  H        2.3729340    -2.4304260     0.8177420
  H        2.3794720    -2.4140780    -0.9605130
  H        3.7041390    -1.6305860    -0.0592400
  H       -2.8879820     0.5691470     0.1693100
  H       -2.3258040    -2.8676930    -0.0642460
  H       -3.4596940    -1.6726380    -0.4173570
units angstrom
no_reorient  #important for SAPT in psi4, default
symmetry c1  #important for SAPT in psi4, default
}

set PROPERTIES_ORIGIN ["COM"]
properties('MP2/aug-cc-pvtz', properties = ['dipole'])
--------------------------------------------------------------------------

    Molecular point group: c1
  Charge       = 0
  Multiplicity = 1
  Basis Set: AUG-CC-PVTZ
    Blend: AUG-CC-PVTZ
  Basis Set: (AUG-CC-PVTZ AUX)
    Blend: AUG-CC-PVTZ-JKFIT

    Orbital Energies [Eh]
    ---------------------

    Doubly Occupied:

       1A    -20.517380     2A    -15.632033     3A    -15.628457
       4A    -15.611520     5A    -15.570863     6A    -15.567667
       7A    -11.397417     8A    -11.360422     9A    -11.328249
      10A    -11.314188    11A    -11.286040    12A    -11.246331
      13A     -1.390023    14A     -1.355261    15A     -1.330987
      16A     -1.220427    17A     -1.215236    18A     -1.191237
      19A     -1.034637    20A     -0.988881    21A     -0.899489
      22A     -0.882601    23A     -0.808421    24A     -0.770466
      25A     -0.738207    26A     -0.729889    27A     -0.692327
      28A     -0.672489    29A     -0.656845    30A     -0.640993
      31A     -0.628085    32A     -0.610854    33A     -0.593862
      34A     -0.575554    35A     -0.556507    36A     -0.540203
      37A     -0.494068    38A     -0.459187    39A     -0.436438
      40A     -0.432080    41A     -0.428737    42A     -0.388134
      43A     -0.304939

  @DF-RHF Final Energy:  -578.62365571845328

   => Energetics <=

    Nuclear Repulsion Energy =            693.1820015418163621
    One-Electron Energy =               -2163.3560537891971762
    Two-Electron Energy =                 891.5503965289275357
    Total Energy =                       -578.6236557184532785
  Basis Set: (AUG-CC-PVTZ AUX)
    Blend: AUG-CC-PVTZ-RI
    Molecular point group: c1

    Geometry (in Angstrom), charge = 0, multiplicity = 1:

       Center              X                  Y                   Z               Mass
    ------------   -----------------  -----------------  -----------------  -----------------
         O           -1.465787342433     2.569054774950     0.080377192803    15.994914619570
         N            1.917204057567    -0.625904925050    -0.056102707197    14.003074004430
         N           -1.906292342433     0.310753774950     0.048484192803    14.003074004430
         N           -0.338730342433    -1.462581225050    -0.038772807197    14.003074004430
         N            1.520630657567     1.645553774950    -0.010581807197    14.003074004430
         N           -2.625442342433    -1.912276225050     0.111056192803    14.003074004430
         C            0.561684657567    -0.432262225050    -0.029552807197    12.000000000000
         C            0.289840557567     0.935661974950    -0.008666107197    12.000000000000
         C           -1.018178342433     1.428365774950     0.035156192803    12.000000000000
         C            2.443048657567     0.694144774950    -0.069943807197    12.000000000000
         C           -1.569071342433    -1.021391225050     0.018781192803    12.000000000000
         C            2.639355657567    -1.840667225050    -0.065542807197    12.000000000000
         H            3.513247657567     0.863734774950    -0.086629807197     1.007825032230
         H            2.376920657567    -2.425772225050     0.817725192803     1.007825032230
         H            2.383458657567    -2.409424225050    -0.960529807197     1.007825032230
         H            3.708125657567    -1.625932225050    -0.059256807197     1.007825032230
         H           -2.883995342433     0.573800774950     0.169293192803     1.007825032230
         H           -2.321817342433    -2.863039225050    -0.064262807197     1.007825032230
         H           -3.455707342433    -1.667984225050    -0.417373807197     1.007825032230

  Basis Set: AUG-CC-PVTZ
    Blend: AUG-CC-PVTZ
  Basis Set: (AUG-CC-PVTZ AUX)
    Blend: AUG-CC-PVTZ-JKFIT
	 Reference Energy          =    -578.6236557184532785 [Eh]
	 Singles Energy            =      -0.0000000000000000 [Eh]
	 Same-Spin Energy          =      -0.6159120466579899 [Eh]
	 Opposite-Spin Energy      =      -1.8206317519413560 [Eh]
	 Correlation Energy        =      -2.4365437985993461 [Eh]
	 Total Energy              =    -581.0601995170526379 [Eh]

	 ================> DF-SCS-MP2 Energies <==================
	-----------------------------------------------------------
	 SCS Same-Spin Scale       =       0.3333333333333333 [-]
	 SCS Opposite-Spin Scale   =       1.2000000000000000 [-]
	 SCS Same-Spin Energy      =      -0.2053040155526633 [Eh]
	 SCS Opposite-Spin Energy  =      -2.1847581023296270 [Eh]
	 SCS Correlation Energy    =      -2.3900621178822901 [Eh]
	 SCS Total Energy          =    -581.0137178363355588 [Eh]
	-----------------------------------------------------------

  Dipole Moment: [D]
     X:     0.0218      Y:    -6.7667      Z:    -0.9381     Total:     6.8315

*** Psi4 exiting successfully. Buy a developer a beer!
