                               Psi4 1.3.2 release

  ==> Input File <==

--------------------------------------------------------------------------
#psi4
#
memory 32 gb

molecule  {
0 1
  O       -1.4697740     2.5644010     0.0803940
  N        1.9191590    -0.5831280    -0.0556370
  N       -1.9102790     0.3061000     0.0485010
  N       -0.3427170    -1.4672350    -0.0387560
  N        1.5166440     1.6409000    -0.0105650
  N       -2.6294290    -1.9169300     0.1110730
  C        0.5456806    -0.4388220    -0.0292019
  C        0.3337570     0.9396730    -0.0094060
  C       -1.0263392     1.4118553     0.0351788
  C        2.4390620     0.6894910    -0.0699270
  C       -1.5730580    -1.0260450     0.0187980
  C        2.6353690    -1.8453210    -0.0655260
  H        3.5092610     0.8590810    -0.0866130
  H        2.3729340    -2.4304260     0.8177420
  H        2.3794720    -2.4140780    -0.9605130
  H        3.7041390    -1.6305860    -0.0592400
  H       -2.8879820     0.5691470     0.1693100
  H       -2.3258040    -2.8676930    -0.0642460
  H       -3.4596940    -1.6726380    -0.4173570
units angstrom
no_reorient  #important for SAPT in psi4, default
symmetry c1  #important for SAPT in psi4, default
}

set PROPERTIES_ORIGIN ["COM"]
properties('MP2/aug-cc-pvtz', properties = ['dipole'])
--------------------------------------------------------------------------

    Molecular point group: c1
  Charge       = 0
  Multiplicity = 1
  Basis Set: AUG-CC-PVTZ
    Blend: AUG-CC-PVTZ
  Basis Set: (AUG-CC-PVTZ AUX)
    Blend: AUG-CC-PVTZ-JKFIT

    Orbital Energies [Eh]
    ---------------------

    Doubly Occupied:

       1A    -20.518071     2A    -15.632113     3A    -15.631875
       4A    -15.612143     5A    -15.572659     6A    -15.559203
       7A    -11.397888     8A    -11.363533     9A    -11.319493
      10A    -11.307937    11A    -11.288697    12A    -11.247648
      13A     -1.389401    14A     -1.356316    15A     -1.333479
      16A     -1.221439    17A     -1.219374    18A     -1.190537
      19A     -1.029865    20A     -0.984963    21A     -0.902278
      22A     -0.885621    23A     -0.809501    24A     -0.766266
      25A     -0.742295    26A     -0.730475    27A     -0.693253
      28A     -0.670691    29A     -0.648746    30A     -0.643257
      31A     -0.628054    32A     -0.607091    33A     -0.593644
      34A     -0.576684    35A     -0.560399    36A     -0.540227
      37A     -0.495470    38A     -0.460907    39A     -0.439570
      40A     -0.429290    41A     -0.427597    42A     -0.392019
      43A     -0.298153

  @DF-RHF Final Energy:  -578.62947186824397

   => Energetics <=

    Nuclear Repulsion Energy =            693.5332118265799863
    One-Electron Energy =               -2164.0891202627431085
    Two-Electron Energy =                 891.9264365679190405
    Total Energy =                       -578.6294718682439679
  Basis Set: (AUG-CC-PVTZ AUX)
    Blend: AUG-CC-PVTZ-RI
    Molecular point group: c1

    Geometry (in Angstrom), charge = 0, multiplicity = 1:

       Center              X                  Y                   Z               Mass
    ------------   -----------------  -----------------  -----------------  -----------------
         O           -1.468596772029     2.565401665063     0.080369411751    15.994914619570
         N            1.920336227971    -0.582127334937    -0.055661588249    14.003074004430
         N           -1.909101772029     0.307100665063     0.048476411751    14.003074004430
         N           -0.341539772029    -1.466234334937    -0.038780588249    14.003074004430
         N            1.517821227971     1.641900665063    -0.010589588249    14.003074004430
         N           -2.628251772029    -1.915929334937     0.111048411751    14.003074004430
         C            0.546857827971    -0.437821334937    -0.029226488249    12.000000000000
         C            0.334934227971     0.940673665063    -0.009430588249    12.000000000000
         C           -1.025161972029     1.412855965063     0.035154211751    12.000000000000
         C            2.440239227971     0.690491665063    -0.069951588249    12.000000000000
         C           -1.571880772029    -1.025044334937     0.018773411751    12.000000000000
         C            2.636546227971    -1.844320334937    -0.065550588249    12.000000000000
         H            3.510438227971     0.860081665063    -0.086637588249     1.007825032230
         H            2.374111227971    -2.429425334937     0.817717411751     1.007825032230
         H            2.380649227971    -2.413077334937    -0.960537588249     1.007825032230
         H            3.705316227971    -1.629585334937    -0.059264588249     1.007825032230
         H           -2.886804772029     0.570147665063     0.169285411751     1.007825032230
         H           -2.324626772029    -2.866692334937    -0.064270588249     1.007825032230
         H           -3.458516772029    -1.671637334937    -0.417381588249     1.007825032230

  Basis Set: AUG-CC-PVTZ
    Blend: AUG-CC-PVTZ
  Basis Set: (AUG-CC-PVTZ AUX)
    Blend: AUG-CC-PVTZ-JKFIT
	 Reference Energy          =    -578.6294718682439679 [Eh]
	 Singles Energy            =      -0.0000000000000000 [Eh]
	 Same-Spin Energy          =      -0.6163661305844506 [Eh]
	 Opposite-Spin Energy      =      -1.8202465403377186 [Eh]
	 Correlation Energy        =      -2.4366126709221692 [Eh]
	 Total Energy              =    -581.0660845391661269 [Eh]

	 ================> DF-SCS-MP2 Energies <==================
	-----------------------------------------------------------
	 SCS Same-Spin Scale       =       0.3333333333333333 [-]
	 SCS Opposite-Spin Scale   =       1.2000000000000000 [-]
	 SCS Same-Spin Energy      =      -0.2054553768614835 [Eh]
	 SCS Opposite-Spin Energy  =      -2.1842958484052621 [Eh]
	 SCS Correlation Energy    =      -2.3897512252667457 [Eh]
	 SCS Total Energy          =    -581.0192230935107318 [Eh]
	-----------------------------------------------------------

  Dipole Moment: [D]
     X:    -0.0674      Y:    -6.9116      Z:    -0.9393     Total:     6.9755

*** Psi4 exiting successfully. Buy a developer a beer!
