                               Psi4 1.3.2 release

  ==> Input File <==

--------------------------------------------------------------------------
#psi4
#
memory 32 gb

molecule  {
0 1
  O       -1.4697740     2.5644010     0.0803940
  N        1.9191590    -0.5831280    -0.0556370
  N       -1.9102790     0.3061000     0.0485010
  N       -0.3427170    -1.4672350    -0.0387560
  N        1.5166440     1.6409000    -0.0105650
  N       -2.6294290    -1.9169300     0.1110730
  C        0.5666465    -0.4448001    -0.0301320
  C        0.3337570     0.9396730    -0.0094060
  C       -1.0221650     1.4237120     0.0351730
  C        2.4390620     0.6894910    -0.0699270
  C       -1.5768754    -1.0368014     0.0185165
  C        2.6353690    -1.8453210    -0.0655260
  H        3.5092610     0.8590810    -0.0866130
  H        2.3729340    -2.4304260     0.8177420
  H        2.3794720    -2.4140780    -0.9605130
  H        3.7041390    -1.6305860    -0.0592400
  H       -2.8879820     0.5691470     0.1693100
  H       -2.3258040    -2.8676930    -0.0642460
  H       -3.4596940    -1.6726380    -0.4173570
units angstrom
no_reorient  #important for SAPT in psi4, default
symmetry c1  #important for SAPT in psi4, default
}

set PROPERTIES_ORIGIN ["COM"]
properties('MP2/aug-cc-pvtz', properties = ['dipole'])
--------------------------------------------------------------------------

    Molecular point group: c1
  Charge       = 0
  Multiplicity = 1
  Basis Set: AUG-CC-PVTZ
    Blend: AUG-CC-PVTZ
  Basis Set: (AUG-CC-PVTZ AUX)
    Blend: AUG-CC-PVTZ-JKFIT

    Orbital Energies [Eh]
    ---------------------

    Doubly Occupied:

       1A    -20.519592     2A    -15.633893     3A    -15.627574
       4A    -15.612139     5A    -15.570285     6A    -15.560146
       7A    -11.396437     8A    -11.363211     9A    -11.319458
      10A    -11.306532    11A    -11.289827    12A    -11.246681
      13A     -1.389324    14A     -1.361472    15A     -1.334125
      16A     -1.220771    17A     -1.215114    18A     -1.190638
      19A     -1.028139    20A     -0.987172    21A     -0.901603
      22A     -0.881368    23A     -0.807757    24A     -0.765993
      25A     -0.741240    26A     -0.731132    27A     -0.692878
      28A     -0.671738    29A     -0.648632    30A     -0.643758
      31A     -0.626275    32A     -0.609478    33A     -0.593133
      34A     -0.579961    35A     -0.561637    36A     -0.541847
      37A     -0.491954    38A     -0.459784    39A     -0.438609
      40A     -0.428114    41A     -0.427575    42A     -0.392950
      43A     -0.296888

  @DF-RHF Final Energy:  -578.63011364508031

   => Energetics <=

    Nuclear Repulsion Energy =            693.2661801118013045
    One-Electron Energy =               -2163.5789133899247645
    Two-Electron Energy =                 891.6826196330431458
    Total Energy =                       -578.6301136450803142
  Basis Set: (AUG-CC-PVTZ AUX)
    Blend: AUG-CC-PVTZ-RI
    Molecular point group: c1

    Geometry (in Angstrom), charge = 0, multiplicity = 1:

       Center              X                  Y                   Z               Mass
    ------------   -----------------  -----------------  -----------------  -----------------
         O           -1.470146902628     2.565756274331     0.080457915035    15.994914619570
         N            1.918786097372    -0.581772725669    -0.055573084965    14.003074004430
         N           -1.910651902628     0.307455274331     0.048564915035    14.003074004430
         N           -0.343089902628    -1.465879725669    -0.038692084965    14.003074004430
         N            1.516271097372     1.642255274331    -0.010501084965    14.003074004430
         N           -2.629801902628    -1.915574725669     0.111136915035    14.003074004430
         C            0.566273597372    -0.443444825669    -0.030068084965    12.000000000000
         C            0.333384097372     0.941028274331    -0.009342084965    12.000000000000
         C           -1.022537902628     1.425067274331     0.035236915035    12.000000000000
         C            2.438689097372     0.690846274331    -0.069863084965    12.000000000000
         C           -1.577248302628    -1.035446125669     0.018580415035    12.000000000000
         C            2.634996097372    -1.843965725669    -0.065462084965    12.000000000000
         H            3.508888097372     0.860436274331    -0.086549084965     1.007825032230
         H            2.372561097372    -2.429070725669     0.817805915035     1.007825032230
         H            2.379099097372    -2.412722725669    -0.960449084965     1.007825032230
         H            3.703766097372    -1.629230725669    -0.059176084965     1.007825032230
         H           -2.888354902628     0.570502274331     0.169373915035     1.007825032230
         H           -2.326176902628    -2.866337725669    -0.064182084965     1.007825032230
         H           -3.460066902628    -1.671282725669    -0.417293084965     1.007825032230

  Basis Set: AUG-CC-PVTZ
    Blend: AUG-CC-PVTZ
  Basis Set: (AUG-CC-PVTZ AUX)
    Blend: AUG-CC-PVTZ-JKFIT
	 Reference Energy          =    -578.6301136450803142 [Eh]
	 Singles Energy            =      -0.0000000000000000 [Eh]
	 Same-Spin Energy          =      -0.6162371672789982 [Eh]
	 Opposite-Spin Energy      =      -1.8198769874309020 [Eh]
	 Correlation Energy        =      -2.4361141547099003 [Eh]
	 Total Energy              =    -581.0662277997902265 [Eh]

	 ================> DF-SCS-MP2 Energies <==================
	-----------------------------------------------------------
	 SCS Same-Spin Scale       =       0.3333333333333333 [-]
	 SCS Opposite-Spin Scale   =       1.2000000000000000 [-]
	 SCS Same-Spin Energy      =      -0.2054123890929994 [Eh]
	 SCS Opposite-Spin Energy  =      -2.1838523849170821 [Eh]
	 SCS Correlation Energy    =      -2.3892647740100816 [Eh]
	 SCS Total Energy          =    -581.0193784190903443 [Eh]
	-----------------------------------------------------------

  Dipole Moment: [D]
     X:    -0.0136      Y:    -6.8771      Z:    -0.9374     Total:     6.9407

*** Psi4 exiting successfully. Buy a developer a beer!
