                               Psi4 1.3.2 release

  ==> Input File <==

--------------------------------------------------------------------------
#psi4
#
memory 32 gb

molecule  {
0 1
  O       -1.4697740     2.5644010     0.0803940
  N        1.9191590    -0.5831280    -0.0556370
  N       -1.9102790     0.3061000     0.0485010
  N       -0.3427170    -1.4672350    -0.0387560
  N        1.5166440     1.6409000    -0.0105650
  N       -2.6294290    -1.9169300     0.1110730
  C        0.5576980    -0.4369160    -0.0295360
  C        0.3337570     0.9396730    -0.0094060
  C       -1.0843762     1.3454248     0.0361066
  C        2.4390620     0.6894910    -0.0699270
  C       -1.5730580    -1.0260450     0.0187980
  C        2.6353690    -1.8453210    -0.0655260
  H        3.5092610     0.8590810    -0.0866130
  H        2.3729340    -2.4304260     0.8177420
  H        2.3794720    -2.4140780    -0.9605130
  H        3.7041390    -1.6305860    -0.0592400
  H       -2.8879820     0.5691470     0.1693100
  H       -2.3258040    -2.8676930    -0.0642460
  H       -3.4596940    -1.6726380    -0.4173570
units angstrom
no_reorient  #important for SAPT in psi4, default
symmetry c1  #important for SAPT in psi4, default
}

set PROPERTIES_ORIGIN ["COM"]
properties('MP2/aug-cc-pvtz', properties = ['dipole'])
--------------------------------------------------------------------------

    Molecular point group: c1
  Charge       = 0
  Multiplicity = 1
  Basis Set: AUG-CC-PVTZ
    Blend: AUG-CC-PVTZ
  Basis Set: (AUG-CC-PVTZ AUX)
    Blend: AUG-CC-PVTZ-JKFIT

    Orbital Energies [Eh]
    ---------------------

    Doubly Occupied:

       1A    -20.506513     2A    -15.644159     3A    -15.632082
       4A    -15.616838     5A    -15.579088     6A    -15.560010
       7A    -11.402938     8A    -11.361668     9A    -11.314780
      10A    -11.307679    11A    -11.289396    12A    -11.250868
      13A     -1.395420    14A     -1.354542    15A     -1.320190
      16A     -1.235030    17A     -1.221366    18A     -1.192429
      19A     -1.028523    20A     -0.984045    21A     -0.914035
      22A     -0.895094    23A     -0.816267    24A     -0.767043
      25A     -0.751150    26A     -0.732417    27A     -0.698956
      28A     -0.674144    29A     -0.648169    30A     -0.644299
      31A     -0.636027    32A     -0.601807    33A     -0.585447
      34A     -0.572737    35A     -0.561012    36A     -0.539845
      37A     -0.497166    38A     -0.461312    39A     -0.437216
      40A     -0.423964    41A     -0.416369    42A     -0.392010
      43A     -0.297592

  @DF-RHF Final Energy:  -578.61644244548711

   => Energetics <=

    Nuclear Repulsion Energy =            693.8917425493544897
    One-Electron Energy =               -2164.6930864411410766
    Two-Electron Energy =                 892.1849014462993637
    Total Energy =                       -578.6164424454871096
  Basis Set: (AUG-CC-PVTZ AUX)
    Blend: AUG-CC-PVTZ-RI
    Molecular point group: c1

    Geometry (in Angstrom), charge = 0, multiplicity = 1:

       Center              X                  Y                   Z               Mass
    ------------   -----------------  -----------------  -----------------  -----------------
         O           -1.465251211192     2.570092506363     0.080326250587    15.994914619570
         N            1.923681788808    -0.577436493637    -0.055704749413    14.003074004430
         N           -1.905756211192     0.311791506363     0.048433250587    14.003074004430
         N           -0.338194211192    -1.461543493637    -0.038823749413    14.003074004430
         N            1.521166788808     1.646591506363    -0.010632749413    14.003074004430
         N           -2.624906211192    -1.911238493637     0.111005250587    14.003074004430
         C            0.562220788808    -0.431224493637    -0.029603749413    12.000000000000
         C            0.338279788808     0.945364506363    -0.009473749413    12.000000000000
         C           -1.079853411192     1.351116306363     0.036038850587    12.000000000000
         C            2.443584788808     0.695182506363    -0.069994749413    12.000000000000
         C           -1.568535211192    -1.020353493637     0.018730250587    12.000000000000
         C            2.639891788808    -1.839629493637    -0.065593749413    12.000000000000
         H            3.513783788808     0.864772506363    -0.086680749413     1.007825032230
         H            2.377456788808    -2.424734493637     0.817674250587     1.007825032230
         H            2.383994788808    -2.408386493637    -0.960580749413     1.007825032230
         H            3.708661788808    -1.624894493637    -0.059307749413     1.007825032230
         H           -2.883459211192     0.574838506363     0.169242250587     1.007825032230
         H           -2.321281211192    -2.862001493637    -0.064313749413     1.007825032230
         H           -3.455171211192    -1.666946493637    -0.417424749413     1.007825032230

  Basis Set: AUG-CC-PVTZ
    Blend: AUG-CC-PVTZ
  Basis Set: (AUG-CC-PVTZ AUX)
    Blend: AUG-CC-PVTZ-JKFIT
	 Reference Energy          =    -578.6164424454871096 [Eh]
	 Singles Energy            =      -0.0000000000000000 [Eh]
	 Same-Spin Energy          =      -0.6172518200659892 [Eh]
	 Opposite-Spin Energy      =      -1.8218272802201234 [Eh]
	 Correlation Energy        =      -2.4390791002861127 [Eh]
	 Total Energy              =    -581.0555215457732174 [Eh]

	 ================> DF-SCS-MP2 Energies <==================
	-----------------------------------------------------------
	 SCS Same-Spin Scale       =       0.3333333333333333 [-]
	 SCS Opposite-Spin Scale   =       1.2000000000000000 [-]
	 SCS Same-Spin Energy      =      -0.2057506066886631 [Eh]
	 SCS Opposite-Spin Energy  =      -2.1861927362641480 [Eh]
	 SCS Correlation Energy    =      -2.3919433429528110 [Eh]
	 SCS Total Energy          =    -581.0083857884399094 [Eh]
	-----------------------------------------------------------

  Dipole Moment: [D]
     X:    -0.1776      Y:    -7.4548      Z:    -0.9487     Total:     7.5171

*** Psi4 exiting successfully. Buy a developer a beer!
