                               Psi4 1.3.2 release

  ==> Input File <==

--------------------------------------------------------------------------
#psi4
#
memory 32 gb

molecule  {
0 1
  O       -1.4697740     2.5644010     0.0803940
  N        1.9191590    -0.5831280    -0.0556370
  N       -1.9102790     0.3061000     0.0485010
  N       -0.3427170    -1.4672350    -0.0387560
  N        1.5166440     1.6409000    -0.0105650
  N       -2.6294290    -1.9169300     0.1110730
  C        0.5576980    -0.4369160    -0.0295360
  C        0.3337570     0.9396730    -0.0094060
  C       -1.0416351     1.4389434     0.0382890
  C        2.4390620     0.6894910    -0.0699270
  C       -1.5730580    -1.0260450     0.0187980
  C        2.6353690    -1.8453210    -0.0655260
  H        3.5092610     0.8590810    -0.0866130
  H        2.3729340    -2.4304260     0.8177420
  H        2.3794720    -2.4140780    -0.9605130
  H        3.7041390    -1.6305860    -0.0592400
  H       -2.8831298     0.5862541     0.1700190
  H       -2.3258040    -2.8676930    -0.0642460
  H       -3.4596940    -1.6726380    -0.4173570
units angstrom
no_reorient  #important for SAPT in psi4, default
symmetry c1  #important for SAPT in psi4, default
}

set PROPERTIES_ORIGIN ["COM"]
properties('MP2/aug-cc-pvtz', properties = ['dipole'])
--------------------------------------------------------------------------

    Molecular point group: c1
  Charge       = 0
  Multiplicity = 1
  Basis Set: AUG-CC-PVTZ
    Blend: AUG-CC-PVTZ
  Basis Set: (AUG-CC-PVTZ AUX)
    Blend: AUG-CC-PVTZ-JKFIT

    Orbital Energies [Eh]
    ---------------------

    Doubly Occupied:

       1A    -20.526385     2A    -15.631018     3A    -15.628031
       4A    -15.609752     5A    -15.569351     6A    -15.557901
       7A    -11.395443     8A    -11.365003     9A    -11.315859
      10A    -11.305042    11A    -11.288053    12A    -11.246524
      13A     -1.399656    14A     -1.363729    15A     -1.335067
      16A     -1.219480    17A     -1.214908    18A     -1.188859
      19A     -1.025181    20A     -0.983735    21A     -0.897862
      22A     -0.882450    23A     -0.807312    24A     -0.765172
      25A     -0.738398    26A     -0.727623    27A     -0.691724
      28A     -0.669531    29A     -0.651397    30A     -0.640434
      31A     -0.626283    32A     -0.617379    33A     -0.591764
      34A     -0.577543    35A     -0.559786    36A     -0.546892
      37A     -0.492411    38A     -0.458714    39A     -0.442319
      40A     -0.431278    41A     -0.428238    42A     -0.391109
      43A     -0.296198

  @DF-RHF Final Energy:  -578.63111915606248

   => Energetics <=

    Nuclear Repulsion Energy =            693.2793934514428429
    One-Electron Energy =               -2163.6194289730342462
    Two-Electron Energy =                 891.7089163655288075
    Total Energy =                       -578.6311191560624820
  Basis Set: (AUG-CC-PVTZ AUX)
    Blend: AUG-CC-PVTZ-RI
    Molecular point group: c1

    Geometry (in Angstrom), charge = 0, multiplicity = 1:

       Center              X                  Y                   Z               Mass
    ------------   -----------------  -----------------  -----------------  -----------------
         O           -1.468388055349     2.563189384863     0.080163264260    15.994914619570
         N            1.920544944651    -0.584339615137    -0.055867735740    14.003074004430
         N           -1.908893055349     0.304888384863     0.048270264260    14.003074004430
         N           -0.341331055349    -1.468446615137    -0.038986735740    14.003074004430
         N            1.518029944651     1.639688384863    -0.010795735740    14.003074004430
         N           -2.628043055349    -1.918141615137     0.110842264260    14.003074004430
         C            0.559083944651    -0.438127615137    -0.029766735740    12.000000000000
         C            0.335142944651     0.938461384863    -0.009636735740    12.000000000000
         C           -1.040249155349     1.437731784863     0.038058264260    12.000000000000
         C            2.440447944651     0.688279384863    -0.070157735740    12.000000000000
         C           -1.571672055349    -1.027256615137     0.018567264260    12.000000000000
         C            2.636754944651    -1.846532615137    -0.065756735740    12.000000000000
         H            3.510646944651     0.857869384863    -0.086843735740     1.007825032230
         H            2.374319944651    -2.431637615137     0.817511264260     1.007825032230
         H            2.380857944651    -2.415289615137    -0.960743735740     1.007825032230
         H            3.705524944651    -1.631797615137    -0.059470735740     1.007825032230
         H           -2.881743855349     0.585042484863     0.169788264260     1.007825032230
         H           -2.324418055349    -2.868904615137    -0.064476735740     1.007825032230
         H           -3.458308055349    -1.673849615137    -0.417587735740     1.007825032230

  Basis Set: AUG-CC-PVTZ
    Blend: AUG-CC-PVTZ
  Basis Set: (AUG-CC-PVTZ AUX)
    Blend: AUG-CC-PVTZ-JKFIT
	 Reference Energy          =    -578.6311191560624820 [Eh]
	 Singles Energy            =      -0.0000000000000000 [Eh]
	 Same-Spin Energy          =      -0.6156516652567814 [Eh]
	 Opposite-Spin Energy      =      -1.8190436590779435 [Eh]
	 Correlation Energy        =      -2.4346953243347249 [Eh]
	 Total Energy              =    -581.0658144803971936 [Eh]

	 ================> DF-SCS-MP2 Energies <==================
	-----------------------------------------------------------
	 SCS Same-Spin Scale       =       0.3333333333333333 [-]
	 SCS Opposite-Spin Scale   =       1.2000000000000000 [-]
	 SCS Same-Spin Energy      =      -0.2052172217522605 [Eh]
	 SCS Opposite-Spin Energy  =      -2.1828523908935322 [Eh]
	 SCS Correlation Energy    =      -2.3880696126457925 [Eh]
	 SCS Total Energy          =    -581.0191887687083181 [Eh]
	-----------------------------------------------------------

  Dipole Moment: [D]
     X:    -0.1475      Y:    -6.5942      Z:    -0.9274     Total:     6.6608

*** Psi4 exiting successfully. Buy a developer a beer!
