                               Psi4 1.3.2 release

  ==> Input File <==

--------------------------------------------------------------------------
#psi4
#
memory 32 gb

molecule  {
0 1
  O       -1.5288416     2.5393370     0.0823937
  N        1.9191590    -0.5831280    -0.0556370
  N       -1.9674674     0.3540866     0.0520698
  N       -0.3427170    -1.4672350    -0.0387560
  N        1.5166440     1.6409000    -0.0105650
  N       -2.6294290    -1.9169300     0.1110730
  C        0.5576980    -0.4369160    -0.0295360
  C        0.3337570     0.9396730    -0.0094060
  C       -1.0221650     1.4237120     0.0351730
  C        2.4390620     0.6894910    -0.0699270
  C       -1.5730580    -1.0260450     0.0187980
  C        2.6353690    -1.8453210    -0.0655260
  H        3.5092610     0.8590810    -0.0866130
  H        2.3729340    -2.4304260     0.8177420
  H        2.3794720    -2.4140780    -0.9605130
  H        3.7041390    -1.6305860    -0.0592400
  H       -2.8879820     0.5691470     0.1693100
  H       -2.3258040    -2.8676930    -0.0642460
  H       -3.4596940    -1.6726380    -0.4173570
units angstrom
no_reorient  #important for SAPT in psi4, default
symmetry c1  #important for SAPT in psi4, default
}

set PROPERTIES_ORIGIN ["COM"]
properties('MP2/aug-cc-pvtz', properties = ['dipole'])
--------------------------------------------------------------------------

    Molecular point group: c1
  Charge       = 0
  Multiplicity = 1
  Basis Set: AUG-CC-PVTZ
    Blend: AUG-CC-PVTZ
  Basis Set: (AUG-CC-PVTZ AUX)
    Blend: AUG-CC-PVTZ-JKFIT

    Orbital Energies [Eh]
    ---------------------

    Doubly Occupied:

       1A    -20.515206     2A    -15.635626     3A    -15.619479
       4A    -15.611195     5A    -15.576059     6A    -15.562488
       7A    -11.400923     8A    -11.361921     9A    -11.322496
      10A    -11.308888    11A    -11.291256    12A    -11.250881
      13A     -1.388039    14A     -1.362380    15A     -1.326764
      16A     -1.218518    17A     -1.213672    18A     -1.193453
      19A     -1.029674    20A     -0.988618    21A     -0.905121
      22A     -0.874135    23A     -0.804961    24A     -0.769537
      25A     -0.754212    26A     -0.726055    27A     -0.690260
      28A     -0.671845    29A     -0.648224    30A     -0.647394
      31A     -0.622320    32A     -0.606977    33A     -0.598029
      34A     -0.580211    35A     -0.561180    36A     -0.542406
      37A     -0.496945    38A     -0.458838    39A     -0.438036
      40A     -0.428911    41A     -0.424554    42A     -0.395531
      43A     -0.300551

  @DF-RHF Final Energy:  -578.62227753234561

   => Energetics <=

    Nuclear Repulsion Energy =            691.9750317966476132
    One-Electron Energy =               -2160.9470848924129314
    Two-Electron Energy =                 890.3497755634195983
    Total Energy =                       -578.6222775323456062
  Basis Set: (AUG-CC-PVTZ AUX)
    Blend: AUG-CC-PVTZ-RI
    Molecular point group: c1

    Geometry (in Angstrom), charge = 0, multiplicity = 1:

       Center              X                  Y                   Z               Mass
    ------------   -----------------  -----------------  -----------------  -----------------
         O           -1.518266287314     2.537694975136     0.081897295357    15.994914619570
         N            1.929734312686    -0.584770024864    -0.056133404643    14.003074004430
         N           -1.956892087314     0.352444575136     0.051573395357    14.003074004430
         N           -0.332141687314    -1.468877024864    -0.039252404643    14.003074004430
         N            1.527219312686     1.639257975136    -0.011061404643    14.003074004430
         N           -2.618853687314    -1.918572024864     0.110576595357    14.003074004430
         C            0.568273312686    -0.438558024864    -0.030032404643    12.000000000000
         C            0.344332312686     0.938030975136    -0.009902404643    12.000000000000
         C           -1.011589687314     1.422069975136     0.034676595357    12.000000000000
         C            2.449637312686     0.687848975136    -0.070423404643    12.000000000000
         C           -1.562482687314    -1.027687024864     0.018301595357    12.000000000000
         C            2.645944312686    -1.846963024864    -0.066022404643    12.000000000000
         H            3.519836312686     0.857438975136    -0.087109404643     1.007825032230
         H            2.383509312686    -2.432068024864     0.817245595357     1.007825032230
         H            2.390047312686    -2.415720024864    -0.961009404643     1.007825032230
         H            3.714714312686    -1.632228024864    -0.059736404643     1.007825032230
         H           -2.877406687314     0.567504975136     0.168813595357     1.007825032230
         H           -2.315228687314    -2.869335024864    -0.064742404643     1.007825032230
         H           -3.449118687314    -1.674280024864    -0.417853404643     1.007825032230

  Basis Set: AUG-CC-PVTZ
    Blend: AUG-CC-PVTZ
  Basis Set: (AUG-CC-PVTZ AUX)
    Blend: AUG-CC-PVTZ-JKFIT
	 Reference Energy          =    -578.6222775323456062 [Eh]
	 Singles Energy            =      -0.0000000000000000 [Eh]
	 Same-Spin Energy          =      -0.6151973936173905 [Eh]
	 Opposite-Spin Energy      =      -1.8192926474560784 [Eh]
	 Correlation Energy        =      -2.4344900410734689 [Eh]
	 Total Energy              =    -581.0567675734190516 [Eh]

	 ================> DF-SCS-MP2 Energies <==================
	-----------------------------------------------------------
	 SCS Same-Spin Scale       =       0.3333333333333333 [-]
	 SCS Opposite-Spin Scale   =       1.2000000000000000 [-]
	 SCS Same-Spin Energy      =      -0.2050657978724635 [Eh]
	 SCS Opposite-Spin Energy  =      -2.1831511769472942 [Eh]
	 SCS Correlation Energy    =      -2.3882169748197577 [Eh]
	 SCS Total Energy          =    -581.0104945071653901 [Eh]
	-----------------------------------------------------------

  Dipole Moment: [D]
     X:     0.2822      Y:    -6.9461      Z:    -0.9398     Total:     7.0151

*** Psi4 exiting successfully. Buy a developer a beer!
