                               Psi4 1.4a3.dev225

  ==> Input File <==

--------------------------------------------------------------------------
#psi4
#
memory 32 gb

molecule  {
0 1
  O        1.6617960     2.5152110     0.0229320
  N       -1.9329240    -0.4005880    -0.0147920
  N        1.9545050     0.2323110     0.0113410
  N        0.2669280    -1.4301930    -0.0208730
  N       -1.3834780     1.7915450    -0.0193170
  N        2.5221760    -2.0364130     0.0734370
  C       -0.5634760    -0.3442740    -0.0026930
  C       -0.2488450     1.0144850    -0.0147620
  C        1.1380320     1.4076430     0.0031510
  C       -2.3683130     0.9036150    -0.0164120
  C        1.5083603    -1.0775842    -0.0060221
  C       -2.7322540    -1.6127190     0.0339130
  H       -3.4247340     1.1445090    -0.0228960
  H       -2.2735910    -2.3629350    -0.6109560
  H       -2.7853950    -1.9995380     1.0543320
  H       -3.7366260    -1.3828770    -0.3245450
  H        2.9468270     0.4301980     0.1174830
  H        2.1372730    -2.9631930    -0.0801050
  H        3.3349710    -1.8642740    -0.5097710
units angstrom
no_reorient  #important for SAPT in psi4, default
symmetry c1  #important for SAPT in psi4, default
}

set PROPERTIES_ORIGIN ["COM"]
properties('MP2/aug-cc-pvtz', properties = ['dipole'])
--------------------------------------------------------------------------

    Molecular point group: c1
  Charge       = 0
  Multiplicity = 1
  Basis Set: AUG-CC-PVTZ
    Blend: AUG-CC-PVTZ
  Basis Set: (AUG-CC-PVTZ AUX)
    Blend: AUG-CC-PVTZ-JKFIT

    Orbital Energies [Eh]
    ---------------------

    Doubly Occupied:

       1A    -20.521212     2A    -15.634223     3A    -15.627283
       4A    -15.608396     5A    -15.572512     6A    -15.561019
       7A    -11.394483     8A    -11.364382     9A    -11.320741
      10A    -11.307993    11A    -11.290130    12A    -11.248795
      13A     -1.390598    14A     -1.361667    15A     -1.333390
      16A     -1.219031    17A     -1.214322    18A     -1.192091
      19A     -1.030749    20A     -0.986835    21A     -0.901642
      22A     -0.879856    23A     -0.808491    24A     -0.767059
      25A     -0.740888    26A     -0.725754    27A     -0.688973
      28A     -0.671728    29A     -0.649499    30A     -0.642902
      31A     -0.625639    32A     -0.611118    33A     -0.594963
      34A     -0.579370    35A     -0.561364    36A     -0.542160
      37A     -0.495112    38A     -0.460319    39A     -0.440106
      40A     -0.429994    41A     -0.428853    42A     -0.393861
      43A     -0.301141

  @DF-RHF Final Energy:  -578.63046271532687

   => Energetics <=

    Nuclear Repulsion Energy =            693.3146857383242150
    One-Electron Energy =               -2163.6490098471094825
    Two-Electron Energy =                 891.7038613934583964
    Total Energy =                       -578.6304627153268711
  Basis Set: (AUG-CC-PVTZ AUX)
    Blend: AUG-CC-PVTZ-RI
    Molecular point group: c1

    Geometry (in Angstrom), charge = 0, multiplicity = 1:

       Center              X                  Y                   Z               Mass
    ------------   -----------------  -----------------  -----------------  -----------------
         O            1.640370497357     2.461634211112     0.020686061463    15.994914619570
         N           -1.954349502643    -0.454164788888    -0.017037938537    14.003074004430
         N            1.933079497357     0.178734211112     0.009095061463    14.003074004430
         N            0.245502497357    -1.483769788888    -0.023118938537    14.003074004430
         N           -1.404903502643     1.737968211112    -0.021562938537    14.003074004430
         N            2.500750497357    -2.089989788888     0.071191061463    14.003074004430
         C           -0.584901502643    -0.397850788888    -0.004938938537    12.000000000000
         C           -0.270270502643     0.960908211112    -0.017007938537    12.000000000000
         C            1.116606497357     1.354066211112     0.000905061463    12.000000000000
         C           -2.389738502643     0.850038211112    -0.018657938537    12.000000000000
         C            1.486934797357    -1.131160988888    -0.008268038537    12.000000000000
         C           -2.753679502643    -1.666295788888     0.031667061463    12.000000000000
         H           -3.446159502643     1.090932211112    -0.025141938537     1.007825032230
         H           -2.295016502643    -2.416511788888    -0.613201938537     1.007825032230
         H           -2.806820502643    -2.053114788888     1.052086061463     1.007825032230
         H           -3.758051502643    -1.436453788888    -0.326790938537     1.007825032230
         H            2.925401497357     0.376621211112     0.115237061463     1.007825032230
         H            2.115847497357    -3.016769788888    -0.082350938537     1.007825032230
         H            3.313545497357    -1.917850788888    -0.512016938537     1.007825032230

  Basis Set: AUG-CC-PVTZ
    Blend: AUG-CC-PVTZ
  Basis Set: (AUG-CC-PVTZ AUX)
    Blend: AUG-CC-PVTZ-JKFIT
	 Reference Energy          =    -578.6304627153268711 [Eh]
	 Singles Energy            =      -0.0000000000000000 [Eh]
	 Same-Spin Energy          =      -0.6158626463278931 [Eh]
	 Opposite-Spin Energy      =      -1.8196558311457538 [Eh]
	 Correlation Energy        =      -2.4355184774736469 [Eh]
	 Total Energy              =    -581.0659811928005638 [Eh]

	 ================> DF-SCS-MP2 Energies <==================
	-----------------------------------------------------------
	 SCS Same-Spin Scale       =       0.3333333333333333 [-]
	 SCS Opposite-Spin Scale   =       1.2000000000000000 [-]
	 SCS Same-Spin Energy      =      -0.2052875487759644 [Eh]
	 SCS Opposite-Spin Energy  =      -2.1835869973749045 [Eh]
	 SCS Correlation Energy    =      -2.3888745461508689 [Eh]
	 SCS Total Energy          =    -581.0193372614777445 [Eh]
	-----------------------------------------------------------

  Dipole Moment: [D]
     X:    -0.6729      Y:    -6.7340      Z:    -0.8548     Total:     6.8213

*** Psi4 exiting successfully. Buy a developer a beer!
