                               Psi4 1.3.2 release

  ==> Input File <==

--------------------------------------------------------------------------
#psi4
#
memory 32 gb

molecule  {
0 1
  O       -1.4697740     2.5644010     0.0803940
  N        1.8970293    -0.5738580    -0.0553583
  N       -1.9102790     0.3061000     0.0485010
  N       -0.3427170    -1.4672350    -0.0387560
  N        1.5166440     1.6409000    -0.0105650
  N       -2.6294290    -1.9169300     0.1110730
  C        0.5576980    -0.4369160    -0.0295360
  C        0.3337570     0.9396730    -0.0094060
  C       -1.0221650     1.4237120     0.0351730
  C        2.4390620     0.6894910    -0.0699270
  C       -1.5730580    -1.0260450     0.0187980
  C        2.6353690    -1.8453210    -0.0655260
  H        3.5061371     0.8777347    -0.0866638
  H        2.3729340    -2.4304260     0.8177420
  H        2.3794720    -2.4140780    -0.9605130
  H        3.7041390    -1.6305860    -0.0592400
  H       -2.8879820     0.5691470     0.1693100
  H       -2.3258040    -2.8676930    -0.0642460
  H       -3.4596940    -1.6726380    -0.4173570
units angstrom
no_reorient  #important for SAPT in psi4, default
symmetry c1  #important for SAPT in psi4, default
}

set PROPERTIES_ORIGIN ["COM"]
properties('MP2/aug-cc-pvtz', properties = ['dipole'])
--------------------------------------------------------------------------

    Molecular point group: c1
  Charge       = 0
  Multiplicity = 1
  Basis Set: AUG-CC-PVTZ
    Blend: AUG-CC-PVTZ
  Basis Set: (AUG-CC-PVTZ AUX)
    Blend: AUG-CC-PVTZ-JKFIT

    Orbital Energies [Eh]
    ---------------------

    Doubly Occupied:

       1A    -20.519931     2A    -15.633403     3A    -15.628492
       4A    -15.610487     5A    -15.570178     6A    -15.559483
       7A    -11.395799     8A    -11.363222     9A    -11.316905
      10A    -11.305445    11A    -11.291446    12A    -11.244914
      13A     -1.390849    14A     -1.362985    15A     -1.334012
      16A     -1.218549    17A     -1.216157    18A     -1.188082
      19A     -1.030611    20A     -0.985811    21A     -0.901737
      22A     -0.881978    23A     -0.807735    24A     -0.766953
      25A     -0.741693    26A     -0.729564    27A     -0.691848
      28A     -0.671736    29A     -0.646118    30A     -0.642773
      31A     -0.625787    32A     -0.608312    33A     -0.593152
      34A     -0.582486    35A     -0.562625    36A     -0.541804
      37A     -0.492426    38A     -0.458914    39A     -0.439292
      40A     -0.428815    41A     -0.428350    42A     -0.392725
      43A     -0.298302

  @DF-RHF Final Energy:  -578.63070729918968

   => Energetics <=

    Nuclear Repulsion Energy =            693.8957049055889001
    One-Electron Energy =               -2164.8490533124886497
    Two-Electron Energy =                 892.3226411077100693
    Total Energy =                       -578.6307072991896803
  Basis Set: (AUG-CC-PVTZ AUX)
    Blend: AUG-CC-PVTZ-RI
    Molecular point group: c1

    Geometry (in Angstrom), charge = 0, multiplicity = 1:

       Center              X                  Y                   Z               Mass
    ------------   -----------------  -----------------  -----------------  -----------------
         O           -1.467877461889     2.563500835402     0.080370789030    15.994914619570
         N            1.898925838111    -0.574758164598    -0.055381510970    14.003074004430
         N           -1.908382461889     0.305199835402     0.048477789030    14.003074004430
         N           -0.340820461889    -1.468135164598    -0.038779210970    14.003074004430
         N            1.518540538111     1.639999835402    -0.010588210970    14.003074004430
         N           -2.627532461889    -1.917830164598     0.111049789030    14.003074004430
         C            0.559594538111    -0.437816164598    -0.029559210970    12.000000000000
         C            0.335653538111     0.938772835402    -0.009429210970    12.000000000000
         C           -1.020268461889     1.422811835402     0.035149789030    12.000000000000
         C            2.440958538111     0.688590835402    -0.069950210970    12.000000000000
         C           -1.571161461889    -1.026945164598     0.018774789030    12.000000000000
         C            2.637265538111    -1.846221164598    -0.065549210970    12.000000000000
         H            3.508033638111     0.876834535402    -0.086687010970     1.007825032230
         H            2.374830538111    -2.431326164598     0.817718789030     1.007825032230
         H            2.381368538111    -2.414978164598    -0.960536210970     1.007825032230
         H            3.706035538111    -1.631486164598    -0.059263210970     1.007825032230
         H           -2.886085461889     0.568246835402     0.169286789030     1.007825032230
         H           -2.323907461889    -2.868593164598    -0.064269210970     1.007825032230
         H           -3.457797461889    -1.673538164598    -0.417380210970     1.007825032230

  Basis Set: AUG-CC-PVTZ
    Blend: AUG-CC-PVTZ
  Basis Set: (AUG-CC-PVTZ AUX)
    Blend: AUG-CC-PVTZ-JKFIT
	 Reference Energy          =    -578.6307072991896803 [Eh]
	 Singles Energy            =      -0.0000000000000000 [Eh]
	 Same-Spin Energy          =      -0.6159095581373302 [Eh]
	 Opposite-Spin Energy      =      -1.8194080754377462 [Eh]
	 Correlation Energy        =      -2.4353176335750764 [Eh]
	 Total Energy              =    -581.0660249327647762 [Eh]

	 ================> DF-SCS-MP2 Energies <==================
	-----------------------------------------------------------
	 SCS Same-Spin Scale       =       0.3333333333333333 [-]
	 SCS Opposite-Spin Scale   =       1.2000000000000000 [-]
	 SCS Same-Spin Energy      =      -0.2053031860457767 [Eh]
	 SCS Opposite-Spin Energy  =      -2.1832896905252954 [Eh]
	 SCS Correlation Energy    =      -2.3885928765710722 [Eh]
	 SCS Total Energy          =    -581.0193001757608044 [Eh]
	-----------------------------------------------------------

  Dipole Moment: [D]
     X:     0.0594      Y:    -6.8286      Z:    -0.9393     Total:     6.8932

*** Psi4 exiting successfully. Buy a developer a beer!
