                               Psi4 1.3.2 release

  ==> Input File <==

--------------------------------------------------------------------------
#psi4
#
memory 32 gb

molecule  {
0 1
  O       -1.4697740     2.5644010     0.0803940
  N        1.9191590    -0.5831280    -0.0556370
  N       -1.9102790     0.3061000     0.0485010
  N       -0.3427170    -1.4672350    -0.0387560
  N        1.5166440     1.6409000    -0.0105650
  N       -2.6294290    -1.9169300     0.1110730
  C        0.5576980    -0.4369160    -0.0295360
  C        0.3337570     0.9396730    -0.0094060
  C       -0.9599538     1.5019992     0.0342394
  C        2.4390620     0.6894910    -0.0699270
  C       -1.5730580    -1.0260450     0.0187980
  C        2.6353690    -1.8453210    -0.0655260
  H        3.5092610     0.8590810    -0.0866130
  H        2.3729340    -2.4304260     0.8177420
  H        2.3794720    -2.4140780    -0.9605130
  H        3.7041390    -1.6305860    -0.0592400
  H       -2.8879820     0.5691470     0.1693100
  H       -2.3258040    -2.8676930    -0.0642460
  H       -3.4596940    -1.6726380    -0.4173570
units angstrom
no_reorient  #important for SAPT in psi4, default
symmetry c1  #important for SAPT in psi4, default
}

set PROPERTIES_ORIGIN ["COM"]
properties('MP2/aug-cc-pvtz', properties = ['dipole'])
--------------------------------------------------------------------------

    Molecular point group: c1
  Charge       = 0
  Multiplicity = 1
  Basis Set: AUG-CC-PVTZ
    Blend: AUG-CC-PVTZ
  Basis Set: (AUG-CC-PVTZ AUX)
    Blend: AUG-CC-PVTZ-JKFIT

    Orbital Energies [Eh]
    ---------------------

    Doubly Occupied:

       1A    -20.535820     2A    -15.633962     3A    -15.610937
       4A    -15.603842     5A    -15.563309     6A    -15.559710
       7A    -11.387830     8A    -11.367589     9A    -11.323681
      10A    -11.307261    11A    -11.289554    12A    -11.245424
      13A     -1.413469    14A     -1.367938    15A     -1.328772
      16A     -1.212405    17A     -1.204996    18A     -1.182601
      19A     -1.030770    20A     -0.989553    21A     -0.899332
      22A     -0.865416    23A     -0.800576    24A     -0.768266
      25A     -0.731920    26A     -0.721998    27A     -0.688064
      28A     -0.670278    29A     -0.654842    30A     -0.640189
      31A     -0.626012    32A     -0.619090    33A     -0.591951
      34A     -0.579816    35A     -0.563094    36A     -0.550349
      37A     -0.490424    38A     -0.455546    39A     -0.442593
      40A     -0.434822    41A     -0.426723    42A     -0.393034
      43A     -0.299514

  @DF-RHF Final Energy:  -578.62449594047541

   => Energetics <=

    Nuclear Repulsion Energy =            693.1044612343149538
    One-Electron Energy =               -2163.3113670830475712
    Two-Electron Energy =                 891.5824099082573184
    Total Energy =                       -578.6244959404754127
  Basis Set: (AUG-CC-PVTZ AUX)
    Blend: AUG-CC-PVTZ-RI
    Molecular point group: c1

    Geometry (in Angstrom), charge = 0, multiplicity = 1:

       Center              X                  Y                   Z               Mass
    ------------   -----------------  -----------------  -----------------  -----------------
         O           -1.474296546414     2.558709765512     0.080461993427    15.994914619570
         N            1.914636453586    -0.588819234488    -0.055569006573    14.003074004430
         N           -1.914801546414     0.300408765512     0.048568993427    14.003074004430
         N           -0.347239546414    -1.472926234488    -0.038688006573    14.003074004430
         N            1.512121453586     1.635208765512    -0.010497006573    14.003074004430
         N           -2.633951546414    -1.922621234488     0.111140993427    14.003074004430
         C            0.553175453586    -0.442607234488    -0.029468006573    12.000000000000
         C            0.329234453586     0.933981765512    -0.009338006573    12.000000000000
         C           -0.964476346414     1.496307965512     0.034307393427    12.000000000000
         C            2.434539453586     0.683799765512    -0.069859006573    12.000000000000
         C           -1.577580546414    -1.031736234488     0.018865993427    12.000000000000
         C            2.630846453586    -1.851012234488    -0.065458006573    12.000000000000
         H            3.504738453586     0.853389765512    -0.086545006573     1.007825032230
         H            2.368411453586    -2.436117234488     0.817809993427     1.007825032230
         H            2.374949453586    -2.419769234488    -0.960445006573     1.007825032230
         H            3.699616453586    -1.636277234488    -0.059172006573     1.007825032230
         H           -2.892504546414     0.563455765512     0.169377993427     1.007825032230
         H           -2.330326546414    -2.873384234488    -0.064178006573     1.007825032230
         H           -3.464216546414    -1.678329234488    -0.417289006573     1.007825032230

  Basis Set: AUG-CC-PVTZ
    Blend: AUG-CC-PVTZ
  Basis Set: (AUG-CC-PVTZ AUX)
    Blend: AUG-CC-PVTZ-JKFIT
	 Reference Energy          =    -578.6244959404754127 [Eh]
	 Singles Energy            =      -0.0000000000000000 [Eh]
	 Same-Spin Energy          =      -0.6156130569542080 [Eh]
	 Opposite-Spin Energy      =      -1.8190077424639832 [Eh]
	 Correlation Energy        =      -2.4346207994181910 [Eh]
	 Total Energy              =    -581.0591167398936250 [Eh]

	 ================> DF-SCS-MP2 Energies <==================
	-----------------------------------------------------------
	 SCS Same-Spin Scale       =       0.3333333333333333 [-]
	 SCS Opposite-Spin Scale   =       1.2000000000000000 [-]
	 SCS Same-Spin Energy      =      -0.2052043523180693 [Eh]
	 SCS Opposite-Spin Energy  =      -2.1828092909567798 [Eh]
	 SCS Correlation Energy    =      -2.3880136432748493 [Eh]
	 SCS Total Energy          =    -581.0125095837502158 [Eh]
	-----------------------------------------------------------

  Dipole Moment: [D]
     X:     0.1981      Y:    -6.0821      Z:    -0.9269     Total:     6.1555

*** Psi4 exiting successfully. Buy a developer a beer!
