                               Psi4 1.3.2 release

  ==> Input File <==

--------------------------------------------------------------------------
#psi4
#
memory 32 gb

molecule  {
0 1
  O       -1.4697740     2.5644010     0.0803940
  N        1.9191590    -0.5831280    -0.0556370
  N       -1.9102790     0.3061000     0.0485010
  N       -0.3281722    -1.4240085    -0.0410716
  N        1.5166440     1.6409000    -0.0105650
  N       -2.6599140    -1.8794159     0.1116018
  C        0.5576980    -0.4369160    -0.0295360
  C        0.3337570     0.9396730    -0.0094060
  C       -1.0221650     1.4237120     0.0351730
  C        2.4390620     0.6894910    -0.0699270
  C       -1.5730580    -1.0260450     0.0187980
  C        2.6353690    -1.8453210    -0.0655260
  H        3.5092610     0.8590810    -0.0866130
  H        2.3729340    -2.4304260     0.8177420
  H        2.3794720    -2.4140780    -0.9605130
  H        3.7041390    -1.6305860    -0.0592400
  H       -2.8879820     0.5691470     0.1693100
  H       -2.3258040    -2.8676930    -0.0642460
  H       -3.4596940    -1.6726380    -0.4173570
units angstrom
no_reorient  #important for SAPT in psi4, default
symmetry c1  #important for SAPT in psi4, default
}

set PROPERTIES_ORIGIN ["COM"]
properties('MP2/aug-cc-pvtz', properties = ['dipole'])
--------------------------------------------------------------------------

    Molecular point group: c1
  Charge       = 0
  Multiplicity = 1
  Basis Set: AUG-CC-PVTZ
    Blend: AUG-CC-PVTZ
  Basis Set: (AUG-CC-PVTZ AUX)
    Blend: AUG-CC-PVTZ-JKFIT

    Orbital Energies [Eh]
    ---------------------

    Doubly Occupied:

       1A    -20.517710     2A    -15.631192     3A    -15.627266
       4A    -15.614824     5A    -15.568911     6A    -15.558216
       7A    -11.398533     8A    -11.361494     9A    -11.316392
      10A    -11.306439    11A    -11.289101    12A    -11.244440
      13A     -1.391095    14A     -1.360328    15A     -1.334785
      16A     -1.227131    17A     -1.215941    18A     -1.190550
      19A     -1.028887    20A     -0.985692    21A     -0.902381
      22A     -0.887083    23A     -0.810695    24A     -0.767066
      25A     -0.741659    26A     -0.736483    27A     -0.684672
      28A     -0.671872    29A     -0.649628    30A     -0.644851
      31A     -0.628761    32A     -0.608526    33A     -0.592573
      34A     -0.579121    35A     -0.560838    36A     -0.541637
      37A     -0.491643    38A     -0.465222    39A     -0.436982
      40A     -0.429044    41A     -0.425718    42A     -0.391967
      43A     -0.294924

  @DF-RHF Final Energy:  -578.62595171072621

   => Energetics <=

    Nuclear Repulsion Energy =            694.5873714916268682
    One-Electron Energy =               -2166.2021019943122155
    Two-Electron Energy =                 892.9887787919590210
    Total Energy =                       -578.6259517107262127
  Basis Set: (AUG-CC-PVTZ AUX)
    Blend: AUG-CC-PVTZ-RI
    Molecular point group: c1

    Geometry (in Angstrom), charge = 0, multiplicity = 1:

       Center              X                  Y                   Z               Mass
    ------------   -----------------  -----------------  -----------------  -----------------
         O           -1.468421613215     2.557551614919     0.080545702800    15.994914619570
         N            1.920511386785    -0.589977385081    -0.055485297200    14.003074004430
         N           -1.908926613215     0.299250614919     0.048652702800    14.003074004430
         N           -0.326819813215    -1.430857885081    -0.040919897200    14.003074004430
         N            1.517996386785     1.634050614919    -0.010413297200    14.003074004430
         N           -2.658561613215    -1.886265285081     0.111753502800    14.003074004430
         C            0.559050386785    -0.443765385081    -0.029384297200    12.000000000000
         C            0.335109386785     0.932823614919    -0.009254297200    12.000000000000
         C           -1.020812613215     1.416862614919     0.035324702800    12.000000000000
         C            2.440414386785     0.682641614919    -0.069775297200    12.000000000000
         C           -1.571705613215    -1.032894385081     0.018949702800    12.000000000000
         C            2.636721386785    -1.852170385081    -0.065374297200    12.000000000000
         H            3.510613386785     0.852231614919    -0.086461297200     1.007825032230
         H            2.374286386785    -2.437275385081     0.817893702800     1.007825032230
         H            2.380824386785    -2.420927385081    -0.960361297200     1.007825032230
         H            3.705491386785    -1.637435385081    -0.059088297200     1.007825032230
         H           -2.886629613215     0.562297614919     0.169461702800     1.007825032230
         H           -2.324451613215    -2.874542385081    -0.064094297200     1.007825032230
         H           -3.458341613215    -1.679487385081    -0.417205297200     1.007825032230

  Basis Set: AUG-CC-PVTZ
    Blend: AUG-CC-PVTZ
  Basis Set: (AUG-CC-PVTZ AUX)
    Blend: AUG-CC-PVTZ-JKFIT
	 Reference Energy          =    -578.6259517107262127 [Eh]
	 Singles Energy            =      -0.0000000000000000 [Eh]
	 Same-Spin Energy          =      -0.6166069150356880 [Eh]
	 Opposite-Spin Energy      =      -1.8197863330336363 [Eh]
	 Correlation Energy        =      -2.4363932480693244 [Eh]
	 Total Energy              =    -581.0623449587955065 [Eh]

	 ================> DF-SCS-MP2 Energies <==================
	-----------------------------------------------------------
	 SCS Same-Spin Scale       =       0.3333333333333333 [-]
	 SCS Opposite-Spin Scale   =       1.2000000000000000 [-]
	 SCS Same-Spin Energy      =      -0.2055356383452293 [Eh]
	 SCS Opposite-Spin Energy  =      -2.1837435996403634 [Eh]
	 SCS Correlation Energy    =      -2.3892792379855927 [Eh]
	 SCS Total Energy          =    -581.0152309487118600 [Eh]
	-----------------------------------------------------------

  Dipole Moment: [D]
     X:    -0.0236      Y:    -6.9906      Z:    -0.9502     Total:     7.0549

*** Psi4 exiting successfully. Buy a developer a beer!
