                               Psi4 1.3.2 release

  ==> Input File <==

--------------------------------------------------------------------------
#psi4
#
memory 32 gb

molecule  {
0 1
  O       -1.4697740     2.5644010     0.0803940
  N        1.9191590    -0.5831280    -0.0556370
  N       -1.9102790     0.3061000     0.0485010
  N       -0.3062104    -1.4980262    -0.0393787
  N        1.5166440     1.6409000    -0.0105650
  N       -2.6294290    -1.9169300     0.1110730
  C        0.5576980    -0.4369160    -0.0295360
  C        0.3819401     0.9466528    -0.0095739
  C       -1.0221650     1.4237120     0.0351730
  C        2.4390620     0.6894910    -0.0699270
  C       -1.5730580    -1.0260450     0.0187980
  C        2.6353690    -1.8453210    -0.0655260
  H        3.5092610     0.8590810    -0.0866130
  H        2.3729340    -2.4304260     0.8177420
  H        2.3794720    -2.4140780    -0.9605130
  H        3.7041390    -1.6305860    -0.0592400
  H       -2.8879820     0.5691470     0.1693100
  H       -2.3258040    -2.8676930    -0.0642460
  H       -3.4596940    -1.6726380    -0.4173570
units angstrom
no_reorient  #important for SAPT in psi4, default
symmetry c1  #important for SAPT in psi4, default
}

set PROPERTIES_ORIGIN ["COM"]
properties('MP2/aug-cc-pvtz', properties = ['dipole'])
--------------------------------------------------------------------------

    Molecular point group: c1
  Charge       = 0
  Multiplicity = 1
  Basis Set: AUG-CC-PVTZ
    Blend: AUG-CC-PVTZ
  Basis Set: (AUG-CC-PVTZ AUX)
    Blend: AUG-CC-PVTZ-JKFIT

    Orbital Energies [Eh]
    ---------------------

    Doubly Occupied:

       1A    -20.524733     2A    -15.635238     3A    -15.629446
       4A    -15.614613     5A    -15.575167     6A    -15.556405
       7A    -11.403944     8A    -11.368262     9A    -11.311994
      10A    -11.303628    11A    -11.286509    12A    -11.247684
      13A     -1.390760    14A     -1.362545    15A     -1.332082
      16A     -1.221309    17A     -1.218197    18A     -1.190939
      19A     -1.021386    20A     -0.983904    21A     -0.896871
      22A     -0.883419    23A     -0.804435    24A     -0.766116
      25A     -0.743733    26A     -0.728202    27A     -0.693296
      28A     -0.668988    29A     -0.647100    30A     -0.637602
      31A     -0.623133    32A     -0.610532    33A     -0.593036
      34A     -0.574530    35A     -0.562018    36A     -0.540458
      37A     -0.498010    38A     -0.459844    39A     -0.446374
      40A     -0.431411    41A     -0.426307    42A     -0.394938
      43A     -0.289863

  @DF-RHF Final Energy:  -578.62157322628821

   => Energetics <=

    Nuclear Repulsion Energy =            692.5095034335379296
    One-Electron Energy =               -2162.0642375573634126
    Two-Electron Energy =                 890.9331608975372774
    Total Energy =                       -578.6215732262882057
  Basis Set: (AUG-CC-PVTZ AUX)
    Blend: AUG-CC-PVTZ-RI
    Molecular point group: c1

    Geometry (in Angstrom), charge = 0, multiplicity = 1:

       Center              X                  Y                   Z               Mass
    ------------   -----------------  -----------------  -----------------  -----------------
         O           -1.476373711755     2.566505844545     0.080459154027    15.994914619570
         N            1.912559288245    -0.581023155455    -0.055571845973    14.003074004430
         N           -1.916878711755     0.308204844545     0.048566154027    14.003074004430
         N           -0.312810111755    -1.495921355455    -0.039313545973    14.003074004430
         N            1.510044288245     1.643004844545    -0.010499845973    14.003074004430
         N           -2.636028711755    -1.914825155455     0.111138154027    14.003074004430
         C            0.551098288245    -0.434811155455    -0.029470845973    12.000000000000
         C            0.375340388245     0.948757644545    -0.009508745973    12.000000000000
         C           -1.028764711755     1.425816844545     0.035238154027    12.000000000000
         C            2.432462288245     0.691595844545    -0.069861845973    12.000000000000
         C           -1.579657711755    -1.023940155455     0.018863154027    12.000000000000
         C            2.628769288245    -1.843216155455    -0.065460845973    12.000000000000
         H            3.502661288245     0.861185844545    -0.086547845973     1.007825032230
         H            2.366334288245    -2.428321155455     0.817807154027     1.007825032230
         H            2.372872288245    -2.411973155455    -0.960447845973     1.007825032230
         H            3.697539288245    -1.628481155455    -0.059174845973     1.007825032230
         H           -2.894581711755     0.571251844545     0.169375154027     1.007825032230
         H           -2.332403711755    -2.865588155455    -0.064180845973     1.007825032230
         H           -3.466293711755    -1.670533155455    -0.417291845973     1.007825032230

  Basis Set: AUG-CC-PVTZ
    Blend: AUG-CC-PVTZ
  Basis Set: (AUG-CC-PVTZ AUX)
    Blend: AUG-CC-PVTZ-JKFIT
	 Reference Energy          =    -578.6215732262882057 [Eh]
	 Singles Energy            =      -0.0000000000000000 [Eh]
	 Same-Spin Energy          =      -0.6171785386780233 [Eh]
	 Opposite-Spin Energy      =      -1.8216057247048330 [Eh]
	 Correlation Energy        =      -2.4387842633828560 [Eh]
	 Total Energy              =    -581.0603574896711052 [Eh]

	 ================> DF-SCS-MP2 Energies <==================
	-----------------------------------------------------------
	 SCS Same-Spin Scale       =       0.3333333333333333 [-]
	 SCS Opposite-Spin Scale   =       1.2000000000000000 [-]
	 SCS Same-Spin Energy      =      -0.2057261795593411 [Eh]
	 SCS Opposite-Spin Energy  =      -2.1859268696457996 [Eh]
	 SCS Correlation Energy    =      -2.3916530492051407 [Eh]
	 SCS Total Energy          =    -581.0132262754933663 [Eh]
	-----------------------------------------------------------

  Dipole Moment: [D]
     X:    -0.2756      Y:    -6.6576      Z:    -0.9250     Total:     6.7272

*** Psi4 exiting successfully. Buy a developer a beer!
