                               Psi4 1.3.2 release

  ==> Input File <==

--------------------------------------------------------------------------
#psi4
#
memory 32 gb

molecule  {
0 1
  O       -1.4697740     2.5644010     0.0803940
  N        1.9191590    -0.5831280    -0.0556370
  N       -1.8403628     0.3219915     0.0423872
  N       -0.3427170    -1.4672350    -0.0387560
  N        1.5166440     1.6409000    -0.0105650
  N       -2.5815341    -1.9712058     0.1068749
  C        0.5576980    -0.4369160    -0.0295360
  C        0.3337570     0.9396730    -0.0094060
  C       -1.0221650     1.4237120     0.0351730
  C        2.4390620     0.6894910    -0.0699270
  C       -1.5730580    -1.0260450     0.0187980
  C        2.6353690    -1.8453210    -0.0655260
  H        3.5092610     0.8590810    -0.0866130
  H        2.3729340    -2.4304260     0.8177420
  H        2.3794720    -2.4140780    -0.9605130
  H        3.7041390    -1.6305860    -0.0592400
  H       -2.8879820     0.5691470     0.1693100
  H       -2.3258040    -2.8676930    -0.0642460
  H       -3.4596940    -1.6726380    -0.4173570
units angstrom
no_reorient  #important for SAPT in psi4, default
symmetry c1  #important for SAPT in psi4, default
}

set PROPERTIES_ORIGIN ["COM"]
properties('MP2/aug-cc-pvtz', properties = ['dipole'])
--------------------------------------------------------------------------

    Molecular point group: c1
  Charge       = 0
  Multiplicity = 1
  Basis Set: AUG-CC-PVTZ
    Blend: AUG-CC-PVTZ
  Basis Set: (AUG-CC-PVTZ AUX)
    Blend: AUG-CC-PVTZ-JKFIT

    Orbital Energies [Eh]
    ---------------------

    Doubly Occupied:

       1A    -20.516538     2A    -15.638759     3A    -15.631050
       4A    -15.613817     5A    -15.568510     6A    -15.557486
       7A    -11.397655     8A    -11.359871     9A    -11.315723
      10A    -11.305849    11A    -11.288252    12A    -11.244687
      13A     -1.394815    14A     -1.359107    15A     -1.334518
      16A     -1.231933    17A     -1.212830    18A     -1.187989
      19A     -1.031186    20A     -0.985412    21A     -0.908748
      22A     -0.883946    23A     -0.807664    24A     -0.764256
      25A     -0.743131    26A     -0.729215    27A     -0.696683
      28A     -0.671706    29A     -0.651703    30A     -0.638811
      31A     -0.625015    32A     -0.610635    33A     -0.588316
      34A     -0.576782    35A     -0.559687    36A     -0.544805
      37A     -0.490504    38A     -0.459472    39A     -0.439097
      40A     -0.427790    41A     -0.427076    42A     -0.390778
      43A     -0.297103

  @DF-RHF Final Energy:  -578.61387418415086

   => Energetics <=

    Nuclear Repulsion Energy =            694.9812242996393934
    One-Electron Energy =               -2166.9723706965100973
    Two-Electron Energy =                 893.3772722127197312
    Total Energy =                       -578.6138741841508590
  Basis Set: (AUG-CC-PVTZ AUX)
    Blend: AUG-CC-PVTZ-RI
    Molecular point group: c1

    Geometry (in Angstrom), charge = 0, multiplicity = 1:

       Center              X                  Y                   Z               Mass
    ------------   -----------------  -----------------  -----------------  -----------------
         O           -1.479768226202     2.567657416788     0.081268918278    15.994914619570
         N            1.909164773798    -0.579871583212    -0.054762081722    14.003074004430
         N           -1.850357026202     0.325247916788     0.043262118278    14.003074004430
         N           -0.352711226202    -1.463978583212    -0.037881081722    14.003074004430
         N            1.506649773798     1.644156416788    -0.009690081722    14.003074004430
         N           -2.591528326202    -1.967949383212     0.107749818278    14.003074004430
         C            0.547703773798    -0.433659583212    -0.028661081722    12.000000000000
         C            0.323762773798     0.942929416788    -0.008531081722    12.000000000000
         C           -1.032159226202     1.426968416788     0.036047918278    12.000000000000
         C            2.429067773798     0.692747416788    -0.069052081722    12.000000000000
         C           -1.583052226202    -1.022788583212     0.019672918278    12.000000000000
         C            2.625374773798    -1.842064583212    -0.064651081722    12.000000000000
         H            3.499266773798     0.862337416788    -0.085738081722     1.007825032230
         H            2.362939773798    -2.427169583212     0.818616918278     1.007825032230
         H            2.369477773798    -2.410821583212    -0.959638081722     1.007825032230
         H            3.694144773798    -1.627329583212    -0.058365081722     1.007825032230
         H           -2.897976226202     0.572403416788     0.170184918278     1.007825032230
         H           -2.335798226202    -2.864436583212    -0.063371081722     1.007825032230
         H           -3.469688226202    -1.669381583212    -0.416482081722     1.007825032230

  Basis Set: AUG-CC-PVTZ
    Blend: AUG-CC-PVTZ
  Basis Set: (AUG-CC-PVTZ AUX)
    Blend: AUG-CC-PVTZ-JKFIT
	 Reference Energy          =    -578.6138741841508590 [Eh]
	 Singles Energy            =      -0.0000000000000000 [Eh]
	 Same-Spin Energy          =      -0.6170836002754652 [Eh]
	 Opposite-Spin Energy      =      -1.8209971939942939 [Eh]
	 Correlation Energy        =      -2.4380807942697591 [Eh]
	 Total Energy              =    -581.0519549784206674 [Eh]

	 ================> DF-SCS-MP2 Energies <==================
	-----------------------------------------------------------
	 SCS Same-Spin Scale       =       0.3333333333333333 [-]
	 SCS Opposite-Spin Scale   =       1.2000000000000000 [-]
	 SCS Same-Spin Energy      =      -0.2056945334251550 [Eh]
	 SCS Opposite-Spin Energy  =      -2.1851966327931525 [Eh]
	 SCS Correlation Energy    =      -2.3908911662183074 [Eh]
	 SCS Total Energy          =    -581.0047653503692118 [Eh]
	-----------------------------------------------------------

  Dipole Moment: [D]
     X:    -0.2351      Y:    -6.9344      Z:    -0.9133     Total:     6.9982

*** Psi4 exiting successfully. Buy a developer a beer!
