                               Psi4 1.3.2 release

  ==> Input File <==

--------------------------------------------------------------------------
#psi4
#
memory 32 gb

molecule  {
0 1
  O       -1.4697740     2.5644010     0.0803940
  N        1.9191590    -0.5831280    -0.0556370
  N       -1.9102790     0.3061000     0.0485010
  N       -0.3427170    -1.4672350    -0.0387560
  N        1.5166440     1.6409000    -0.0105650
  N       -2.6294290    -1.9169300     0.1110730
  C        0.5576980    -0.4369160    -0.0295360
  C        0.3720366     0.8787900    -0.0127045
  C       -1.0221650     1.4237120     0.0351730
  C        2.3879362     0.6424951    -0.0705280
  C       -1.5730580    -1.0260450     0.0187980
  C        2.6353690    -1.8453210    -0.0655260
  H        3.5092610     0.8590810    -0.0866130
  H        2.3729340    -2.4304260     0.8177420
  H        2.3794720    -2.4140780    -0.9605130
  H        3.7041390    -1.6305860    -0.0592400
  H       -2.8879820     0.5691470     0.1693100
  H       -2.3258040    -2.8676930    -0.0642460
  H       -3.4596940    -1.6726380    -0.4173570
units angstrom
no_reorient  #important for SAPT in psi4, default
symmetry c1  #important for SAPT in psi4, default
}

set PROPERTIES_ORIGIN ["COM"]
properties('MP2/aug-cc-pvtz', properties = ['dipole'])
--------------------------------------------------------------------------

    Molecular point group: c1
  Charge       = 0
  Multiplicity = 1
  Basis Set: AUG-CC-PVTZ
    Blend: AUG-CC-PVTZ
  Basis Set: (AUG-CC-PVTZ AUX)
    Blend: AUG-CC-PVTZ-JKFIT

    Orbital Energies [Eh]
    ---------------------

    Doubly Occupied:

       1A    -20.529397     2A    -15.632026     3A    -15.628355
       4A    -15.608543     5A    -15.568067     6A    -15.552952
       7A    -11.392856     8A    -11.370616     9A    -11.306476
      10A    -11.304191    11A    -11.291606    12A    -11.245685
      13A     -1.396974    14A     -1.376019    15A     -1.336383
      16A     -1.218430    17A     -1.215294    18A     -1.195761
      19A     -1.032681    20A     -0.991550    21A     -0.900246
      22A     -0.880868    23A     -0.805009    24A     -0.774603
      25A     -0.740548    26A     -0.721843    27A     -0.691832
      28A     -0.678675    29A     -0.657630    30A     -0.637159
      31A     -0.626026    32A     -0.616275    33A     -0.578578
      34A     -0.567501    35A     -0.562639    36A     -0.542401
      37A     -0.496013    38A     -0.458542    39A     -0.445301
      40A     -0.433841    41A     -0.429626    42A     -0.396699
      43A     -0.301967

  @DF-RHF Final Energy:  -578.61765433024698

   => Energetics <=

    Nuclear Repulsion Energy =            695.8410273670459674
    One-Electron Energy =               -2168.6419966314288104
    Two-Electron Energy =                 894.1833149341357512
    Total Energy =                       -578.6176543302469781
  Basis Set: (AUG-CC-PVTZ AUX)
    Blend: AUG-CC-PVTZ-RI
    Molecular point group: c1

    Geometry (in Angstrom), charge = 0, multiplicity = 1:

       Center              X                  Y                   Z               Mass
    ------------   -----------------  -----------------  -----------------  -----------------
         O           -1.468839977951     2.572243781746     0.080677610227    15.994914619570
         N            1.920093022049    -0.575285218254    -0.055353389773    14.003074004430
         N           -1.909344977951     0.313942781746     0.048784610227    14.003074004430
         N           -0.341782977951    -1.459392218254    -0.038472389773    14.003074004430
         N            1.517578022049     1.648742781746    -0.010281389773    14.003074004430
         N           -2.628494977951    -1.909087218254     0.111356610227    14.003074004430
         C            0.558632022049    -0.429073218254    -0.029252389773    12.000000000000
         C            0.372970622049     0.886632781746    -0.012420889773    12.000000000000
         C           -1.021230977951     1.431554781746     0.035456610227    12.000000000000
         C            2.388870222049     0.650337881746    -0.070244389773    12.000000000000
         C           -1.572123977951    -1.018202218254     0.019081610227    12.000000000000
         C            2.636303022049    -1.837478218254    -0.065242389773    12.000000000000
         H            3.510195022049     0.866923781746    -0.086329389773     1.007825032230
         H            2.373868022049    -2.422583218254     0.818025610227     1.007825032230
         H            2.380406022049    -2.406235218254    -0.960229389773     1.007825032230
         H            3.705073022049    -1.622743218254    -0.058956389773     1.007825032230
         H           -2.887047977951     0.576989781746     0.169593610227     1.007825032230
         H           -2.324869977951    -2.859850218254    -0.063962389773     1.007825032230
         H           -3.458759977951    -1.664795218254    -0.417073389773     1.007825032230

  Basis Set: AUG-CC-PVTZ
    Blend: AUG-CC-PVTZ
  Basis Set: (AUG-CC-PVTZ AUX)
    Blend: AUG-CC-PVTZ-JKFIT
	 Reference Energy          =    -578.6176543302469781 [Eh]
	 Singles Energy            =      -0.0000000000000000 [Eh]
	 Same-Spin Energy          =      -0.6155365435898381 [Eh]
	 Opposite-Spin Energy      =      -1.8191638550378322 [Eh]
	 Correlation Energy        =      -2.4347003986276703 [Eh]
	 Total Energy              =    -581.0523547288746613 [Eh]

	 ================> DF-SCS-MP2 Energies <==================
	-----------------------------------------------------------
	 SCS Same-Spin Scale       =       0.3333333333333333 [-]
	 SCS Opposite-Spin Scale   =       1.2000000000000000 [-]
	 SCS Same-Spin Energy      =      -0.2051788478632794 [Eh]
	 SCS Opposite-Spin Energy  =      -2.1829966260453983 [Eh]
	 SCS Correlation Energy    =      -2.3881754739086776 [Eh]
	 SCS Total Energy          =    -581.0058298041556100 [Eh]
	-----------------------------------------------------------

  Dipole Moment: [D]
     X:    -0.1579      Y:    -6.7609      Z:    -0.9313     Total:     6.8266

*** Psi4 exiting successfully. Buy a developer a beer!
