                               Psi4 1.3.2 release

  ==> Input File <==

--------------------------------------------------------------------------
#psi4
#
memory 32 gb

molecule  {
0 1
  O       -1.4697740     2.5644010     0.0803940
  N        1.9191590    -0.5831280    -0.0556370
  N       -1.9102790     0.3061000     0.0485010
  N       -0.3427170    -1.4672350    -0.0387560
  N        1.5166440     1.6409000    -0.0105650
  N       -2.6294290    -1.9169300     0.1110730
  C        0.6294120    -0.4232840    -0.0315075
  C        0.3337570     0.9396730    -0.0094060
  C       -0.9949633     1.4940466     0.0350668
  C        2.4390620     0.6894910    -0.0699270
  C       -1.5730580    -1.0260450     0.0187980
  C        2.6353690    -1.8453210    -0.0655260
  H        3.5092610     0.8590810    -0.0866130
  H        2.3729340    -2.4304260     0.8177420
  H        2.3794720    -2.4140780    -0.9605130
  H        3.7041390    -1.6305860    -0.0592400
  H       -2.8879820     0.5691470     0.1693100
  H       -2.3258040    -2.8676930    -0.0642460
  H       -3.4596940    -1.6726380    -0.4173570
units angstrom
no_reorient  #important for SAPT in psi4, default
symmetry c1  #important for SAPT in psi4, default
}

set PROPERTIES_ORIGIN ["COM"]
properties('MP2/aug-cc-pvtz', properties = ['dipole'])
--------------------------------------------------------------------------

    Molecular point group: c1
  Charge       = 0
  Multiplicity = 1
  Basis Set: AUG-CC-PVTZ
    Blend: AUG-CC-PVTZ
  Basis Set: (AUG-CC-PVTZ AUX)
    Blend: AUG-CC-PVTZ-JKFIT

    Orbital Energies [Eh]
    ---------------------

    Doubly Occupied:

       1A    -20.537515     2A    -15.638491     3A    -15.610934
       4A    -15.601640     5A    -15.562386     6A    -15.560350
       7A    -11.384510     8A    -11.368376     9A    -11.317576
      10A    -11.303553    11A    -11.293852    12A    -11.244176
      13A     -1.419829    14A     -1.382856    15A     -1.326194
      16A     -1.211210    17A     -1.202509    18A     -1.178443
      19A     -1.028624    20A     -0.995276    21A     -0.899390
      22A     -0.862118    23A     -0.801606    24A     -0.768224
      25A     -0.737501    26A     -0.719489    27A     -0.688863
      28A     -0.677406    29A     -0.656970    30A     -0.641204
      31A     -0.624595    32A     -0.616422    33A     -0.593166
      34A     -0.587668    35A     -0.564571    36A     -0.554769
      37A     -0.483825    38A     -0.450238    39A     -0.443933
      40A     -0.429407    41A     -0.425189    42A     -0.394103
      43A     -0.299964

  @DF-RHF Final Energy:  -578.62021180009003

   => Energetics <=

    Nuclear Repulsion Energy =            693.1351569579062470
    One-Electron Energy =               -2163.3328910869513493
    Two-Electron Energy =                 891.5775223289550695
    Total Energy =                       -578.6202118000900327
  Basis Set: (AUG-CC-PVTZ AUX)
    Blend: AUG-CC-PVTZ-RI
    Molecular point group: c1

    Geometry (in Angstrom), charge = 0, multiplicity = 1:

       Center              X                  Y                   Z               Mass
    ------------   -----------------  -----------------  -----------------  -----------------
         O           -1.476964912453     2.558296881040     0.080545167904    15.994914619570
         N            1.911968087547    -0.589232118960    -0.055485832096    14.003074004430
         N           -1.917469912453     0.299995881040     0.048652167904    14.003074004430
         N           -0.349907912453    -1.473339118960    -0.038604832096    14.003074004430
         N            1.509453087547     1.634795881040    -0.010413832096    14.003074004430
         N           -2.636619912453    -1.923034118960     0.111224167904    14.003074004430
         C            0.622221087547    -0.429388118960    -0.031356332096    12.000000000000
         C            0.326566087547     0.933568881040    -0.009254832096    12.000000000000
         C           -1.002154212453     1.487942481040     0.035217967904    12.000000000000
         C            2.431871087547     0.683386881040    -0.069775832096    12.000000000000
         C           -1.580248912453    -1.032149118960     0.018949167904    12.000000000000
         C            2.628178087547    -1.851425118960    -0.065374832096    12.000000000000
         H            3.502070087547     0.852976881040    -0.086461832096     1.007825032230
         H            2.365743087547    -2.436530118960     0.817893167904     1.007825032230
         H            2.372281087547    -2.420182118960    -0.960361832096     1.007825032230
         H            3.696948087547    -1.636690118960    -0.059088832096     1.007825032230
         H           -2.895172912453     0.563042881040     0.169461167904     1.007825032230
         H           -2.332994912453    -2.873797118960    -0.064094832096     1.007825032230
         H           -3.466884912453    -1.678742118960    -0.417205832096     1.007825032230

  Basis Set: AUG-CC-PVTZ
    Blend: AUG-CC-PVTZ
  Basis Set: (AUG-CC-PVTZ AUX)
    Blend: AUG-CC-PVTZ-JKFIT
	 Reference Energy          =    -578.6202118000900327 [Eh]
	 Singles Energy            =      -0.0000000000000000 [Eh]
	 Same-Spin Energy          =      -0.6147148153968669 [Eh]
	 Opposite-Spin Energy      =      -1.8179148253505306 [Eh]
	 Correlation Energy        =      -2.4326296407473977 [Eh]
	 Total Energy              =    -581.0528414408374829 [Eh]

	 ================> DF-SCS-MP2 Energies <==================
	-----------------------------------------------------------
	 SCS Same-Spin Scale       =       0.3333333333333333 [-]
	 SCS Opposite-Spin Scale   =       1.2000000000000000 [-]
	 SCS Same-Spin Energy      =      -0.2049049384656223 [Eh]
	 SCS Opposite-Spin Energy  =      -2.1814977904206367 [Eh]
	 SCS Correlation Energy    =      -2.3864027288862593 [Eh]
	 SCS Total Energy          =    -581.0066145289763426 [Eh]
	-----------------------------------------------------------

  Dipole Moment: [D]
     X:     0.3577      Y:    -6.0522      Z:    -0.9281     Total:     6.1334

*** Psi4 exiting successfully. Buy a developer a beer!
