                               Psi4 1.3.2 release

  ==> Input File <==

--------------------------------------------------------------------------
#psi4
#
memory 32 gb

molecule  {
0 1
  P       -0.0032580    -0.8671950     0.1253540
  O       -1.1867680     0.1204360     0.5615740
  O        1.1133490     0.0895100    -0.5478160
  O       -0.6066630    -1.5809190    -1.1923580
  O        0.4670770    -1.7625730     1.2055430
  C       -1.7907810     0.9929110    -0.4324270
  C        1.9592910     0.8227470     0.3828140
  C       -2.8068250     1.8392790     0.2947570
  C        2.8879720     1.6796440    -0.4470910
  H       -1.0045510     1.5998440    -0.8949530
  H       -2.2583930     0.3707270    -1.2026260
  H        1.3234980     1.4321860     1.0341110
  H        2.5053500     0.1039360     0.9973890
  H       -3.3001310     2.5165380    -0.4095030
  H       -3.5654280     1.2070220     0.7630240
  H       -2.3198080     2.4333430     1.0748900
  H        3.5555180     2.2520740     0.2062470
  H        3.4947160     1.0534000    -1.1072300
  H        2.3164280     2.3771700    -1.0625470
  H       -0.2768465    -2.3885538    -1.2659573
units angstrom
no_reorient  #important for SAPT in psi4, default
symmetry c1  #important for SAPT in psi4, default
}

set PROPERTIES_ORIGIN ["COM"]
properties('MP2/aug-cc-pvtz', properties = ['dipole'])
--------------------------------------------------------------------------

    Molecular point group: c1
  Charge       = 0
  Multiplicity = 1
  Basis Set: AUG-CC-PVTZ
    Blend: AUG-CC-PVTZ
  Basis Set: (AUG-CC-PVTZ AUX)
    Blend: AUG-CC-PVTZ-JKFIT

    Orbital Energies [Eh]
    ---------------------

    Doubly Occupied:

       1A    -80.106018     2A    -20.597268     3A    -20.592079
       4A    -20.591540     5A    -20.512643     6A    -11.302073
       7A    -11.300001     8A    -11.230991     9A    -11.230527
      10A     -7.621633    11A     -5.520210    12A     -5.519644
      13A     -5.518609    14A     -1.458021    15A     -1.397271
      16A     -1.378154    17A     -1.293376    18A     -1.042739
      19A     -1.034413    20A     -0.878198    21A     -0.864978
      22A     -0.826700    23A     -0.741662    24A     -0.717255
      25A     -0.685210    26A     -0.659932    27A     -0.655091
      28A     -0.621190    29A     -0.607543    30A     -0.579496
      31A     -0.566921    32A     -0.563217    33A     -0.545984
      34A     -0.540572    35A     -0.536160    36A     -0.520579
      37A     -0.504906    38A     -0.481846    39A     -0.480317
      40A     -0.466976    41A     -0.461627

  @DF-RHF Final Energy:  -798.38356072960028

   => Energetics <=

    Nuclear Repulsion Energy =            628.8748507047889689
    One-Electron Energy =               -2349.0096797718892958
    Two-Electron Energy =                 921.7512683375000506
    Total Energy =                       -798.3835607296002763
  Basis Set: (AUG-CC-PVTZ AUX)
    Blend: AUG-CC-PVTZ-RI
    Molecular point group: c1

    Geometry (in Angstrom), charge = 0, multiplicity = 1:

       Center              X                  Y                   Z               Mass
    ------------   -----------------  -----------------  -----------------  -----------------
         P           -0.003011360127    -0.867798483210     0.125298779774    30.973761998420
         O           -1.186521360127     0.119832516790     0.561518779774    15.994914619570
         O            1.113595639873     0.088906516790    -0.547871220226    15.994914619570
         O           -0.606416360127    -1.581522483210    -1.192413220226    15.994914619570
         O            0.467323639873    -1.763176483210     1.205487779774    15.994914619570
         C           -1.790534360127     0.992307516790    -0.432482220226    12.000000000000
         C            1.959537639873     0.822143516790     0.382758779774    12.000000000000
         C           -2.806578360127     1.838675516790     0.294701779774    12.000000000000
         C            2.888218639873     1.679040516790    -0.447146220226    12.000000000000
         H           -1.004304360127     1.599240516790    -0.895008220226     1.007825032230
         H           -2.258146360127     0.370123516790    -1.202681220226     1.007825032230
         H            1.323744639873     1.431582516790     1.034055779774     1.007825032230
         H            2.505596639873     0.103332516790     0.997333779774     1.007825032230
         H           -3.299884360127     2.515934516790    -0.409558220226     1.007825032230
         H           -3.565181360127     1.206418516790     0.762968779774     1.007825032230
         H           -2.319561360127     2.432739516790     1.074834779774     1.007825032230
         H            3.555764639873     2.251470516790     0.206191779774     1.007825032230
         H            3.494962639873     1.052796516790    -1.107285220226     1.007825032230
         H            2.316674639873     2.376566516790    -1.062602220226     1.007825032230
         H           -0.276599860127    -2.389157283210    -1.266012520226     1.007825032230

  Basis Set: AUG-CC-PVTZ
    Blend: AUG-CC-PVTZ
  Basis Set: (AUG-CC-PVTZ AUX)
    Blend: AUG-CC-PVTZ-JKFIT
	 Reference Energy          =    -798.3835607296002763 [Eh]
	 Singles Energy            =      -0.0000000000000000 [Eh]
	 Same-Spin Energy          =      -0.4885899807297986 [Eh]
	 Opposite-Spin Energy      =      -1.5354616875521629 [Eh]
	 Correlation Energy        =      -2.0240516682819614 [Eh]
	 Total Energy              =    -800.4076123978821897 [Eh]

	 ================> DF-SCS-MP2 Energies <==================
	-----------------------------------------------------------
	 SCS Same-Spin Scale       =       0.3333333333333333 [-]
	 SCS Opposite-Spin Scale   =       1.2000000000000000 [-]
	 SCS Same-Spin Energy      =      -0.1628633269099329 [Eh]
	 SCS Opposite-Spin Energy  =      -1.8425540250625954 [Eh]
	 SCS Correlation Energy    =      -2.0054173519725280 [Eh]
	 SCS Total Energy          =    -800.3889780815727590 [Eh]
	-----------------------------------------------------------

  Dipole Moment: [D]
     X:    -0.0821      Y:     2.8059      Z:    -2.1526     Total:     3.5374

*** Psi4 exiting successfully. Buy a developer a beer!
