                               Psi4 1.3.2 release

  ==> Input File <==

--------------------------------------------------------------------------
#psi4
#
memory 32 gb

molecule  {
0 1
  P       -0.0032580    -0.8671950     0.1253540
  O       -1.1867680     0.1204360     0.5615740
  O        1.1499445     0.1239667    -0.6051085
  O       -0.6066630    -1.5809190    -1.1923580
  O        0.4670770    -1.7625730     1.2055430
  C       -1.7907810     0.9929110    -0.4324270
  C        1.9592910     0.8227470     0.3828140
  C       -2.8068250     1.8392790     0.2947570
  C        2.8534481     1.6504770    -0.5120655
  H       -1.0045510     1.5998440    -0.8949530
  H       -2.2583930     0.3707270    -1.2026260
  H        1.3234980     1.4321860     1.0341110
  H        2.5053500     0.1039360     0.9973890
  H       -3.3001310     2.5165380    -0.4095030
  H       -3.5654280     1.2070220     0.7630240
  H       -2.3198080     2.4333430     1.0748900
  H        3.5555180     2.2520740     0.2062470
  H        3.4947160     1.0534000    -1.1072300
  H        2.3164280     2.3771700    -1.0625470
  H       -0.2391740    -2.4808040    -1.2743640
units angstrom
no_reorient  #important for SAPT in psi4, default
symmetry c1  #important for SAPT in psi4, default
}

set PROPERTIES_ORIGIN ["COM"]
properties('MP2/aug-cc-pvtz', properties = ['dipole'])
--------------------------------------------------------------------------

    Molecular point group: c1
  Charge       = 0
  Multiplicity = 1
  Basis Set: AUG-CC-PVTZ
    Blend: AUG-CC-PVTZ
  Basis Set: (AUG-CC-PVTZ AUX)
    Blend: AUG-CC-PVTZ-JKFIT

    Orbital Energies [Eh]
    ---------------------

    Doubly Occupied:

       1A    -80.110979     2A    -20.607331     3A    -20.596338
       4A    -20.589103     5A    -20.518261     6A    -11.303133
       7A    -11.294654     8A    -11.231354     9A    -11.226861
      10A     -7.625744    11A     -5.524316    12A     -5.523637
      13A     -5.522631    14A     -1.443331    15A     -1.382162
      16A     -1.367544    17A     -1.297086    18A     -1.041480
      19A     -1.027404    20A     -0.870152    21A     -0.861038
      22A     -0.817612    23A     -0.726875    24A     -0.713003
      25A     -0.681687    26A     -0.657735    27A     -0.654862
      28A     -0.612994    29A     -0.607582    30A     -0.572748
      31A     -0.567130    32A     -0.565999    33A     -0.546551
      34A     -0.541218    35A     -0.525125    36A     -0.515414
      37A     -0.498513    38A     -0.482155    39A     -0.478252
      40A     -0.470296    41A     -0.463197

  @DF-RHF Final Energy:  -798.37182796041475

   => Energetics <=

    Nuclear Repulsion Energy =            626.2748564045704143
    One-Electron Energy =               -2343.9663986210589428
    Two-Electron Energy =                 919.3197142560736665
    Total Energy =                       -798.3718279604147483
  Basis Set: (AUG-CC-PVTZ AUX)
    Blend: AUG-CC-PVTZ-RI
    Molecular point group: c1

    Geometry (in Angstrom), charge = 0, multiplicity = 1:

       Center              X                  Y                   Z               Mass
    ------------   -----------------  -----------------  -----------------  -----------------
         P           -0.004368300342    -0.868500614266     0.136364481589    30.973761998420
         O           -1.187878300342     0.119130385734     0.572584481589    15.994914619570
         O            1.148834199658     0.122661085734    -0.594098018411    15.994914619570
         O           -0.607773300342    -1.582224614266    -1.181347518411    15.994914619570
         O            0.465966699658    -1.763878614266     1.216553481589    15.994914619570
         C           -1.791891300342     0.991605385734    -0.421416518411    12.000000000000
         C            1.958180699658     0.821441385734     0.393824481589    12.000000000000
         C           -2.807935300342     1.837973385734     0.305767481589    12.000000000000
         C            2.852337799658     1.649171385734    -0.501055018411    12.000000000000
         H           -1.005661300342     1.598538385734    -0.883942518411     1.007825032230
         H           -2.259503300342     0.369421385734    -1.191615518411     1.007825032230
         H            1.322387699658     1.430880385734     1.045121481589     1.007825032230
         H            2.504239699658     0.102630385734     1.008399481589     1.007825032230
         H           -3.301241300342     2.515232385734    -0.398492518411     1.007825032230
         H           -3.566538300342     1.205716385734     0.774034481589     1.007825032230
         H           -2.320918300342     2.432037385734     1.085900481589     1.007825032230
         H            3.554407699658     2.250768385734     0.217257481589     1.007825032230
         H            3.493605699658     1.052094385734    -1.096219518411     1.007825032230
         H            2.315317699658     2.375864385734    -1.051536518411     1.007825032230
         H           -0.240284300342    -2.482109614266    -1.263353518411     1.007825032230

  Basis Set: AUG-CC-PVTZ
    Blend: AUG-CC-PVTZ
  Basis Set: (AUG-CC-PVTZ AUX)
    Blend: AUG-CC-PVTZ-JKFIT
	 Reference Energy          =    -798.3718279604147483 [Eh]
	 Singles Energy            =      -0.0000000000000000 [Eh]
	 Same-Spin Energy          =      -0.4911888325741359 [Eh]
	 Opposite-Spin Energy      =      -1.5417297132095586 [Eh]
	 Correlation Energy        =      -2.0329185457836947 [Eh]
	 Total Energy              =    -800.4047465061984212 [Eh]

	 ================> DF-SCS-MP2 Energies <==================
	-----------------------------------------------------------
	 SCS Same-Spin Scale       =       0.3333333333333333 [-]
	 SCS Opposite-Spin Scale   =       1.2000000000000000 [-]
	 SCS Same-Spin Energy      =      -0.1637296108580453 [Eh]
	 SCS Opposite-Spin Energy  =      -1.8500756558514704 [Eh]
	 SCS Correlation Energy    =      -2.0138052667095159 [Eh]
	 SCS Total Energy          =    -800.3856332271242309 [Eh]
	-----------------------------------------------------------

  Dipole Moment: [D]
     X:    -0.4101      Y:     2.3874      Z:    -2.0864     Total:     3.1971

*** Psi4 exiting successfully. Buy a developer a beer!
