                               Psi4 1.3.2 release

  ==> Input File <==

--------------------------------------------------------------------------
#psi4
#
memory 32 gb

molecule  {
0 1
  P       -0.0032580    -0.8671950     0.1253540
  O       -1.1867680     0.1204360     0.5615740
  O        1.1133490     0.0895100    -0.5478160
  O       -0.6158089    -1.5299115    -1.2145910
  O        0.4801537    -1.7209182     1.2331423
  C       -1.7907810     0.9929110    -0.4324270
  C        1.9592910     0.8227470     0.3828140
  C       -2.8068250     1.8392790     0.2947570
  C        2.8879720     1.6796440    -0.4470910
  H       -1.0045510     1.5998440    -0.8949530
  H       -2.2583930     0.3707270    -1.2026260
  H        1.3234980     1.4321860     1.0341110
  H        2.5053500     0.1039360     0.9973890
  H       -3.3001310     2.5165380    -0.4095030
  H       -3.5654280     1.2070220     0.7630240
  H       -2.3198080     2.4333430     1.0748900
  H        3.5555180     2.2520740     0.2062470
  H        3.4947160     1.0534000    -1.1072300
  H        2.3164280     2.3771700    -1.0625470
  H       -0.2391740    -2.4808040    -1.2743640
units angstrom
no_reorient  #important for SAPT in psi4, default
symmetry c1  #important for SAPT in psi4, default
}

set PROPERTIES_ORIGIN ["COM"]
properties('MP2/aug-cc-pvtz', properties = ['dipole'])
--------------------------------------------------------------------------

    Molecular point group: c1
  Charge       = 0
  Multiplicity = 1
  Basis Set: AUG-CC-PVTZ
    Blend: AUG-CC-PVTZ
  Basis Set: (AUG-CC-PVTZ AUX)
    Blend: AUG-CC-PVTZ-JKFIT

    Orbital Energies [Eh]
    ---------------------

    Doubly Occupied:

       1A    -80.103514     2A    -20.613065     3A    -20.587740
       4A    -20.587543     5A    -20.514167     6A    -11.299311
       7A    -11.297003     8A    -11.229032     9A    -11.228633
      10A     -7.619302    11A     -5.517893    12A     -5.517296
      13A     -5.516258    14A     -1.445264    15A     -1.374615
      16A     -1.373406    17A     -1.293486    18A     -1.039809
      19A     -1.031992    20A     -0.870344    21A     -0.862172
      22A     -0.806460    23A     -0.724845    24A     -0.711996
      25A     -0.680561    26A     -0.657582    27A     -0.651727
      28A     -0.617334    29A     -0.603397    30A     -0.576301
      31A     -0.566204    32A     -0.561124    33A     -0.543614
      34A     -0.537793    35A     -0.533173    36A     -0.517784
      37A     -0.502211    38A     -0.479484    39A     -0.477492
      40A     -0.467787    41A     -0.461354

  @DF-RHF Final Energy:  -798.38212349227592

   => Energetics <=

    Nuclear Repulsion Energy =            628.5301246948075686
    One-Electron Energy =               -2348.6243602219815330
    Two-Electron Energy =                 921.7121120348981549
    Total Energy =                       -798.3821234922759231
  Basis Set: (AUG-CC-PVTZ AUX)
    Blend: AUG-CC-PVTZ-RI
    Molecular point group: c1

    Geometry (in Angstrom), charge = 0, multiplicity = 1:

       Center              X                  Y                   Z               Mass
    ------------   -----------------  -----------------  -----------------  -----------------
         P           -0.003665998072    -0.876816647731     0.124796564240    30.973761998420
         O           -1.187175998072     0.110814352269     0.561016564240    15.994914619570
         O            1.112941001928     0.079888352269    -0.548373435760    15.994914619570
         O           -0.616216898072    -1.539533147731    -1.215148435760    15.994914619570
         O            0.479745701928    -1.730539847731     1.232584864240    15.994914619570
         C           -1.791188998072     0.983289352269    -0.432984435760    12.000000000000
         C            1.958883001928     0.813125352269     0.382256564240    12.000000000000
         C           -2.807232998072     1.829657352269     0.294199564240    12.000000000000
         C            2.887564001928     1.670022352269    -0.447648435760    12.000000000000
         H           -1.004958998072     1.590222352269    -0.895510435760     1.007825032230
         H           -2.258800998072     0.361105352269    -1.203183435760     1.007825032230
         H            1.323090001928     1.422564352269     1.033553564240     1.007825032230
         H            2.504942001928     0.094314352269     0.996831564240     1.007825032230
         H           -3.300538998072     2.506916352269    -0.410060435760     1.007825032230
         H           -3.565835998072     1.197400352269     0.762466564240     1.007825032230
         H           -2.320215998072     2.423721352269     1.074332564240     1.007825032230
         H            3.555110001928     2.242452352269     0.205689564240     1.007825032230
         H            3.494308001928     1.043778352269    -1.107787435760     1.007825032230
         H            2.316020001928     2.367548352269    -1.063104435760     1.007825032230
         H           -0.239581998072    -2.490425647731    -1.274921435760     1.007825032230

  Basis Set: AUG-CC-PVTZ
    Blend: AUG-CC-PVTZ
  Basis Set: (AUG-CC-PVTZ AUX)
    Blend: AUG-CC-PVTZ-JKFIT
	 Reference Energy          =    -798.3821234922759231 [Eh]
	 Singles Energy            =      -0.0000000000000000 [Eh]
	 Same-Spin Energy          =      -0.4906337554138568 [Eh]
	 Opposite-Spin Energy      =      -1.5400131510041293 [Eh]
	 Correlation Energy        =      -2.0306469064179860 [Eh]
	 Total Energy              =    -800.4127703986939650 [Eh]

	 ================> DF-SCS-MP2 Energies <==================
	-----------------------------------------------------------
	 SCS Same-Spin Scale       =       0.3333333333333333 [-]
	 SCS Opposite-Spin Scale   =       1.2000000000000000 [-]
	 SCS Same-Spin Energy      =      -0.1635445851379523 [Eh]
	 SCS Opposite-Spin Energy  =      -1.8480157812049551 [Eh]
	 SCS Correlation Energy    =      -2.0115603663429074 [Eh]
	 SCS Total Energy          =    -800.3936838586188287 [Eh]
	-----------------------------------------------------------

  Dipole Moment: [D]
     X:    -0.0919      Y:     2.3425      Z:    -2.2495     Total:     3.2490

*** Psi4 exiting successfully. Buy a developer a beer!
