                               Psi4 1.3.2 release

  ==> Input File <==

--------------------------------------------------------------------------
#psi4
#
memory 32 gb

molecule  {
0 1
  P       -0.0032580    -0.8671950     0.1253540
  O       -1.1867680     0.1204360     0.5615740
  O        1.0529989     0.1206046    -0.5984047
  O       -0.6066630    -1.5809190    -1.1923580
  O        0.3946667    -1.7893184     1.2121242
  C       -1.7907810     0.9929110    -0.4324270
  C        1.9592910     0.8227470     0.3828140
  C       -2.8068250     1.8392790     0.2947570
  C        2.8879720     1.6796440    -0.4470910
  H       -1.0045510     1.5998440    -0.8949530
  H       -2.2583930     0.3707270    -1.2026260
  H        1.3234980     1.4321860     1.0341110
  H        2.5053500     0.1039360     0.9973890
  H       -3.3001310     2.5165380    -0.4095030
  H       -3.5654280     1.2070220     0.7630240
  H       -2.3198080     2.4333430     1.0748900
  H        3.5555180     2.2520740     0.2062470
  H        3.4947160     1.0534000    -1.1072300
  H        2.3164280     2.3771700    -1.0625470
  H       -0.2391740    -2.4808040    -1.2743640
units angstrom
no_reorient  #important for SAPT in psi4, default
symmetry c1  #important for SAPT in psi4, default
}

set PROPERTIES_ORIGIN ["COM"]
properties('MP2/aug-cc-pvtz', properties = ['dipole'])
--------------------------------------------------------------------------

    Molecular point group: c1
  Charge       = 0
  Multiplicity = 1
  Basis Set: AUG-CC-PVTZ
    Blend: AUG-CC-PVTZ
  Basis Set: (AUG-CC-PVTZ AUX)
    Blend: AUG-CC-PVTZ-JKFIT

    Orbital Energies [Eh]
    ---------------------

    Doubly Occupied:

       1A    -80.101384     2A    -20.597657     3A    -20.595135
       4A    -20.584947     5A    -20.513670     6A    -11.308574
       7A    -11.297159     8A    -11.235097     9A    -11.227318
      10A     -7.617207    11A     -5.515760    12A     -5.515300
      13A     -5.514096    14A     -1.442622    15A     -1.373639
      16A     -1.366882    17A     -1.292484    18A     -1.043243
      19A     -1.033506    20A     -0.870463    21A     -0.862188
      22A     -0.811731    23A     -0.723913    24A     -0.711787
      25A     -0.679262    26A     -0.653740    27A     -0.649658
      28A     -0.615331    29A     -0.602297    30A     -0.576646
      31A     -0.563719    32A     -0.561188    33A     -0.544011
      34A     -0.536089    35A     -0.530689    36A     -0.524929
      37A     -0.503753    38A     -0.485328    39A     -0.477092
      40A     -0.466308    41A     -0.463576

  @DF-RHF Final Energy:  -798.38226109761388

   => Energetics <=

    Nuclear Repulsion Energy =            627.5706079609248036
    One-Electron Energy =               -2346.7269836694940750
    Two-Electron Energy =                 920.7741146109552801
    Total Energy =                       -798.3822610976138776
  Basis Set: (AUG-CC-PVTZ AUX)
    Blend: AUG-CC-PVTZ-RI
    Molecular point group: c1

    Geometry (in Angstrom), charge = 0, multiplicity = 1:

       Center              X                  Y                   Z               Mass
    ------------   -----------------  -----------------  -----------------  -----------------
         P            0.010527531071    -0.867646528817     0.129923364424    30.973761998420
         O           -1.172982468929     0.119984471183     0.566143364424    15.994914619570
         O            1.066784431071     0.120153071183    -0.593835335576    15.994914619570
         O           -0.592877468929    -1.581370528817    -1.187788635576    15.994914619570
         O            0.408452231071    -1.789769928817     1.216693564424    15.994914619570
         C           -1.776995468929     0.992459471183    -0.427857635576    12.000000000000
         C            1.973076531071     0.822295471183     0.387383364424    12.000000000000
         C           -2.793039468929     1.838827471183     0.299326364424    12.000000000000
         C            2.901757531071     1.679192471183    -0.442521635576    12.000000000000
         H           -0.990765468929     1.599392471183    -0.890383635576     1.007825032230
         H           -2.244607468929     0.370275471183    -1.198056635576     1.007825032230
         H            1.337283531071     1.431734471183     1.038680364424     1.007825032230
         H            2.519135531071     0.103484471183     1.001958364424     1.007825032230
         H           -3.286345468929     2.516086471183    -0.404933635576     1.007825032230
         H           -3.551642468929     1.206570471183     0.767593364424     1.007825032230
         H           -2.306022468929     2.432891471183     1.079459364424     1.007825032230
         H            3.569303531071     2.251622471183     0.210816364424     1.007825032230
         H            3.508501531071     1.052948471183    -1.102660635576     1.007825032230
         H            2.330213531071     2.376718471183    -1.057977635576     1.007825032230
         H           -0.225388468929    -2.481255528817    -1.269794635576     1.007825032230

  Basis Set: AUG-CC-PVTZ
    Blend: AUG-CC-PVTZ
  Basis Set: (AUG-CC-PVTZ AUX)
    Blend: AUG-CC-PVTZ-JKFIT
	 Reference Energy          =    -798.3822610976138776 [Eh]
	 Singles Energy            =      -0.0000000000000000 [Eh]
	 Same-Spin Energy          =      -0.4902857719070524 [Eh]
	 Opposite-Spin Energy      =      -1.5398000392426379 [Eh]
	 Correlation Energy        =      -2.0300858111496902 [Eh]
	 Total Energy              =    -800.4123469087635385 [Eh]

	 ================> DF-SCS-MP2 Energies <==================
	-----------------------------------------------------------
	 SCS Same-Spin Scale       =       0.3333333333333333 [-]
	 SCS Opposite-Spin Scale   =       1.2000000000000000 [-]
	 SCS Same-Spin Energy      =      -0.1634285906356841 [Eh]
	 SCS Opposite-Spin Energy  =      -1.8477600470911653 [Eh]
	 SCS Correlation Energy    =      -2.0111886377268493 [Eh]
	 SCS Total Energy          =    -800.3934497353407096 [Eh]
	-----------------------------------------------------------

  Dipole Moment: [D]
     X:     0.4805      Y:     2.7520      Z:    -2.0607     Total:     3.4715

*** Psi4 exiting successfully. Buy a developer a beer!
