                               Psi4 1.4a3.dev225

  ==> Input File <==

--------------------------------------------------------------------------
#psi4
#
memory 32 gb

molecule  {
0 1
  P       -0.0193980    -0.9573280    -0.1096150
  O        1.2162340    -0.0269160    -0.5415020
  O       -1.1156210     0.0613730     0.5053800
  O        0.5163150    -1.6599550     1.2462920
  O       -0.4960840    -1.8598830    -1.1802340
  C        1.8380650     0.8393470     0.4463000
  C       -1.8865601     0.7697906    -0.4319770
  C        2.8342980     1.7043970    -0.2898420
  C       -2.8451070     1.6924310     0.3153960
  H        1.0624120     1.4376840     0.9337170
  H        2.3223620     0.2121780     1.1993520
  H       -1.2444800     1.3745780    -1.1102950
  H       -2.4582310     0.0769500    -1.0841060
  H        3.3419030     2.3695990     0.4147870
  H        3.5818500     1.0824000    -0.7858930
  H        2.3288000     2.3113610    -1.0437700
  H       -3.4753290     2.2644580    -0.3716610
  H       -3.4879190     1.0956960     0.9656320
  H       -2.2756200     2.3909680     0.9321420
  H        0.1488640    -2.5599310     1.3156750
units angstrom
no_reorient  #important for SAPT in psi4, default
symmetry c1  #important for SAPT in psi4, default
}

set PROPERTIES_ORIGIN ["COM"]
properties('MP2/aug-cc-pvtz', properties = ['dipole'])
--------------------------------------------------------------------------

    Molecular point group: c1
  Charge       = 0
  Multiplicity = 1
  Basis Set: AUG-CC-PVTZ
    Blend: AUG-CC-PVTZ
  Basis Set: (AUG-CC-PVTZ AUX)
    Blend: AUG-CC-PVTZ-JKFIT

    Orbital Energies [Eh]
    ---------------------

    Doubly Occupied:

       1A    -80.108554     2A    -20.607479     3A    -20.595980
       4A    -20.593191     5A    -20.513863     6A    -11.302076
       7A    -11.297780     8A    -11.230418     9A    -11.227935
      10A     -7.624019    11A     -5.522507    12A     -5.522066
      13A     -5.521014    14A     -1.453015    15A     -1.390921
      16A     -1.380483    17A     -1.294582    18A     -1.041063
      19A     -1.029271    20A     -0.876051    21A     -0.865008
      22A     -0.812743    23A     -0.736839    24A     -0.718638
      25A     -0.685182    26A     -0.659515    27A     -0.651895
      28A     -0.626402    29A     -0.607084    30A     -0.577197
      31A     -0.568054    32A     -0.564476    33A     -0.544775
      34A     -0.542841    35A     -0.537545    36A     -0.515051
      37A     -0.498975    38A     -0.480635    39A     -0.474078
      40A     -0.466894    41A     -0.461473

  @DF-RHF Final Energy:  -798.38732248194162

   => Energetics <=

    Nuclear Repulsion Energy =            628.6056623692380754
    One-Electron Energy =               -2348.5308316613104580
    Two-Electron Energy =                 921.5378468101308727
    Total Energy =                       -798.3873224819416237
  Basis Set: (AUG-CC-PVTZ AUX)
    Blend: AUG-CC-PVTZ-RI
    Molecular point group: c1

    Geometry (in Angstrom), charge = 0, multiplicity = 1:

       Center              X                  Y                   Z               Mass
    ------------   -----------------  -----------------  -----------------  -----------------
         P           -0.022408963574    -0.871774910254    -0.102723420382    30.973761998420
         O            1.213223036426     0.058637089746    -0.534610420382    15.994914619570
         O           -1.118631963574     0.146926089746     0.512271579618    15.994914619570
         O            0.513304036426    -1.574401910254     1.253183579618    15.994914619570
         O           -0.499094963574    -1.774329910254    -1.173342420382    15.994914619570
         C            1.835054036426     0.924900089746     0.453191579618    12.000000000000
         C           -1.889571063574     0.855343689746    -0.425085420382    12.000000000000
         C            2.831287036426     1.789950089746    -0.282950420382    12.000000000000
         C           -2.848117963574     1.777984089746     0.322287579618    12.000000000000
         H            1.059401036426     1.523237089746     0.940608579618     1.007825032230
         H            2.319351036426     0.297731089746     1.206243579618     1.007825032230
         H           -1.247490963574     1.460131089746    -1.103403420382     1.007825032230
         H           -2.461241963574     0.162503089746    -1.077214420382     1.007825032230
         H            3.338892036426     2.455152089746     0.421678579618     1.007825032230
         H            3.578839036426     1.167953089746    -0.779001420382     1.007825032230
         H            2.325789036426     2.396914089746    -1.036878420382     1.007825032230
         H           -3.478339963574     2.350011089746    -0.364769420382     1.007825032230
         H           -3.490929963574     1.181249089746     0.972523579618     1.007825032230
         H           -2.278630963574     2.476521089746     0.939033579618     1.007825032230
         H            0.145853036426    -2.474377910254     1.322566579618     1.007825032230

  Basis Set: AUG-CC-PVTZ
    Blend: AUG-CC-PVTZ
  Basis Set: (AUG-CC-PVTZ AUX)
    Blend: AUG-CC-PVTZ-JKFIT
	 Reference Energy          =    -798.3873224819416237 [Eh]
	 Singles Energy            =      -0.0000000000000000 [Eh]
	 Same-Spin Energy          =      -0.4896730832638621 [Eh]
	 Opposite-Spin Energy      =      -1.5375832188408185 [Eh]
	 Correlation Energy        =      -2.0272563021046803 [Eh]
	 Total Energy              =    -800.4145787840462845 [Eh]

	 ================> DF-SCS-MP2 Energies <==================
	-----------------------------------------------------------
	 SCS Same-Spin Scale       =       0.3333333333333333 [-]
	 SCS Opposite-Spin Scale   =       1.2000000000000000 [-]
	 SCS Same-Spin Energy      =      -0.1632243610879540 [Eh]
	 SCS Opposite-Spin Energy  =      -1.8450998626089821 [Eh]
	 SCS Correlation Energy    =      -2.0083242236969361 [Eh]
	 SCS Total Energy          =    -800.3956467056385691 [Eh]
	-----------------------------------------------------------

  Dipole Moment: [D]
     X:     0.3261      Y:     2.5086      Z:     2.1827     Total:     3.3412

*** Psi4 exiting successfully. Buy a developer a beer!
