                               Psi4 1.4a3.dev225

  ==> Input File <==

--------------------------------------------------------------------------
#psi4
#
memory 32 gb

molecule  {
0 1
  P       -0.0193980    -0.9573280    -0.1096150
  O        1.2162340    -0.0269160    -0.5415020
  O       -1.1156210     0.0613730     0.5053800
  O        0.5163150    -1.6599550     1.2462920
  O       -0.4960840    -1.8598830    -1.1802340
  C        1.8380650     0.8393470     0.4463000
  C       -1.9139900     0.7949960    -0.4653280
  C        2.8342980     1.7043970    -0.2898420
  C       -2.8451070     1.6924310     0.3153960
  H        1.0624120     1.4376840     0.9337170
  H        2.3223620     0.2121780     1.1993520
  H       -1.2750370     1.3481254    -1.0808582
  H       -2.4582310     0.0769500    -1.0841060
  H        3.3419030     2.3695990     0.4147870
  H        3.5818500     1.0824000    -0.7858930
  H        2.3288000     2.3113610    -1.0437700
  H       -3.4753290     2.2644580    -0.3716610
  H       -3.4879190     1.0956960     0.9656320
  H       -2.2756200     2.3909680     0.9321420
  H        0.1488640    -2.5599310     1.3156750
units angstrom
no_reorient  #important for SAPT in psi4, default
symmetry c1  #important for SAPT in psi4, default
}

set PROPERTIES_ORIGIN ["COM"]
properties('MP2/aug-cc-pvtz', properties = ['dipole'])
--------------------------------------------------------------------------

    Molecular point group: c1
  Charge       = 0
  Multiplicity = 1
  Basis Set: AUG-CC-PVTZ
    Blend: AUG-CC-PVTZ
  Basis Set: (AUG-CC-PVTZ AUX)
    Blend: AUG-CC-PVTZ-JKFIT

    Orbital Energies [Eh]
    ---------------------

    Doubly Occupied:

       1A    -80.104889     2A    -20.604816     3A    -20.591126
       4A    -20.589709     5A    -20.511487     6A    -11.300774
       7A    -11.292852     8A    -11.229718     9A    -11.229346
      10A     -7.620341    11A     -5.518862    12A     -5.518349
      13A     -5.517368    14A     -1.445861    15A     -1.378951
      16A     -1.376435    17A     -1.291909    18A     -1.042513
      19A     -1.034757    20A     -0.874987    21A     -0.865394
      22A     -0.814879    23A     -0.730094    24A     -0.715039
      25A     -0.684824    26A     -0.659090    27A     -0.652722
      28A     -0.617988    29A     -0.605680    30A     -0.576352
      31A     -0.565813    32A     -0.563581    33A     -0.544826
      34A     -0.539703    35A     -0.534958    36A     -0.519608
      37A     -0.503304    38A     -0.482982    39A     -0.479337
      40A     -0.465808    41A     -0.460800

  @DF-RHF Final Energy:  -798.38793654231745

   => Energetics <=

    Nuclear Repulsion Energy =            627.8419076739612592
    One-Electron Energy =               -2347.1440221794719037
    Two-Electron Energy =                 920.9141779631931968
    Total Energy =                       -798.3879365423174477
  Basis Set: (AUG-CC-PVTZ AUX)
    Blend: AUG-CC-PVTZ-RI
    Molecular point group: c1

    Geometry (in Angstrom), charge = 0, multiplicity = 1:

       Center              X                  Y                   Z               Mass
    ------------   -----------------  -----------------  -----------------  -----------------
         P           -0.020072193335    -0.873565393962    -0.100317901887    30.973761998420
         O            1.215559806665     0.056846606038    -0.532204901887    15.994914619570
         O           -1.116295193335     0.145135606038     0.514677098113    15.994914619570
         O            0.515640806665    -1.576192393962     1.255589098113    15.994914619570
         O           -0.496758193335    -1.776120393962    -1.170936901887    15.994914619570
         C            1.837390806665     0.923109606038     0.455597098113    12.000000000000
         C           -1.914664193335     0.878758606038    -0.456030901887    12.000000000000
         C            2.833623806665     1.788159606038    -0.280544901887    12.000000000000
         C           -2.845781193335     1.776193606038     0.324693098113    12.000000000000
         H            1.061737806665     1.521446606038     0.943014098113     1.007825032230
         H            2.321687806665     0.295940606038     1.208649098113     1.007825032230
         H           -1.275711193335     1.431888006038    -1.071561101887     1.007825032230
         H           -2.458905193335     0.160712606038    -1.074808901887     1.007825032230
         H            3.341228806665     2.453361606038     0.424084098113     1.007825032230
         H            3.581175806665     1.166162606038    -0.776595901887     1.007825032230
         H            2.328125806665     2.395123606038    -1.034472901887     1.007825032230
         H           -3.476003193335     2.348220606038    -0.362363901887     1.007825032230
         H           -3.488593193335     1.179458606038     0.974929098113     1.007825032230
         H           -2.276294193335     2.474730606038     0.941439098113     1.007825032230
         H            0.148189806665    -2.476168393962     1.324972098113     1.007825032230

  Basis Set: AUG-CC-PVTZ
    Blend: AUG-CC-PVTZ
  Basis Set: (AUG-CC-PVTZ AUX)
    Blend: AUG-CC-PVTZ-JKFIT
	 Reference Energy          =    -798.3879365423174477 [Eh]
	 Singles Energy            =      -0.0000000000000000 [Eh]
	 Same-Spin Energy          =      -0.4896108529387855 [Eh]
	 Opposite-Spin Energy      =      -1.5376123341261803 [Eh]
	 Correlation Energy        =      -2.0272231870649655 [Eh]
	 Total Energy              =    -800.4151597293823670 [Eh]

	 ================> DF-SCS-MP2 Energies <==================
	-----------------------------------------------------------
	 SCS Same-Spin Scale       =       0.3333333333333333 [-]
	 SCS Opposite-Spin Scale   =       1.2000000000000000 [-]
	 SCS Same-Spin Energy      =      -0.1632036176462618 [Eh]
	 SCS Opposite-Spin Energy  =      -1.8451348009514161 [Eh]
	 SCS Correlation Energy    =      -2.0083384185976780 [Eh]
	 SCS Total Energy          =    -800.3962749609150933 [Eh]
	-----------------------------------------------------------

  Dipole Moment: [D]
     X:     0.1491      Y:     2.6716      Z:     2.0809     Total:     3.3897

*** Psi4 exiting successfully. Buy a developer a beer!
