                               Psi4 1.3.2 release

  ==> Input File <==

--------------------------------------------------------------------------
#psi4
#
memory 32 gb

molecule  {
0 1
  P       -0.0032580    -0.8671950     0.1253540
  O       -1.1867680     0.1204360     0.5615740
  O        1.1133490     0.0895100    -0.5478160
  O       -0.5967820    -1.6310569    -1.1685195
  O        0.4534273    -1.8031369     1.1766277
  C       -1.7907810     0.9929110    -0.4324270
  C        1.9592910     0.8227470     0.3828140
  C       -2.8068250     1.8392790     0.2947570
  C        2.8879720     1.6796440    -0.4470910
  H       -1.0045510     1.5998440    -0.8949530
  H       -2.2583930     0.3707270    -1.2026260
  H        1.3234980     1.4321860     1.0341110
  H        2.5053500     0.1039360     0.9973890
  H       -3.3001310     2.5165380    -0.4095030
  H       -3.5654280     1.2070220     0.7630240
  H       -2.3198080     2.4333430     1.0748900
  H        3.5555180     2.2520740     0.2062470
  H        3.4947160     1.0534000    -1.1072300
  H        2.3164280     2.3771700    -1.0625470
  H       -0.2391740    -2.4808040    -1.2743640
units angstrom
no_reorient  #important for SAPT in psi4, default
symmetry c1  #important for SAPT in psi4, default
}

set PROPERTIES_ORIGIN ["COM"]
properties('MP2/aug-cc-pvtz', properties = ['dipole'])
--------------------------------------------------------------------------

    Molecular point group: c1
  Charge       = 0
  Multiplicity = 1
  Basis Set: AUG-CC-PVTZ
    Blend: AUG-CC-PVTZ
  Basis Set: (AUG-CC-PVTZ AUX)
    Blend: AUG-CC-PVTZ-JKFIT

    Orbital Energies [Eh]
    ---------------------

    Doubly Occupied:

       1A    -80.104872     2A    -20.595529     3A    -20.594597
       4A    -20.593181     5A    -20.507548     6A    -11.303397
       7A    -11.301427     8A    -11.231878     9A    -11.231346
      10A     -7.620295    11A     -5.518810    12A     -5.518359
      13A     -5.517288    14A     -1.449112    15A     -1.385786
      16A     -1.379591    17A     -1.288794    18A     -1.043569
      19A     -1.035402    20A     -0.876176    21A     -0.865854
      22A     -0.820239    23A     -0.737878    24A     -0.717369
      25A     -0.683991    26A     -0.659688    27A     -0.649422
      28A     -0.620334    29A     -0.607458    30A     -0.576974
      31A     -0.565456    32A     -0.562863    33A     -0.545880
      34A     -0.540612    35A     -0.535149    36A     -0.521532
      37A     -0.505257    38A     -0.482602    39A     -0.481257
      40A     -0.461898    41A     -0.458634

  @DF-RHF Final Energy:  -798.38923178403036

   => Energetics <=

    Nuclear Repulsion Energy =            627.7780834487635957
    One-Electron Energy =               -2346.9400214621086889
    Two-Electron Energy =                 920.7727062293148492
    Total Energy =                       -798.3892317840303576
  Basis Set: (AUG-CC-PVTZ AUX)
    Blend: AUG-CC-PVTZ-RI
    Molecular point group: c1

    Geometry (in Angstrom), charge = 0, multiplicity = 1:

       Center              X                  Y                   Z               Mass
    ------------   -----------------  -----------------  -----------------  -----------------
         P           -0.002866509314    -0.857776770277     0.125880938686    30.973761998420
         O           -1.186376509314     0.129854229723     0.562100938686    15.994914619570
         O            1.113740490686     0.098928229723    -0.547289061314    15.994914619570
         O           -0.596390509314    -1.621638670277    -1.167992561314    15.994914619570
         O            0.453818790686    -1.793718670277     1.177154638686    15.994914619570
         C           -1.790389509314     1.002329229723    -0.431900061314    12.000000000000
         C            1.959682490686     0.832165229723     0.383340938686    12.000000000000
         C           -2.806433509314     1.848697229723     0.295283938686    12.000000000000
         C            2.888363490686     1.689062229723    -0.446564061314    12.000000000000
         H           -1.004159509314     1.609262229723    -0.894426061314     1.007825032230
         H           -2.258001509314     0.380145229723    -1.202099061314     1.007825032230
         H            1.323889490686     1.441604229723     1.034637938686     1.007825032230
         H            2.505741490686     0.113354229723     0.997915938686     1.007825032230
         H           -3.299739509314     2.525956229723    -0.408976061314     1.007825032230
         H           -3.565036509314     1.216440229723     0.763550938686     1.007825032230
         H           -2.319416509314     2.442761229723     1.075416938686     1.007825032230
         H            3.555909490686     2.261492229723     0.206773938686     1.007825032230
         H            3.495107490686     1.062818229723    -1.106703061314     1.007825032230
         H            2.316819490686     2.386588229723    -1.062020061314     1.007825032230
         H           -0.238782509314    -2.471385770277    -1.273837061314     1.007825032230

  Basis Set: AUG-CC-PVTZ
    Blend: AUG-CC-PVTZ
  Basis Set: (AUG-CC-PVTZ AUX)
    Blend: AUG-CC-PVTZ-JKFIT
	 Reference Energy          =    -798.3892317840303576 [Eh]
	 Singles Energy            =      -0.0000000000000000 [Eh]
	 Same-Spin Energy          =      -0.4888975897193932 [Eh]
	 Opposite-Spin Energy      =      -1.5362161899807483 [Eh]
	 Correlation Energy        =      -2.0251137797001415 [Eh]
	 Total Energy              =    -800.4143455637305351 [Eh]

	 ================> DF-SCS-MP2 Energies <==================
	-----------------------------------------------------------
	 SCS Same-Spin Scale       =       0.3333333333333333 [-]
	 SCS Opposite-Spin Scale   =       1.2000000000000000 [-]
	 SCS Same-Spin Energy      =      -0.1629658632397977 [Eh]
	 SCS Opposite-Spin Energy  =      -1.8434594279768979 [Eh]
	 SCS Correlation Energy    =      -2.0064252912166958 [Eh]
	 SCS Total Energy          =    -800.3956570752470725 [Eh]
	-----------------------------------------------------------

  Dipole Moment: [D]
     X:    -0.0341      Y:     2.9614      Z:    -2.1733     Total:     3.6734

*** Psi4 exiting successfully. Buy a developer a beer!
