                               Psi4 1.4a3.dev225

  ==> Input File <==

--------------------------------------------------------------------------
#psi4
#
memory 32 gb

molecule  {
0 1
  P       -0.0193980    -0.9573280    -0.1096150
  O        1.2316225    -0.0153287    -0.5468807
  O       -1.1156210     0.0613730     0.5053800
  O        0.5163150    -1.6599550     1.2462920
  O       -0.4960840    -1.8598830    -1.1802340
  C        1.8380650     0.8393470     0.4463000
  C       -1.9139900     0.7949960    -0.4653280
  C        2.8342980     1.7043970    -0.2898420
  C       -2.8451070     1.6924310     0.3153960
  H        1.0624120     1.4376840     0.9337170
  H        2.3223620     0.2121780     1.1993520
  H       -1.2444800     1.3745780    -1.1102950
  H       -2.4582310     0.0769500    -1.0841060
  H        3.3419030     2.3695990     0.4147870
  H        3.5818500     1.0824000    -0.7858930
  H        2.3288000     2.3113610    -1.0437700
  H       -3.4753290     2.2644580    -0.3716610
  H       -3.4879190     1.0956960     0.9656320
  H       -2.2756200     2.3909680     0.9321420
  H        0.1488640    -2.5599310     1.3156750
units angstrom
no_reorient  #important for SAPT in psi4, default
symmetry c1  #important for SAPT in psi4, default
}

set PROPERTIES_ORIGIN ["COM"]
properties('MP2/aug-cc-pvtz', properties = ['dipole'])
--------------------------------------------------------------------------

    Molecular point group: c1
  Charge       = 0
  Multiplicity = 1
  Basis Set: AUG-CC-PVTZ
    Blend: AUG-CC-PVTZ
  Basis Set: (AUG-CC-PVTZ AUX)
    Blend: AUG-CC-PVTZ-JKFIT

    Orbital Energies [Eh]
    ---------------------

    Doubly Occupied:

       1A    -80.107975     2A    -20.606615     3A    -20.592176
       4A    -20.591019     5A    -20.513612     6A    -11.299712
       7A    -11.297871     8A    -11.230291     9A    -11.227785
      10A     -7.623057    11A     -5.521560    12A     -5.521036
      13A     -5.520089    14A     -1.445257    15A     -1.380114
      16A     -1.376509    17A     -1.293800    18A     -1.040669
      19A     -1.032496    20A     -0.873312    21A     -0.862679
      22A     -0.813698    23A     -0.729785    24A     -0.714838
      25A     -0.682945    26A     -0.657641    27A     -0.652947
      28A     -0.619205    29A     -0.604532    30A     -0.576722
      31A     -0.566264    32A     -0.563336    33A     -0.543925
      34A     -0.539377    35A     -0.535324    36A     -0.517939
      37A     -0.503138    38A     -0.480161    39A     -0.477476
      40A     -0.467199    41A     -0.462312

  @DF-RHF Final Energy:  -798.38716410811730

   => Energetics <=

    Nuclear Repulsion Energy =            627.0479310185834265
    One-Electron Energy =               -2345.5374039239873127
    Two-Electron Energy =                 920.1023087972866961
    Total Energy =                       -798.3871641081173038
  Basis Set: (AUG-CC-PVTZ AUX)
    Blend: AUG-CC-PVTZ-RI
    Molecular point group: c1

    Geometry (in Angstrom), charge = 0, multiplicity = 1:

       Center              X                  Y                   Z               Mass
    ------------   -----------------  -----------------  -----------------  -----------------
         P           -0.021870004031    -0.874941647925    -0.099566802369    30.973761998420
         O            1.229150495969     0.067057652075    -0.536832502369    15.994914619570
         O           -1.118093004031     0.143759352075     0.515428197631    15.994914619570
         O            0.513842995969    -1.577568647925     1.256340197631    15.994914619570
         O           -0.498556004031    -1.777496647925    -1.170185802369    15.994914619570
         C            1.835592995969     0.921733352075     0.456348197631    12.000000000000
         C           -1.916462004031     0.877382352075    -0.455279802369    12.000000000000
         C            2.831825995969     1.786783352075    -0.279793802369    12.000000000000
         C           -2.847579004031     1.774817352075     0.325444197631    12.000000000000
         H            1.059939995969     1.520070352075     0.943765197631     1.007825032230
         H            2.319889995969     0.294564352075     1.209400197631     1.007825032230
         H           -1.246952004031     1.456964352075    -1.100246802369     1.007825032230
         H           -2.460703004031     0.159336352075    -1.074057802369     1.007825032230
         H            3.339430995969     2.451985352075     0.424835197631     1.007825032230
         H            3.579377995969     1.164786352075    -0.775844802369     1.007825032230
         H            2.326327995969     2.393747352075    -1.033721802369     1.007825032230
         H           -3.477801004031     2.346844352075    -0.361612802369     1.007825032230
         H           -3.490391004031     1.178082352075     0.975680197631     1.007825032230
         H           -2.278092004031     2.473354352075     0.942190197631     1.007825032230
         H            0.146391995969    -2.477544647925     1.325723197631     1.007825032230

  Basis Set: AUG-CC-PVTZ
    Blend: AUG-CC-PVTZ
  Basis Set: (AUG-CC-PVTZ AUX)
    Blend: AUG-CC-PVTZ-JKFIT
	 Reference Energy          =    -798.3871641081173038 [Eh]
	 Singles Energy            =      -0.0000000000000000 [Eh]
	 Same-Spin Energy          =      -0.4899391505994042 [Eh]
	 Opposite-Spin Energy      =      -1.5385719874631669 [Eh]
	 Correlation Energy        =      -2.0285111380625711 [Eh]
	 Total Energy              =    -800.4156752461798305 [Eh]

	 ================> DF-SCS-MP2 Energies <==================
	-----------------------------------------------------------
	 SCS Same-Spin Scale       =       0.3333333333333333 [-]
	 SCS Opposite-Spin Scale   =       1.2000000000000000 [-]
	 SCS Same-Spin Energy      =      -0.1633130501998014 [Eh]
	 SCS Opposite-Spin Energy  =      -1.8462863849558002 [Eh]
	 SCS Correlation Energy    =      -2.0095994351556015 [Eh]
	 SCS Total Energy          =    -800.3967635432728684 [Eh]
	-----------------------------------------------------------

  Dipole Moment: [D]
     X:     0.0098      Y:     2.5624      Z:     2.1006     Total:     3.3134

*** Psi4 exiting successfully. Buy a developer a beer!
