                               Psi4 1.3.2 release

  ==> Input File <==

--------------------------------------------------------------------------
#psi4
#
memory 32 gb

molecule  {
0 1
  P       -0.0032580    -0.8671950     0.1253540
  O       -1.1867680     0.1204360     0.5615740
  O        1.1823958     0.1486690    -0.5894423
  O       -0.6066630    -1.5809190    -1.1923580
  O        0.4670770    -1.7625730     1.2055430
  C       -1.7907810     0.9929110    -0.4324270
  C        1.9592910     0.8227470     0.3828140
  C       -2.8068250     1.8392790     0.2947570
  C        2.8879720     1.6796440    -0.4470910
  H       -1.0045510     1.5998440    -0.8949530
  H       -2.2583930     0.3707270    -1.2026260
  H        1.3234980     1.4321860     1.0341110
  H        2.5053500     0.1039360     0.9973890
  H       -3.3001310     2.5165380    -0.4095030
  H       -3.5654280     1.2070220     0.7630240
  H       -2.3198080     2.4333430     1.0748900
  H        3.5555180     2.2520740     0.2062470
  H        3.4947160     1.0534000    -1.1072300
  H        2.3164280     2.3771700    -1.0625470
  H       -0.2391740    -2.4808040    -1.2743640
units angstrom
no_reorient  #important for SAPT in psi4, default
symmetry c1  #important for SAPT in psi4, default
}

set PROPERTIES_ORIGIN ["COM"]
properties('MP2/aug-cc-pvtz', properties = ['dipole'])
--------------------------------------------------------------------------

    Molecular point group: c1
  Charge       = 0
  Multiplicity = 1
  Basis Set: AUG-CC-PVTZ
    Blend: AUG-CC-PVTZ
  Basis Set: (AUG-CC-PVTZ AUX)
    Blend: AUG-CC-PVTZ-JKFIT

    Orbital Energies [Eh]
    ---------------------

    Doubly Occupied:

       1A    -80.116345     2A    -20.612656     3A    -20.599354
       4A    -20.589082     5A    -20.520818     6A    -11.304610
       7A    -11.286889     8A    -11.232263     9A    -11.221829
      10A     -7.630676    11A     -5.529204    12A     -5.528527
      13A     -5.527565    14A     -1.445468    15A     -1.385667
      16A     -1.373841    17A     -1.299694    18A     -1.042513
      19A     -1.022489    20A     -0.871659    21A     -0.858487
      22A     -0.818535    23A     -0.730636    24A     -0.714722
      25A     -0.682088    26A     -0.660583    27A     -0.654623
      28A     -0.614125    29A     -0.609022    30A     -0.579957
      31A     -0.569069    32A     -0.558316    33A     -0.547290
      34A     -0.534741    35A     -0.533683    36A     -0.519319
      37A     -0.499642    38A     -0.482076    39A     -0.474655
      40A     -0.469661    41A     -0.461537

  @DF-RHF Final Energy:  -798.37553566758027

   => Energetics <=

    Nuclear Repulsion Energy =            625.3902315035878701
    One-Electron Energy =               -2342.1037014506359810
    Two-Electron Energy =                 918.3379342794677314
    Total Energy =                       -798.3755356675802659
  Basis Set: (AUG-CC-PVTZ AUX)
    Blend: AUG-CC-PVTZ-RI
    Molecular point group: c1

    Geometry (in Angstrom), charge = 0, multiplicity = 1:

       Center              X                  Y                   Z               Mass
    ------------   -----------------  -----------------  -----------------  -----------------
         P           -0.010427412440    -0.873337783950     0.129676109066    30.973761998420
         O           -1.193937412440     0.114293216050     0.565896109066    15.994914619570
         O            1.175226387560     0.142526216050    -0.585120190934    15.994914619570
         O           -0.613832412440    -1.587061783950    -1.188035890934    15.994914619570
         O            0.459907587560    -1.768715783950     1.209865109066    15.994914619570
         C           -1.797950412440     0.986768216050    -0.428104890934    12.000000000000
         C            1.952121587560     0.816604216050     0.387136109066    12.000000000000
         C           -2.813994412440     1.833136216050     0.299079109066    12.000000000000
         C            2.880802587560     1.673501216050    -0.442768890934    12.000000000000
         H           -1.011720412440     1.593701216050    -0.890630890934     1.007825032230
         H           -2.265562412440     0.364584216050    -1.198303890934     1.007825032230
         H            1.316328587560     1.426043216050     1.038433109066     1.007825032230
         H            2.498180587560     0.097793216050     1.001711109066     1.007825032230
         H           -3.307300412440     2.510395216050    -0.405180890934     1.007825032230
         H           -3.572597412440     1.200879216050     0.767346109066     1.007825032230
         H           -2.326977412440     2.427200216050     1.079212109066     1.007825032230
         H            3.548348587560     2.245931216050     0.210569109066     1.007825032230
         H            3.487546587560     1.047257216050    -1.102907890934     1.007825032230
         H            2.309258587560     2.371027216050    -1.058224890934     1.007825032230
         H           -0.246343412440    -2.486946783950    -1.270041890934     1.007825032230

  Basis Set: AUG-CC-PVTZ
    Blend: AUG-CC-PVTZ
  Basis Set: (AUG-CC-PVTZ AUX)
    Blend: AUG-CC-PVTZ-JKFIT
	 Reference Energy          =    -798.3755356675802659 [Eh]
	 Singles Energy            =      -0.0000000000000000 [Eh]
	 Same-Spin Energy          =      -0.4912055713316177 [Eh]
	 Opposite-Spin Energy      =      -1.5414876911503683 [Eh]
	 Correlation Energy        =      -2.0326932624819860 [Eh]
	 Total Energy              =    -800.4082289300622506 [Eh]

	 ================> DF-SCS-MP2 Energies <==================
	-----------------------------------------------------------
	 SCS Same-Spin Scale       =       0.3333333333333333 [-]
	 SCS Opposite-Spin Scale   =       1.2000000000000000 [-]
	 SCS Same-Spin Energy      =      -0.1637351904438726 [Eh]
	 SCS Opposite-Spin Energy  =      -1.8497852293804420 [Eh]
	 SCS Correlation Energy    =      -2.0135204198243146 [Eh]
	 SCS Total Energy          =    -800.3890560874045832 [Eh]
	-----------------------------------------------------------

  Dipole Moment: [D]
     X:    -0.6651      Y:     2.2123      Z:    -2.1151     Total:     3.1322

*** Psi4 exiting successfully. Buy a developer a beer!
