                               Psi4 1.4a3.dev225

  ==> Input File <==

--------------------------------------------------------------------------
#psi4
#
memory 32 gb

molecule  {
0 1
  P       -0.0193980    -0.9573280    -0.1096150
  O        1.2162340    -0.0269160    -0.5415020
  O       -1.1156210     0.0613730     0.5053800
  O        0.5163150    -1.6599550     1.2462920
  O       -0.4960840    -1.8598830    -1.1802340
  C        1.8380650     0.8393470     0.4463000
  C       -1.9139900     0.7949960    -0.4653280
  C        2.8342980     1.7043970    -0.2898420
  C       -2.8451070     1.6924310     0.3153960
  H        1.0624120     1.4376840     0.9337170
  H        2.3223620     0.2121780     1.1993520
  H       -1.2567028     1.3639970    -1.0985203
  H       -2.4582310     0.0769500    -1.0841060
  H        3.3419030     2.3695990     0.4147870
  H        3.5818500     1.0824000    -0.7858930
  H        2.3288000     2.3113610    -1.0437700
  H       -3.4753290     2.2644580    -0.3716610
  H       -3.4879190     1.0956960     0.9656320
  H       -2.2756200     2.3909680     0.9321420
  H        0.1488640    -2.5599310     1.3156750
units angstrom
no_reorient  #important for SAPT in psi4, default
symmetry c1  #important for SAPT in psi4, default
}

set PROPERTIES_ORIGIN ["COM"]
properties('MP2/aug-cc-pvtz', properties = ['dipole'])
--------------------------------------------------------------------------

    Molecular point group: c1
  Charge       = 0
  Multiplicity = 1
  Basis Set: AUG-CC-PVTZ
    Blend: AUG-CC-PVTZ
  Basis Set: (AUG-CC-PVTZ AUX)
    Blend: AUG-CC-PVTZ-JKFIT

    Orbital Energies [Eh]
    ---------------------

    Doubly Occupied:

       1A    -80.104984     2A    -20.604901     3A    -20.591099
       4A    -20.590119     5A    -20.511518     6A    -11.300745
       7A    -11.296520     8A    -11.229684     9A    -11.229597
      10A     -7.620433    11A     -5.518952    12A     -5.518443
      13A     -5.517460    14A     -1.445940    15A     -1.379014
      16A     -1.376519    17A     -1.291940    18A     -1.041870
      19A     -1.034130    20A     -0.873850    21A     -0.864705
      22A     -0.813516    23A     -0.729767    24A     -0.715076
      25A     -0.683619    26A     -0.657974    27A     -0.652345
      28A     -0.618105    29A     -0.605596    30A     -0.576428
      31A     -0.565838    32A     -0.563635    33A     -0.544714
      34A     -0.539505    35A     -0.534965    36A     -0.519026
      37A     -0.503382    38A     -0.481544    39A     -0.479182
      40A     -0.465795    41A     -0.460799

  @DF-RHF Final Energy:  -798.38883777767796

   => Energetics <=

    Nuclear Repulsion Energy =            627.7005841563359354
    One-Electron Energy =               -2346.8723778843773289
    Two-Electron Energy =                 920.7829559503634300
    Total Energy =                       -798.3888377776779635
  Basis Set: (AUG-CC-PVTZ AUX)
    Blend: AUG-CC-PVTZ-RI
    Molecular point group: c1

    Geometry (in Angstrom), charge = 0, multiplicity = 1:

       Center              X                  Y                   Z               Mass
    ------------   -----------------  -----------------  -----------------  -----------------
         P           -0.020192147413    -0.873669236133    -0.100202345118    30.973761998420
         O            1.215439852587     0.056742763867    -0.532089345118    15.994914619570
         O           -1.116415147413     0.145031763867     0.514792654882    15.994914619570
         O            0.515520852587    -1.576296236133     1.255704654882    15.994914619570
         O           -0.496878147413    -1.776224236133    -1.170821345118    15.994914619570
         C            1.837270852587     0.923005763867     0.455712654882    12.000000000000
         C           -1.914784147413     0.878654763867    -0.455915345118    12.000000000000
         C            2.833503852587     1.788055763867    -0.280429345118    12.000000000000
         C           -2.845901147413     1.776089763867     0.324808654882    12.000000000000
         H            1.061617852587     1.521342763867     0.943129654882     1.007825032230
         H            2.321567852587     0.295836763867     1.208764654882     1.007825032230
         H           -1.257496947413     1.447655763867    -1.089107645118     1.007825032230
         H           -2.459025147413     0.160608763867    -1.074693345118     1.007825032230
         H            3.341108852587     2.453257763867     0.424199654882     1.007825032230
         H            3.581055852587     1.166058763867    -0.776480345118     1.007825032230
         H            2.328005852587     2.395019763867    -1.034357345118     1.007825032230
         H           -3.476123147413     2.348116763867    -0.362248345118     1.007825032230
         H           -3.488713147413     1.179354763867     0.975044654882     1.007825032230
         H           -2.276414147413     2.474626763867     0.941554654882     1.007825032230
         H            0.148069852587    -2.476272236133     1.325087654882     1.007825032230

  Basis Set: AUG-CC-PVTZ
    Blend: AUG-CC-PVTZ
  Basis Set: (AUG-CC-PVTZ AUX)
    Blend: AUG-CC-PVTZ-JKFIT
	 Reference Energy          =    -798.3888377776779635 [Eh]
	 Singles Energy            =      -0.0000000000000000 [Eh]
	 Same-Spin Energy          =      -0.4896476384660977 [Eh]
	 Opposite-Spin Energy      =      -1.5378080274655508 [Eh]
	 Correlation Energy        =      -2.0274556659316483 [Eh]
	 Total Energy              =    -800.4162934436095611 [Eh]

	 ================> DF-SCS-MP2 Energies <==================
	-----------------------------------------------------------
	 SCS Same-Spin Scale       =       0.3333333333333333 [-]
	 SCS Opposite-Spin Scale   =       1.2000000000000000 [-]
	 SCS Same-Spin Energy      =      -0.1632158794886992 [Eh]
	 SCS Opposite-Spin Energy  =      -1.8453696329586609 [Eh]
	 SCS Correlation Energy    =      -2.0085855124473602 [Eh]
	 SCS Total Energy          =    -800.3974232901252890 [Eh]
	-----------------------------------------------------------

  Dipole Moment: [D]
     X:     0.1448      Y:     2.6634      Z:     2.0924     Total:     3.3901

*** Psi4 exiting successfully. Buy a developer a beer!
