                               Psi4 1.3.2 release

  ==> Input File <==

--------------------------------------------------------------------------
#psi4
#
memory 32 gb

molecule  {
0 1
  P       -0.0032580    -0.8671950     0.1253540
  O       -1.1553975     0.1374276     0.6046314
  O        1.1133490     0.0895100    -0.5478160
  O       -0.5588956    -1.6105255    -1.1969891
  O        0.4670770    -1.7625730     1.2055430
  C       -1.7907810     0.9929110    -0.4324270
  C        1.9592910     0.8227470     0.3828140
  C       -2.8068250     1.8392790     0.2947570
  C        2.8879720     1.6796440    -0.4470910
  H       -1.0045510     1.5998440    -0.8949530
  H       -2.2583930     0.3707270    -1.2026260
  H        1.3234980     1.4321860     1.0341110
  H        2.5053500     0.1039360     0.9973890
  H       -3.3001310     2.5165380    -0.4095030
  H       -3.5654280     1.2070220     0.7630240
  H       -2.3198080     2.4333430     1.0748900
  H        3.5555180     2.2520740     0.2062470
  H        3.4947160     1.0534000    -1.1072300
  H        2.3164280     2.3771700    -1.0625470
  H       -0.2391740    -2.4808040    -1.2743640
units angstrom
no_reorient  #important for SAPT in psi4, default
symmetry c1  #important for SAPT in psi4, default
}

set PROPERTIES_ORIGIN ["COM"]
properties('MP2/aug-cc-pvtz', properties = ['dipole'])
--------------------------------------------------------------------------

    Molecular point group: c1
  Charge       = 0
  Multiplicity = 1
  Basis Set: AUG-CC-PVTZ
    Blend: AUG-CC-PVTZ
  Basis Set: (AUG-CC-PVTZ AUX)
    Blend: AUG-CC-PVTZ-JKFIT

    Orbital Energies [Eh]
    ---------------------

    Doubly Occupied:

       1A    -80.103252     2A    -20.600986     3A    -20.595383
       4A    -20.587890     5A    -20.505784     6A    -11.307204
       7A    -11.297549     8A    -11.232898     9A    -11.229434
      10A     -7.618817    11A     -5.517259    12A     -5.516840
      13A     -5.515875    14A     -1.447347    15A     -1.385800
      16A     -1.372661    17A     -1.287091    18A     -1.043196
      19A     -1.033905    20A     -0.873350    21A     -0.864643
      22A     -0.819794    23A     -0.734487    24A     -0.714213
      25A     -0.682954    26A     -0.657346    27A     -0.650275
      28A     -0.616988    29A     -0.605275    30A     -0.577307
      31A     -0.565577    32A     -0.561107    33A     -0.544377
      34A     -0.539169    35A     -0.533849    36A     -0.522482
      37A     -0.506701    38A     -0.485204    39A     -0.478343
      40A     -0.461001    41A     -0.456284

  @DF-RHF Final Energy:  -798.38728671544891

   => Energetics <=

    Nuclear Repulsion Energy =            627.6278978926867467
    One-Electron Energy =               -2346.7305653333332884
    Two-Electron Energy =                 920.7153807251977469
    Total Energy =                       -798.3872867154489086
  Basis Set: (AUG-CC-PVTZ AUX)
    Blend: AUG-CC-PVTZ-RI
    Molecular point group: c1

    Geometry (in Angstrom), charge = 0, multiplicity = 1:

       Center              X                  Y                   Z               Mass
    ------------   -----------------  -----------------  -----------------  -----------------
         P           -0.011475236454    -0.865885036872     0.121363731158    30.973761998420
         O           -1.163614736454     0.138737563128     0.600641131158    15.994914619570
         O            1.105131763546     0.090819963128    -0.551806268842    15.994914619570
         O           -0.567112836454    -1.609215536872    -1.200979368842    15.994914619570
         O            0.458859763546    -1.761263036872     1.201552731158    15.994914619570
         C           -1.798998236454     0.994220963128    -0.436417268842    12.000000000000
         C            1.951073763546     0.824056963128     0.378823731158    12.000000000000
         C           -2.815042236454     1.840588963128     0.290766731158    12.000000000000
         C            2.879754763546     1.680953963128    -0.451081268842    12.000000000000
         H           -1.012768236454     1.601153963128    -0.898943268842     1.007825032230
         H           -2.266610236454     0.372036963128    -1.206616268842     1.007825032230
         H            1.315280763546     1.433495963128     1.030120731158     1.007825032230
         H            2.497132763546     0.105245963128     0.993398731158     1.007825032230
         H           -3.308348236454     2.517847963128    -0.413493268842     1.007825032230
         H           -3.573645236454     1.208331963128     0.759033731158     1.007825032230
         H           -2.328025236454     2.434652963128     1.070899731158     1.007825032230
         H            3.547300763546     2.253383963128     0.202256731158     1.007825032230
         H            3.486498763546     1.054709963128    -1.111220268842     1.007825032230
         H            2.308210763546     2.378479963128    -1.066537268842     1.007825032230
         H           -0.247391236454    -2.479494036872    -1.278354268842     1.007825032230

  Basis Set: AUG-CC-PVTZ
    Blend: AUG-CC-PVTZ
  Basis Set: (AUG-CC-PVTZ AUX)
    Blend: AUG-CC-PVTZ-JKFIT
	 Reference Energy          =    -798.3872867154489086 [Eh]
	 Singles Energy            =      -0.0000000000000000 [Eh]
	 Same-Spin Energy          =      -0.4891653071598350 [Eh]
	 Opposite-Spin Energy      =      -1.5371811207334876 [Eh]
	 Correlation Energy        =      -2.0263464278933228 [Eh]
	 Total Energy              =    -800.4136331433422811 [Eh]

	 ================> DF-SCS-MP2 Energies <==================
	-----------------------------------------------------------
	 SCS Same-Spin Scale       =       0.3333333333333333 [-]
	 SCS Opposite-Spin Scale   =       1.2000000000000000 [-]
	 SCS Same-Spin Energy      =      -0.1630551023866117 [Eh]
	 SCS Opposite-Spin Energy  =      -1.8446173448801850 [Eh]
	 SCS Correlation Energy    =      -2.0076724472667968 [Eh]
	 SCS Total Energy          =    -800.3949591627157361 [Eh]
	-----------------------------------------------------------

  Dipole Moment: [D]
     X:    -0.3507      Y:     2.7882      Z:    -2.3096     Total:     3.6375

*** Psi4 exiting successfully. Buy a developer a beer!
