                               Psi4 1.4a3.dev225

  ==> Input File <==

--------------------------------------------------------------------------
#psi4
#
memory 32 gb

molecule  {
0 1
  P       -0.0193980    -0.9573280    -0.1096150
  O        1.2162340    -0.0269160    -0.5415020
  O       -1.1156210     0.0613730     0.5053800
  O        0.5163150    -1.6599550     1.2462920
  O       -0.4960840    -1.8598830    -1.1802340
  C        1.8380650     0.8393470     0.4463000
  C       -1.9139900     0.7949960    -0.4653280
  C        2.8342980     1.7043970    -0.2898420
  C       -2.8451070     1.6924310     0.3153960
  H        1.0624120     1.4376840     0.9337170
  H        2.3223620     0.2121780     1.1993520
  H       -1.2444800     1.3745780    -1.1102950
  H       -2.4582310     0.0769500    -1.0841060
  H        3.3419030     2.3695990     0.4147870
  H        3.5818500     1.0824000    -0.7858930
  H        2.3288000     2.3113610    -1.0437700
  H       -3.4753290     2.2644580    -0.3716610
  H       -3.4879190     1.0956960     0.9656320
  H       -2.2756200     2.3909680     0.9321420
  H        0.1564048    -2.5414619     1.3142511
units angstrom
no_reorient  #important for SAPT in psi4, default
symmetry c1  #important for SAPT in psi4, default
}

set PROPERTIES_ORIGIN ["COM"]
properties('MP2/aug-cc-pvtz', properties = ['dipole'])
--------------------------------------------------------------------------

    Molecular point group: c1
  Charge       = 0
  Multiplicity = 1
  Basis Set: AUG-CC-PVTZ
    Blend: AUG-CC-PVTZ
  Basis Set: (AUG-CC-PVTZ AUX)
    Blend: AUG-CC-PVTZ-JKFIT

    Orbital Energies [Eh]
    ---------------------

    Doubly Occupied:

       1A    -80.105440     2A    -20.603658     3A    -20.591267
       4A    -20.590647     5A    -20.511878     6A    -11.300871
       7A    -11.299095     8A    -11.229887     9A    -11.229769
      10A     -7.620887    11A     -5.519413    12A     -5.518896
      13A     -5.517910    14A     -1.447622    15A     -1.382595
      16A     -1.376798    17A     -1.292402    18A     -1.041743
      19A     -1.033864    20A     -0.874055    21A     -0.864429
      22A     -0.815146    23A     -0.731825    24A     -0.715605
      25A     -0.683546    26A     -0.657582    27A     -0.652815
      28A     -0.618681    29A     -0.605993    30A     -0.576999
      31A     -0.566120    32A     -0.563897    33A     -0.544875
      34A     -0.539625    35A     -0.535379    36A     -0.518823
      37A     -0.503685    38A     -0.480903    39A     -0.479074
      40A     -0.466137    41A     -0.461051

  @DF-RHF Final Energy:  -798.38955058084514

   => Energetics <=

    Nuclear Repulsion Energy =            627.7525420863809131
    One-Electron Energy =               -2346.9424112763558696
    Two-Electron Energy =                 920.8003186091299312
    Total Energy =                       -798.3895505808451389
  Basis Set: (AUG-CC-PVTZ AUX)
    Blend: AUG-CC-PVTZ-RI
    Molecular point group: c1

    Geometry (in Angstrom), charge = 0, multiplicity = 1:

       Center              X                  Y                   Z               Mass
    ------------   -----------------  -----------------  -----------------  -----------------
         P           -0.020321453541    -0.873859300492    -0.100115991424    30.973761998420
         O            1.215310546459     0.056552699508    -0.532002991424    15.994914619570
         O           -1.116544453541     0.144841699508     0.514879008576    15.994914619570
         O            0.515391546459    -1.576486300492     1.255791008576    15.994914619570
         O           -0.497007453541    -1.776414300492    -1.170734991424    15.994914619570
         C            1.837141546459     0.922815699508     0.455799008576    12.000000000000
         C           -1.914913453541     0.878464699508    -0.455828991424    12.000000000000
         C            2.833374546459     1.787865699508    -0.280342991424    12.000000000000
         C           -2.846030453541     1.775899699508     0.324895008576    12.000000000000
         H            1.061488546459     1.521152699508     0.943216008576     1.007825032230
         H            2.321438546459     0.295646699508     1.208851008576     1.007825032230
         H           -1.245403453541     1.458046699508    -1.100795991424     1.007825032230
         H           -2.459154453541     0.160418699508    -1.074606991424     1.007825032230
         H            3.340979546459     2.453067699508     0.424286008576     1.007825032230
         H            3.580926546459     1.165868699508    -0.776393991424     1.007825032230
         H            2.327876546459     2.394829699508    -1.034270991424     1.007825032230
         H           -3.476252453541     2.347926699508    -0.362161991424     1.007825032230
         H           -3.488842453541     1.179164699508     0.975131008576     1.007825032230
         H           -2.276543453541     2.474436699508     0.941641008576     1.007825032230
         H            0.155481346459    -2.457993200492     1.323750108576     1.007825032230

  Basis Set: AUG-CC-PVTZ
    Blend: AUG-CC-PVTZ
  Basis Set: (AUG-CC-PVTZ AUX)
    Blend: AUG-CC-PVTZ-JKFIT
	 Reference Energy          =    -798.3895505808451389 [Eh]
	 Singles Energy            =      -0.0000000000000000 [Eh]
	 Same-Spin Energy          =      -0.4894523287953234 [Eh]
	 Opposite-Spin Energy      =      -1.5374313583711110 [Eh]
	 Correlation Energy        =      -2.0268836871664346 [Eh]
	 Total Energy              =    -800.4164342680115851 [Eh]

	 ================> DF-SCS-MP2 Energies <==================
	-----------------------------------------------------------
	 SCS Same-Spin Scale       =       0.3333333333333333 [-]
	 SCS Opposite-Spin Scale   =       1.2000000000000000 [-]
	 SCS Same-Spin Energy      =      -0.1631507762651078 [Eh]
	 SCS Opposite-Spin Energy  =      -1.8449176300453332 [Eh]
	 SCS Correlation Energy    =      -2.0080684063104410 [Eh]
	 SCS Total Energy          =    -800.3976189871556244 [Eh]
	-----------------------------------------------------------

  Dipole Moment: [D]
     X:     0.1464      Y:     2.6892      Z:     2.0890     Total:     3.4084

*** Psi4 exiting successfully. Buy a developer a beer!
