                               Psi4 1.3.2 release

  ==> Input File <==

--------------------------------------------------------------------------
#psi4
#
memory 32 gb

molecule  {
0 1
  P       -0.0032580    -0.8671950     0.1253540
  O       -1.1867680     0.1204360     0.5615740
  O        1.1034988     0.0948769    -0.5563794
  O       -0.6066630    -1.5809190    -1.1923580
  O        0.4550928    -1.7672031     1.2068461
  C       -1.7907810     0.9929110    -0.4324270
  C        1.9592910     0.8227470     0.3828140
  C       -2.8068250     1.8392790     0.2947570
  C        2.8879720     1.6796440    -0.4470910
  H       -1.0045510     1.5998440    -0.8949530
  H       -2.2583930     0.3707270    -1.2026260
  H        1.3234980     1.4321860     1.0341110
  H        2.5053500     0.1039360     0.9973890
  H       -3.3001310     2.5165380    -0.4095030
  H       -3.5654280     1.2070220     0.7630240
  H       -2.3198080     2.4333430     1.0748900
  H        3.5555180     2.2520740     0.2062470
  H        3.4947160     1.0534000    -1.1072300
  H        2.3164280     2.3771700    -1.0625470
  H       -0.2391740    -2.4808040    -1.2743640
units angstrom
no_reorient  #important for SAPT in psi4, default
symmetry c1  #important for SAPT in psi4, default
}

set PROPERTIES_ORIGIN ["COM"]
properties('MP2/aug-cc-pvtz', properties = ['dipole'])
--------------------------------------------------------------------------

    Molecular point group: c1
  Charge       = 0
  Multiplicity = 1
  Basis Set: AUG-CC-PVTZ
    Blend: AUG-CC-PVTZ
  Basis Set: (AUG-CC-PVTZ AUX)
    Blend: AUG-CC-PVTZ-JKFIT

    Orbital Energies [Eh]
    ---------------------

    Doubly Occupied:

       1A    -80.103612     2A    -20.603557     3A    -20.591261
       4A    -20.590129     5A    -20.511442     6A    -11.300763
       7A    -11.300665     8A    -11.231221     9A    -11.229547
      10A     -7.619268    11A     -5.517807    12A     -5.517304
      13A     -5.516249    14A     -1.446275    15A     -1.378395
      16A     -1.375465    17A     -1.291468    18A     -1.041652
      19A     -1.033947    20A     -0.872525    21A     -0.863715
      22A     -0.812878    23A     -0.729840    24A     -0.714619
      25A     -0.681762    26A     -0.657370    27A     -0.651089
      28A     -0.618309    29A     -0.604974    30A     -0.576639
      31A     -0.565206    32A     -0.562113    33A     -0.544724
      34A     -0.538797    35A     -0.533706    36A     -0.520330
      37A     -0.504002    38A     -0.481430    39A     -0.479207
      40A     -0.465439    41A     -0.461157

  @DF-RHF Final Energy:  -798.38818943212834

   => Energetics <=

    Nuclear Repulsion Energy =            628.0164979325343211
    One-Electron Energy =               -2347.5296605175881268
    Two-Electron Energy =                 921.1249731529254632
    Total Energy =                       -798.3881894321283426
  Basis Set: (AUG-CC-PVTZ AUX)
    Blend: AUG-CC-PVTZ-RI
    Molecular point group: c1

    Geometry (in Angstrom), charge = 0, multiplicity = 1:

       Center              X                  Y                   Z               Mass
    ------------   -----------------  -----------------  -----------------  -----------------
         P           -0.000990631135    -0.867271430020     0.126107665577    30.973761998420
         O           -1.184500631135     0.120359569980     0.562327665577    15.994914619570
         O            1.105766168865     0.094800469980    -0.555625734423    15.994914619570
         O           -0.604395631135    -1.580995430020    -1.191604334423    15.994914619570
         O            0.457360168865    -1.767279530020     1.207599765577    15.994914619570
         C           -1.788513631135     0.992834569980    -0.431673334423    12.000000000000
         C            1.961558368865     0.822670569980     0.383567665577    12.000000000000
         C           -2.804557631135     1.839202569980     0.295510665577    12.000000000000
         C            2.890239368865     1.679567569980    -0.446337334423    12.000000000000
         H           -1.002283631135     1.599767569980    -0.894199334423     1.007825032230
         H           -2.256125631135     0.370650569980    -1.201872334423     1.007825032230
         H            1.325765368865     1.432109569980     1.034864665577     1.007825032230
         H            2.507617368865     0.103859569980     0.998142665577     1.007825032230
         H           -3.297863631135     2.516461569980    -0.408749334423     1.007825032230
         H           -3.563160631135     1.206945569980     0.763777665577     1.007825032230
         H           -2.317540631135     2.433266569980     1.075643665577     1.007825032230
         H            3.557785368865     2.251997569980     0.207000665577     1.007825032230
         H            3.496983368865     1.053323569980    -1.106476334423     1.007825032230
         H            2.318695368865     2.377093569980    -1.061793334423     1.007825032230
         H           -0.236906631135    -2.480880430020    -1.273610334423     1.007825032230

  Basis Set: AUG-CC-PVTZ
    Blend: AUG-CC-PVTZ
  Basis Set: (AUG-CC-PVTZ AUX)
    Blend: AUG-CC-PVTZ-JKFIT
	 Reference Energy          =    -798.3881894321283426 [Eh]
	 Singles Energy            =      -0.0000000000000000 [Eh]
	 Same-Spin Energy          =      -0.4897773905591750 [Eh]
	 Opposite-Spin Energy      =      -1.5382183262934450 [Eh]
	 Correlation Energy        =      -2.0279957168526201 [Eh]
	 Total Energy              =    -800.4161851489809578 [Eh]

	 ================> DF-SCS-MP2 Energies <==================
	-----------------------------------------------------------
	 SCS Same-Spin Scale       =       0.3333333333333333 [-]
	 SCS Opposite-Spin Scale   =       1.2000000000000000 [-]
	 SCS Same-Spin Energy      =      -0.1632591301863917 [Eh]
	 SCS Opposite-Spin Energy  =      -1.8458619915521339 [Eh]
	 SCS Correlation Energy    =      -2.0091211217385254 [Eh]
	 SCS Total Energy          =    -800.3973105538668733 [Eh]
	-----------------------------------------------------------

  Dipole Moment: [D]
     X:     0.0275      Y:     2.6669      Z:    -2.1873     Total:     3.4493

*** Psi4 exiting successfully. Buy a developer a beer!
