                               Psi4 1.3.2 release

  ==> Input File <==

--------------------------------------------------------------------------
#psi4
#
memory 32 gb

molecule  {
0 1
  P        0.0264182    -0.9139706     0.1358937
  O       -1.1867680     0.1204360     0.5615740
  O        1.1133490     0.0895100    -0.5478160
  O       -0.6066630    -1.5809190    -1.1923580
  O        0.4670770    -1.7625730     1.2055430
  C       -1.7907810     0.9929110    -0.4324270
  C        1.9592910     0.8227470     0.3828140
  C       -2.8068250     1.8392790     0.2947570
  C        2.8879720     1.6796440    -0.4470910
  H       -1.0045510     1.5998440    -0.8949530
  H       -2.2583930     0.3707270    -1.2026260
  H        1.3234980     1.4321860     1.0341110
  H        2.5053500     0.1039360     0.9973890
  H       -3.3001310     2.5165380    -0.4095030
  H       -3.5654280     1.2070220     0.7630240
  H       -2.3198080     2.4333430     1.0748900
  H        3.5555180     2.2520740     0.2062470
  H        3.4947160     1.0534000    -1.1072300
  H        2.3164280     2.3771700    -1.0625470
  H       -0.2213340    -2.4754723    -1.2458571
units angstrom
no_reorient  #important for SAPT in psi4, default
symmetry c1  #important for SAPT in psi4, default
}

set PROPERTIES_ORIGIN ["COM"]
properties('MP2/aug-cc-pvtz', properties = ['dipole'])
--------------------------------------------------------------------------

    Molecular point group: c1
  Charge       = 0
  Multiplicity = 1
  Basis Set: AUG-CC-PVTZ
    Blend: AUG-CC-PVTZ
  Basis Set: (AUG-CC-PVTZ AUX)
    Blend: AUG-CC-PVTZ-JKFIT

    Orbital Energies [Eh]
    ---------------------

    Doubly Occupied:

       1A    -80.103616     2A    -20.609968     3A    -20.589628
       4A    -20.578996     5A    -20.523099     6A    -11.298467
       7A    -11.293347     8A    -11.229984     9A    -11.224782
      10A     -7.620432    11A     -5.518796    12A     -5.518140
      13A     -5.517779    14A     -1.444327    15A     -1.379536
      16A     -1.361481    17A     -1.320829    18A     -1.037530
      19A     -1.027588    20A     -0.869945    21A     -0.856160
      22A     -0.808421    23A     -0.726721    24A     -0.705815
      25A     -0.679564    26A     -0.661206    27A     -0.650009
      28A     -0.619283    29A     -0.596255    30A     -0.578366
      31A     -0.574521    32A     -0.559637    33A     -0.542887
      34A     -0.536998    35A     -0.532153    36A     -0.518128
      37A     -0.502115    38A     -0.485629    39A     -0.479471
      40A     -0.472987    41A     -0.466605

  @DF-RHF Final Energy:  -798.38336590268136

   => Energetics <=

    Nuclear Repulsion Energy =            627.3295860509276736
    One-Electron Energy =               -2346.1835038542790244
    Two-Electron Energy =                 920.4705519006699888
    Total Energy =                       -798.3833659026813621
  Basis Set: (AUG-CC-PVTZ AUX)
    Blend: AUG-CC-PVTZ-RI
    Molecular point group: c1

    Geometry (in Angstrom), charge = 0, multiplicity = 1:

       Center              X                  Y                   Z               Mass
    ------------   -----------------  -----------------  -----------------  -----------------
         P            0.020334447543    -0.904599920847     0.133587682716    30.973761998420
         O           -1.192851752457     0.129806679153     0.559267982716    15.994914619570
         O            1.107265247543     0.098880679153    -0.550122017284    15.994914619570
         O           -0.612746752457    -1.571548320847    -1.194664017284    15.994914619570
         O            0.460993247543    -1.753202320847     1.203236982716    15.994914619570
         C           -1.796864752457     1.002281679153    -0.434733017284    12.000000000000
         C            1.953207247543     0.832117679153     0.380507982716    12.000000000000
         C           -2.812908752457     1.848649679153     0.292450982716    12.000000000000
         C            2.881888247543     1.689014679153    -0.449397017284    12.000000000000
         H           -1.010634752457     1.609214679153    -0.897259017284     1.007825032230
         H           -2.264476752457     0.380097679153    -1.204932017284     1.007825032230
         H            1.317414247543     1.441556679153     1.031804982716     1.007825032230
         H            2.499266247543     0.113306679153     0.995082982716     1.007825032230
         H           -3.306214752457     2.525908679153    -0.411809017284     1.007825032230
         H           -3.571511752457     1.216392679153     0.760717982716     1.007825032230
         H           -2.325891752457     2.442713679153     1.072583982716     1.007825032230
         H            3.549434247543     2.261444679153     0.203940982716     1.007825032230
         H            3.488632247543     1.062770679153    -1.109536017284     1.007825032230
         H            2.310344247543     2.386540679153    -1.064853017284     1.007825032230
         H           -0.227417752457    -2.466101620847    -1.248163117284     1.007825032230

  Basis Set: AUG-CC-PVTZ
    Blend: AUG-CC-PVTZ
  Basis Set: (AUG-CC-PVTZ AUX)
    Blend: AUG-CC-PVTZ-JKFIT
	 Reference Energy          =    -798.3833659026813621 [Eh]
	 Singles Energy            =      -0.0000000000000000 [Eh]
	 Same-Spin Energy          =      -0.4895744940342203 [Eh]
	 Opposite-Spin Energy      =      -1.5381095946030285 [Eh]
	 Correlation Energy        =      -2.0276840886372489 [Eh]
	 Total Energy              =    -800.4110499913185777 [Eh]

	 ================> DF-SCS-MP2 Energies <==================
	-----------------------------------------------------------
	 SCS Same-Spin Scale       =       0.3333333333333333 [-]
	 SCS Opposite-Spin Scale   =       1.2000000000000000 [-]
	 SCS Same-Spin Energy      =      -0.1631914980114068 [Eh]
	 SCS Opposite-Spin Energy  =      -1.8457315135236341 [Eh]
	 SCS Correlation Energy    =      -2.0089230115350407 [Eh]
	 SCS Total Energy          =    -800.3922889142163513 [Eh]
	-----------------------------------------------------------

  Dipole Moment: [D]
     X:     0.3291      Y:     2.1007      Z:    -2.0300     Total:     2.9398

*** Psi4 exiting successfully. Buy a developer a beer!
