                               Psi4 1.3.2 release

  ==> Input File <==

--------------------------------------------------------------------------
#psi4
#
memory 32 gb

molecule  {
0 1
  P       -0.0032580    -0.8671950     0.1253540
  O       -1.1867680     0.1204360     0.5615740
  O        1.1133490     0.0895100    -0.5478160
  O       -0.6042612    -1.5935374    -1.1865478
  O        0.4637177    -1.7728182     1.1984362
  C       -1.7907810     0.9929110    -0.4324270
  C        1.9592910     0.8227470     0.3828140
  C       -2.8068250     1.8392790     0.2947570
  C        2.8879720     1.6796440    -0.4470910
  H       -1.0045510     1.5998440    -0.8949530
  H       -2.2583930     0.3707270    -1.2026260
  H        1.3234980     1.4321860     1.0341110
  H        2.5053500     0.1039360     0.9973890
  H       -3.3001310     2.5165380    -0.4095030
  H       -3.5654280     1.2070220     0.7630240
  H       -2.3198080     2.4333430     1.0748900
  H        3.5555180     2.2520740     0.2062470
  H        3.4947160     1.0534000    -1.1072300
  H        2.3164280     2.3771700    -1.0625470
  H       -0.2391740    -2.4808040    -1.2743640
units angstrom
no_reorient  #important for SAPT in psi4, default
symmetry c1  #important for SAPT in psi4, default
}

set PROPERTIES_ORIGIN ["COM"]
properties('MP2/aug-cc-pvtz', properties = ['dipole'])
--------------------------------------------------------------------------

    Molecular point group: c1
  Charge       = 0
  Multiplicity = 1
  Basis Set: AUG-CC-PVTZ
    Blend: AUG-CC-PVTZ
  Basis Set: (AUG-CC-PVTZ AUX)
    Blend: AUG-CC-PVTZ-JKFIT

    Orbital Energies [Eh]
    ---------------------

    Doubly Occupied:

       1A    -80.104251     2A    -20.602501     3A    -20.592007
       4A    -20.591070     5A    -20.510130     6A    -11.301862
       7A    -11.299777     8A    -11.230814     9A    -11.230323
      10A     -7.619825    11A     -5.518355    12A     -5.517861
      13A     -5.516822    14A     -1.447508    15A     -1.380971
      16A     -1.377706    17A     -1.290636    18A     -1.042149
      19A     -1.034121    20A     -0.873791    21A     -0.864473
      22A     -0.814783    23A     -0.732686    24A     -0.715760
      25A     -0.682682    26A     -0.658417    27A     -0.651079
      28A     -0.619228    29A     -0.606029    30A     -0.576802
      31A     -0.565408    32A     -0.562467    33A     -0.545142
      34A     -0.539641    35A     -0.534496    36A     -0.520169
      37A     -0.504139    38A     -0.481274    39A     -0.479812
      40A     -0.464438    41A     -0.459982

  @DF-RHF Final Energy:  -798.38949742365355

   => Energetics <=

    Nuclear Repulsion Energy =            628.0222129728376785
    One-Electron Energy =               -2347.5006401829928109
    Two-Electron Energy =                 921.0889297865015806
    Total Energy =                       -798.3894974236535518
  Basis Set: (AUG-CC-PVTZ AUX)
    Blend: AUG-CC-PVTZ-RI
    Molecular point group: c1

    Geometry (in Angstrom), charge = 0, multiplicity = 1:

       Center              X                  Y                   Z               Mass
    ------------   -----------------  -----------------  -----------------  -----------------
         P           -0.003158414346    -0.864820848233     0.125488416132    30.973761998420
         O           -1.186668414346     0.122810151767     0.561708416132    15.994914619570
         O            1.113448585654     0.091884151767    -0.547681583868    15.994914619570
         O           -0.604161614346    -1.591163248233    -1.186413383868    15.994914619570
         O            0.463817285654    -1.770444048233     1.198570616132    15.994914619570
         C           -1.790681414346     0.995285151767    -0.432292583868    12.000000000000
         C            1.959390585654     0.825121151767     0.382948416132    12.000000000000
         C           -2.806725414346     1.841653151767     0.294891416132    12.000000000000
         C            2.888071585654     1.682018151767    -0.446956583868    12.000000000000
         H           -1.004451414346     1.602218151767    -0.894818583868     1.007825032230
         H           -2.258293414346     0.373101151767    -1.202491583868     1.007825032230
         H            1.323597585654     1.434560151767     1.034245416132     1.007825032230
         H            2.505449585654     0.106310151767     0.997523416132     1.007825032230
         H           -3.300031414346     2.518912151767    -0.409368583868     1.007825032230
         H           -3.565328414346     1.209396151767     0.763158416132     1.007825032230
         H           -2.319708414346     2.435717151767     1.075024416132     1.007825032230
         H            3.555617585654     2.254448151767     0.206381416132     1.007825032230
         H            3.494815585654     1.055774151767    -1.107095583868     1.007825032230
         H            2.316527585654     2.379544151767    -1.062412583868     1.007825032230
         H           -0.239074414346    -2.478429848233    -1.274229583868     1.007825032230

  Basis Set: AUG-CC-PVTZ
    Blend: AUG-CC-PVTZ
  Basis Set: (AUG-CC-PVTZ AUX)
    Blend: AUG-CC-PVTZ-JKFIT
	 Reference Energy          =    -798.3894974236535518 [Eh]
	 Singles Energy            =      -0.0000000000000000 [Eh]
	 Same-Spin Energy          =      -0.4894888898809109 [Eh]
	 Opposite-Spin Energy      =      -1.5374907283470403 [Eh]
	 Correlation Energy        =      -2.0269796182279514 [Eh]
	 Total Energy              =    -800.4164770418815351 [Eh]

	 ================> DF-SCS-MP2 Energies <==================
	-----------------------------------------------------------
	 SCS Same-Spin Scale       =       0.3333333333333333 [-]
	 SCS Opposite-Spin Scale   =       1.2000000000000000 [-]
	 SCS Same-Spin Energy      =      -0.1631629632936370 [Eh]
	 SCS Opposite-Spin Energy  =      -1.8449888740164482 [Eh]
	 SCS Correlation Energy    =      -2.0081518373100851 [Eh]
	 SCS Total Energy          =    -800.3976492609635898 [Eh]
	-----------------------------------------------------------

  Dipole Moment: [D]
     X:    -0.0558      Y:     2.7269      Z:    -2.2031     Total:     3.5061

*** Psi4 exiting successfully. Buy a developer a beer!
