                               Psi4 1.3.2 release

  ==> Input File <==

--------------------------------------------------------------------------
#psi4
#
memory 32 gb

molecule  {
0 1
  P       -0.0032580    -0.8671950     0.1253540
  O       -1.1867680     0.1204360     0.5615740
  O        1.1133490     0.0895100    -0.5478160
  O       -0.5693122    -1.5367394    -1.1107916
  O        0.4670770    -1.7625730     1.2055430
  C       -1.7907810     0.9929110    -0.4324270
  C        1.9592910     0.8227470     0.3828140
  C       -2.8068250     1.8392790     0.2947570
  C        2.8879720     1.6796440    -0.4470910
  H       -1.0045510     1.5998440    -0.8949530
  H       -2.2583930     0.3707270    -1.2026260
  H        1.3234980     1.4321860     1.0341110
  H        2.5053500     0.1039360     0.9973890
  H       -3.3001310     2.5165380    -0.4095030
  H       -3.5654280     1.2070220     0.7630240
  H       -2.3198080     2.4333430     1.0748900
  H        3.5555180     2.2520740     0.2062470
  H        3.4947160     1.0534000    -1.1072300
  H        2.3164280     2.3771700    -1.0625470
  H       -0.2391740    -2.4808040    -1.2743640
units angstrom
no_reorient  #important for SAPT in psi4, default
symmetry c1  #important for SAPT in psi4, default
}

set PROPERTIES_ORIGIN ["COM"]
properties('MP2/aug-cc-pvtz', properties = ['dipole'])
--------------------------------------------------------------------------

    Molecular point group: c1
  Charge       = 0
  Multiplicity = 1
  Basis Set: AUG-CC-PVTZ
    Blend: AUG-CC-PVTZ
  Basis Set: (AUG-CC-PVTZ AUX)
    Blend: AUG-CC-PVTZ-JKFIT

    Orbital Energies [Eh]
    ---------------------

    Doubly Occupied:

       1A    -80.090503     2A    -20.610740     3A    -20.584538
       4A    -20.584047     5A    -20.501862     6A    -11.299059
       7A    -11.295056     8A    -11.228226     9A    -11.227856
      10A     -7.608808    11A     -5.507834    12A     -5.506559
      13A     -5.505592    14A     -1.462936    15A     -1.386188
      16A     -1.372095    17A     -1.283849    18A     -1.038820
      19A     -1.030858    20A     -0.873177    21A     -0.861472
      22A     -0.822132    23A     -0.734657    24A     -0.716905
      25A     -0.680343    26A     -0.666468    27A     -0.651436
      28A     -0.617516    29A     -0.601651    30A     -0.584462
      31A     -0.563790    32A     -0.559837    33A     -0.541150
      34A     -0.538088    35A     -0.533146    36A     -0.516138
      37A     -0.499908    38A     -0.477790    39A     -0.474997
      40A     -0.459093    41A     -0.453831

  @DF-RHF Final Energy:  -798.38418330923946

   => Energetics <=

    Nuclear Repulsion Energy =            632.3738663043012593
    One-Electron Energy =               -2356.4092755181991379
    Two-Electron Energy =                 925.6512259046583040
    Total Energy =                       -798.3841833092394609
  Basis Set: (AUG-CC-PVTZ AUX)
    Blend: AUG-CC-PVTZ-RI
    Molecular point group: c1

    Geometry (in Angstrom), charge = 0, multiplicity = 1:

       Center              X                  Y                   Z               Mass
    ------------   -----------------  -----------------  -----------------  -----------------
         P           -0.007136212277    -0.871782376210     0.116884216262    30.973761998420
         O           -1.190646212277     0.115848623790     0.553104216262    15.994914619570
         O            1.109470787723     0.084922623790    -0.556285783738    15.994914619570
         O           -0.573190412277    -1.541326776210    -1.119261383738    15.994914619570
         O            0.463198787723    -1.767160376210     1.197073216262    15.994914619570
         C           -1.794659212277     0.988323623790    -0.440896783738    12.000000000000
         C            1.955412787723     0.818159623790     0.374344216262    12.000000000000
         C           -2.810703212277     1.834691623790     0.286287216262    12.000000000000
         C            2.884093787723     1.675056623790    -0.455560783738    12.000000000000
         H           -1.008429212277     1.595256623790    -0.903422783738     1.007825032230
         H           -2.262271212277     0.366139623790    -1.211095783738     1.007825032230
         H            1.319619787723     1.427598623790     1.025641216262     1.007825032230
         H            2.501471787723     0.099348623790     0.988919216262     1.007825032230
         H           -3.304009212277     2.511950623790    -0.417972783738     1.007825032230
         H           -3.569306212277     1.202434623790     0.754554216262     1.007825032230
         H           -2.323686212277     2.428755623790     1.066420216262     1.007825032230
         H            3.551639787723     2.247486623790     0.197777216262     1.007825032230
         H            3.490837787723     1.048812623790    -1.115699783738     1.007825032230
         H            2.312549787723     2.372582623790    -1.071016783738     1.007825032230
         H           -0.243052212277    -2.485391376210    -1.282833783738     1.007825032230

  Basis Set: AUG-CC-PVTZ
    Blend: AUG-CC-PVTZ
  Basis Set: (AUG-CC-PVTZ AUX)
    Blend: AUG-CC-PVTZ-JKFIT
	 Reference Energy          =    -798.3841833092394609 [Eh]
	 Singles Energy            =      -0.0000000000000000 [Eh]
	 Same-Spin Energy          =      -0.4893377388389931 [Eh]
	 Opposite-Spin Energy      =      -1.5358430638242568 [Eh]
	 Correlation Energy        =      -2.0251808026632498 [Eh]
	 Total Energy              =    -800.4093641119027325 [Eh]

	 ================> DF-SCS-MP2 Energies <==================
	-----------------------------------------------------------
	 SCS Same-Spin Scale       =       0.3333333333333333 [-]
	 SCS Opposite-Spin Scale   =       1.2000000000000000 [-]
	 SCS Same-Spin Energy      =      -0.1631125796129977 [Eh]
	 SCS Opposite-Spin Energy  =      -1.8430116765891080 [Eh]
	 SCS Correlation Energy    =      -2.0061242562021055 [Eh]
	 SCS Total Energy          =    -800.3903075654416170 [Eh]
	-----------------------------------------------------------

  Dipole Moment: [D]
     X:    -0.2715      Y:     2.2367      Z:    -2.6994     Total:     3.5162

*** Psi4 exiting successfully. Buy a developer a beer!
