                               Psi4 1.3.2 release

  ==> Input File <==

--------------------------------------------------------------------------
#psi4
#
memory 32 gb

molecule  {
0 1
  P       -0.0032580    -0.8671950     0.1253540
  O       -1.2149479     0.0763610     0.5813238
  O        1.1453959     0.0439632    -0.5570231
  O       -0.6066630    -1.5809190    -1.1923580
  O        0.4670770    -1.7625730     1.2055430
  C       -1.7907810     0.9929110    -0.4324270
  C        1.9592910     0.8227470     0.3828140
  C       -2.8068250     1.8392790     0.2947570
  C        2.8879720     1.6796440    -0.4470910
  H       -1.0045510     1.5998440    -0.8949530
  H       -2.2583930     0.3707270    -1.2026260
  H        1.3234980     1.4321860     1.0341110
  H        2.5053500     0.1039360     0.9973890
  H       -3.3001310     2.5165380    -0.4095030
  H       -3.5654280     1.2070220     0.7630240
  H       -2.3198080     2.4333430     1.0748900
  H        3.5555180     2.2520740     0.2062470
  H        3.4947160     1.0534000    -1.1072300
  H        2.3164280     2.3771700    -1.0625470
  H       -0.2391740    -2.4808040    -1.2743640
units angstrom
no_reorient  #important for SAPT in psi4, default
symmetry c1  #important for SAPT in psi4, default
}

set PROPERTIES_ORIGIN ["COM"]
properties('MP2/aug-cc-pvtz', properties = ['dipole'])
--------------------------------------------------------------------------

    Molecular point group: c1
  Charge       = 0
  Multiplicity = 1
  Basis Set: AUG-CC-PVTZ
    Blend: AUG-CC-PVTZ
  Basis Set: (AUG-CC-PVTZ AUX)
    Blend: AUG-CC-PVTZ-JKFIT

    Orbital Energies [Eh]
    ---------------------

    Doubly Occupied:

       1A    -80.101301     2A    -20.600973     3A    -20.594106
       4A    -20.592682     5A    -20.505269     6A    -11.306035
       7A    -11.301283     8A    -11.232385     9A    -11.231759
      10A     -7.617086    11A     -5.515630    12A     -5.514989
      13A     -5.514113    14A     -1.443478    15A     -1.375695
      16A     -1.373835    17A     -1.286193    18A     -1.042777
      19A     -1.035923    20A     -0.871387    21A     -0.864310
      22A     -0.812939    23A     -0.728748    24A     -0.712640
      25A     -0.680187    26A     -0.658016    27A     -0.648506
      28A     -0.617891    29A     -0.603114    30A     -0.576176
      31A     -0.565786    32A     -0.561518    33A     -0.544147
      34A     -0.540027    35A     -0.532678    36A     -0.522539
      37A     -0.506336    38A     -0.485099    39A     -0.483404
      40A     -0.460248    41A     -0.455969

  @DF-RHF Final Energy:  -798.38565127030745

   => Energetics <=

    Nuclear Repulsion Energy =            626.9451997662174563
    One-Electron Energy =               -2345.4273463747126698
    Two-Electron Energy =                 920.0964953381877649
    Total Energy =                       -798.3856512703074486
  Basis Set: (AUG-CC-PVTZ AUX)
    Blend: AUG-CC-PVTZ-RI
    Molecular point group: c1

    Geometry (in Angstrom), charge = 0, multiplicity = 1:

       Center              X                  Y                   Z               Mass
    ------------   -----------------  -----------------  -----------------  -----------------
         P           -0.003659373306    -0.857888913644     0.124259065233    30.973761998420
         O           -1.215349273306     0.085667086356     0.580228865233    15.994914619570
         O            1.144994526694     0.053269286356    -0.558118034767    15.994914619570
         O           -0.607064373306    -1.571612913644    -1.193452934767    15.994914619570
         O            0.466675626694    -1.753266913644     1.204448065233    15.994914619570
         C           -1.791182373306     1.002217086356    -0.433521934767    12.000000000000
         C            1.958889626694     0.832053086356     0.381719065233    12.000000000000
         C           -2.807226373306     1.848585086356     0.293662065233    12.000000000000
         C            2.887570626694     1.688950086356    -0.448185934767    12.000000000000
         H           -1.004952373306     1.609150086356    -0.896047934767     1.007825032230
         H           -2.258794373306     0.380033086356    -1.203720934767     1.007825032230
         H            1.323096626694     1.441492086356     1.033016065233     1.007825032230
         H            2.504948626694     0.113242086356     0.996294065233     1.007825032230
         H           -3.300532373306     2.525844086356    -0.410597934767     1.007825032230
         H           -3.565829373306     1.216328086356     0.761929065233     1.007825032230
         H           -2.320209373306     2.442649086356     1.073795065233     1.007825032230
         H            3.555116626694     2.261380086356     0.205152065233     1.007825032230
         H            3.494314626694     1.062706086356    -1.108324934767     1.007825032230
         H            2.316026626694     2.386476086356    -1.063641934767     1.007825032230
         H           -0.239575373306    -2.471497913644    -1.275458934767     1.007825032230

  Basis Set: AUG-CC-PVTZ
    Blend: AUG-CC-PVTZ
  Basis Set: (AUG-CC-PVTZ AUX)
    Blend: AUG-CC-PVTZ-JKFIT
	 Reference Energy          =    -798.3856512703074486 [Eh]
	 Singles Energy            =      -0.0000000000000000 [Eh]
	 Same-Spin Energy          =      -0.4898675334303795 [Eh]
	 Opposite-Spin Energy      =      -1.5388609999969798 [Eh]
	 Correlation Energy        =      -2.0287285334273593 [Eh]
	 Total Energy              =    -800.4143798037348461 [Eh]

	 ================> DF-SCS-MP2 Energies <==================
	-----------------------------------------------------------
	 SCS Same-Spin Scale       =       0.3333333333333333 [-]
	 SCS Opposite-Spin Scale   =       1.2000000000000000 [-]
	 SCS Same-Spin Energy      =      -0.1632891778101265 [Eh]
	 SCS Opposite-Spin Energy  =      -1.8466331999963757 [Eh]
	 SCS Correlation Energy    =      -2.0099223778065021 [Eh]
	 SCS Total Energy          =    -800.3955736481138956 [Eh]
	-----------------------------------------------------------

  Dipole Moment: [D]
     X:    -0.1110      Y:     2.9711      Z:    -2.2611     Total:     3.7352

*** Psi4 exiting successfully. Buy a developer a beer!
