                               Psi4 1.3.2 release

  ==> Input File <==

--------------------------------------------------------------------------
#psi4
#
memory 32 gb

molecule  {
0 1
  P       -0.0032580    -0.8671950     0.1253540
  O       -1.2606451     0.1820859     0.5888037
  O        1.1133490     0.0895100    -0.5478160
  O       -0.6066630    -1.5809190    -1.1923580
  O        0.4670770    -1.7625730     1.2055430
  C       -1.7907810     0.9929110    -0.4324270
  C        1.9592910     0.8227470     0.3828140
  C       -2.8068250     1.8392790     0.2947570
  C        2.8879720     1.6796440    -0.4470910
  H       -1.0045510     1.5998440    -0.8949530
  H       -2.2583930     0.3707270    -1.2026260
  H        1.3234980     1.4321860     1.0341110
  H        2.5053500     0.1039360     0.9973890
  H       -3.3001310     2.5165380    -0.4095030
  H       -3.5654280     1.2070220     0.7630240
  H       -2.3198080     2.4333430     1.0748900
  H        3.5555180     2.2520740     0.2062470
  H        3.4947160     1.0534000    -1.1072300
  H        2.3164280     2.3771700    -1.0625470
  H       -0.2391740    -2.4808040    -1.2743640
units angstrom
no_reorient  #important for SAPT in psi4, default
symmetry c1  #important for SAPT in psi4, default
}

set PROPERTIES_ORIGIN ["COM"]
properties('MP2/aug-cc-pvtz', properties = ['dipole'])
--------------------------------------------------------------------------

    Molecular point group: c1
  Charge       = 0
  Multiplicity = 1
  Basis Set: AUG-CC-PVTZ
    Blend: AUG-CC-PVTZ
  Basis Set: (AUG-CC-PVTZ AUX)
    Blend: AUG-CC-PVTZ-JKFIT

    Orbital Energies [Eh]
    ---------------------

    Doubly Occupied:

       1A    -80.117154     2A    -20.612467     3A    -20.598718
       4A    -20.590369     5A    -20.520558     6A    -11.302890
       7A    -11.288040     8A    -11.232868     9A    -11.221135
      10A     -7.631342    11A     -5.529797    12A     -5.529180
      13A     -5.528321    14A     -1.445118    15A     -1.385188
      16A     -1.376448    17A     -1.299756    18A     -1.041259
      19A     -1.023536    20A     -0.875249    21A     -0.854474
      22A     -0.818164    23A     -0.732490    24A     -0.713513
      25A     -0.682623    26A     -0.660999    27A     -0.655108
      28A     -0.623815    29A     -0.600801    30A     -0.578949
      31A     -0.569537    32A     -0.560668    33A     -0.542730
      34A     -0.537656    35A     -0.533593    36A     -0.517988
      37A     -0.503316    38A     -0.479372    39A     -0.473302
      40A     -0.467751    41A     -0.464956

  @DF-RHF Final Energy:  -798.37562251611791

   => Energetics <=

    Nuclear Repulsion Energy =            625.4350725307364200
    One-Electron Energy =               -2342.1789910094507832
    Two-Electron Energy =                 918.3682959625965623
    Total Energy =                       -798.3756225161179145
  Basis Set: (AUG-CC-PVTZ AUX)
    Blend: AUG-CC-PVTZ-RI
    Molecular point group: c1

    Geometry (in Angstrom), charge = 0, multiplicity = 1:

       Center              X                  Y                   Z               Mass
    ------------   -----------------  -----------------  -----------------  -----------------
         P            0.004413298154    -0.873596430166     0.122526346369    30.973761998420
         O           -1.252973801846     0.175684469834     0.585976046369    15.994914619570
         O            1.121020298154     0.083108569834    -0.550643653631    15.994914619570
         O           -0.598991701846    -1.587320430166    -1.195185653631    15.994914619570
         O            0.474748298154    -1.768974430166     1.202715346369    15.994914619570
         C           -1.783109701846     0.986509569834    -0.435254653631    12.000000000000
         C            1.966962298154     0.816345569834     0.379986346369    12.000000000000
         C           -2.799153701846     1.832877569834     0.291929346369    12.000000000000
         C            2.895643298154     1.673242569834    -0.449918653631    12.000000000000
         H           -0.996879701846     1.593442569834    -0.897780653631     1.007825032230
         H           -2.250721701846     0.364325569834    -1.205453653631     1.007825032230
         H            1.331169298154     1.425784569834     1.031283346369     1.007825032230
         H            2.513021298154     0.097534569834     0.994561346369     1.007825032230
         H           -3.292459701846     2.510136569834    -0.412330653631     1.007825032230
         H           -3.557756701846     1.200620569834     0.760196346369     1.007825032230
         H           -2.312136701846     2.426941569834     1.072062346369     1.007825032230
         H            3.563189298154     2.245672569834     0.203419346369     1.007825032230
         H            3.502387298154     1.046998569834    -1.110057653631     1.007825032230
         H            2.324099298154     2.370768569834    -1.065374653631     1.007825032230
         H           -0.231502701846    -2.487205430166    -1.277191653631     1.007825032230

  Basis Set: AUG-CC-PVTZ
    Blend: AUG-CC-PVTZ
  Basis Set: (AUG-CC-PVTZ AUX)
    Blend: AUG-CC-PVTZ-JKFIT
	 Reference Energy          =    -798.3756225161179145 [Eh]
	 Singles Energy            =      -0.0000000000000000 [Eh]
	 Same-Spin Energy          =      -0.4911051328311131 [Eh]
	 Opposite-Spin Energy      =      -1.5411923529074674 [Eh]
	 Correlation Energy        =      -2.0322974857385803 [Eh]
	 Total Energy              =    -800.4079200018564961 [Eh]

	 ================> DF-SCS-MP2 Energies <==================
	-----------------------------------------------------------
	 SCS Same-Spin Scale       =       0.3333333333333333 [-]
	 SCS Opposite-Spin Scale   =       1.2000000000000000 [-]
	 SCS Same-Spin Energy      =      -0.1637017109437043 [Eh]
	 SCS Opposite-Spin Energy  =      -1.8494308234889607 [Eh]
	 SCS Correlation Energy    =      -2.0131325344326649 [Eh]
	 SCS Total Energy          =    -800.3887550505505715 [Eh]
	-----------------------------------------------------------

  Dipole Moment: [D]
     X:     0.5446      Y:     2.1778      Z:    -2.2135     Total:     3.1526

*** Psi4 exiting successfully. Buy a developer a beer!
