                               Psi4 1.3.2 release

  ==> Input File <==

--------------------------------------------------------------------------
#psi4
#
memory 32 gb

molecule  {
0 1
  P       -0.0024540    -0.8719314     0.1384827
  O       -1.1867680     0.1204360     0.5615740
  O        1.1133490     0.0895100    -0.5478160
  O       -0.6066630    -1.5809190    -1.1923580
  O        0.4670770    -1.7625730     1.2055430
  C       -1.7985476     0.9975676    -0.4235393
  C        1.9592910     0.8227470     0.3828140
  C       -2.8068250     1.8392790     0.2947570
  C        2.8879720     1.6796440    -0.4470910
  H       -1.0045510     1.5998440    -0.8949530
  H       -2.2583930     0.3707270    -1.2026260
  H        1.3234980     1.4321860     1.0341110
  H        2.5053500     0.1039360     0.9973890
  H       -3.3001310     2.5165380    -0.4095030
  H       -3.5654280     1.2070220     0.7630240
  H       -2.3198080     2.4333430     1.0748900
  H        3.5555180     2.2520740     0.2062470
  H        3.4947160     1.0534000    -1.1072300
  H        2.3164280     2.3771700    -1.0625470
  H       -0.2391740    -2.4808040    -1.2743640
units angstrom
no_reorient  #important for SAPT in psi4, default
symmetry c1  #important for SAPT in psi4, default
}

set PROPERTIES_ORIGIN ["COM"]
properties('MP2/aug-cc-pvtz', properties = ['dipole'])
--------------------------------------------------------------------------

    Molecular point group: c1
  Charge       = 0
  Multiplicity = 1
  Basis Set: AUG-CC-PVTZ
    Blend: AUG-CC-PVTZ
  Basis Set: (AUG-CC-PVTZ AUX)
    Blend: AUG-CC-PVTZ-JKFIT

    Orbital Energies [Eh]
    ---------------------

    Doubly Occupied:

       1A    -80.103842     2A    -20.602711     3A    -20.590560
       4A    -20.589017     5A    -20.513843     6A    -11.301778
       7A    -11.298292     8A    -11.229869     9A    -11.229594
      10A     -7.619634    11A     -5.518123    12A     -5.517613
      13A     -5.516727    14A     -1.444732    15A     -1.376688
      16A     -1.374599    17A     -1.299084    18A     -1.043166
      19A     -1.033586    20A     -0.871924    21A     -0.862796
      22A     -0.810720    23A     -0.728230    24A     -0.714096
      25A     -0.681050    26A     -0.656395    27A     -0.650627
      28A     -0.617870    29A     -0.605775    30A     -0.575455
      31A     -0.567294    32A     -0.562616    33A     -0.545772
      34A     -0.538270    35A     -0.533081    36A     -0.520445
      37A     -0.504037    38A     -0.480545    39A     -0.477242
      40A     -0.469745    41A     -0.463733

  @DF-RHF Final Energy:  -798.38821010390643

   => Energetics <=

    Nuclear Repulsion Energy =            627.9381659681722567
    One-Electron Energy =               -2347.3703948202128231
    Two-Electron Energy =                 921.0440187481342491
    Total Energy =                       -798.3882101039064310
  Basis Set: (AUG-CC-PVTZ AUX)
    Blend: AUG-CC-PVTZ-RI
    Molecular point group: c1

    Geometry (in Angstrom), charge = 0, multiplicity = 1:

       Center              X                  Y                   Z               Mass
    ------------   -----------------  -----------------  -----------------  -----------------
         P           -0.002010469020    -0.871341702292     0.135150234911    30.973761998420
         O           -1.186324469020     0.121025697708     0.558241534911    15.994914619570
         O            1.113792530980     0.090099697708    -0.551148465089    15.994914619570
         O           -0.606219469020    -1.580329302292    -1.195690465089    15.994914619570
         O            0.467520530980    -1.761983302292     1.202210534911    15.994914619570
         C           -1.798104069020     0.998157297708    -0.426871765089    12.000000000000
         C            1.959734530980     0.823336697708     0.379481534911    12.000000000000
         C           -2.806381469020     1.839868697708     0.291424534911    12.000000000000
         C            2.888415530980     1.680233697708    -0.450423465089    12.000000000000
         H           -1.004107469020     1.600433697708    -0.898285465089     1.007825032230
         H           -2.257949469020     0.371316697708    -1.205958465089     1.007825032230
         H            1.323941530980     1.432775697708     1.030778534911     1.007825032230
         H            2.505793530980     0.104525697708     0.994056534911     1.007825032230
         H           -3.299687469020     2.517127697708    -0.412835465089     1.007825032230
         H           -3.564984469020     1.207611697708     0.759691534911     1.007825032230
         H           -2.319364469020     2.433932697708     1.071557534911     1.007825032230
         H            3.555961530980     2.252663697708     0.202914534911     1.007825032230
         H            3.495159530980     1.053989697708    -1.110562465089     1.007825032230
         H            2.316871530980     2.377759697708    -1.065879465089     1.007825032230
         H           -0.238730469020    -2.480214302292    -1.277696465089     1.007825032230

  Basis Set: AUG-CC-PVTZ
    Blend: AUG-CC-PVTZ
  Basis Set: (AUG-CC-PVTZ AUX)
    Blend: AUG-CC-PVTZ-JKFIT
	 Reference Energy          =    -798.3882101039064310 [Eh]
	 Singles Energy            =      -0.0000000000000000 [Eh]
	 Same-Spin Energy          =      -0.4896809348480528 [Eh]
	 Opposite-Spin Energy      =      -1.5379440931428521 [Eh]
	 Correlation Energy        =      -2.0276250279909047 [Eh]
	 Total Energy              =    -800.4158351318973246 [Eh]

	 ================> DF-SCS-MP2 Energies <==================
	-----------------------------------------------------------
	 SCS Same-Spin Scale       =       0.3333333333333333 [-]
	 SCS Opposite-Spin Scale   =       1.2000000000000000 [-]
	 SCS Same-Spin Energy      =      -0.1632269782826843 [Eh]
	 SCS Opposite-Spin Energy  =      -1.8455329117714223 [Eh]
	 SCS Correlation Energy    =      -2.0087598900541064 [Eh]
	 SCS Total Energy          =    -800.3969699939605107 [Eh]
	-----------------------------------------------------------

  Dipole Moment: [D]
     X:    -0.0831      Y:     2.6056      Z:    -2.0852     Total:     3.3382

*** Psi4 exiting successfully. Buy a developer a beer!
