                               Psi4 1.3.2 release

  ==> Input File <==

--------------------------------------------------------------------------
#psi4
#
memory 32 gb

molecule  {
0 1
  P       -0.0041521    -0.8623834     0.1122586
  O       -1.1867680     0.1204360     0.5615740
  O        1.1133490     0.0895100    -0.5478160
  O       -0.6066630    -1.5809190    -1.1923580
  O        0.4670770    -1.7625730     1.2055430
  C       -1.7829684     0.9881880    -0.4412390
  C        1.9592910     0.8227470     0.3828140
  C       -2.8068250     1.8392790     0.2947570
  C        2.8879720     1.6796440    -0.4470910
  H       -1.0045510     1.5998440    -0.8949530
  H       -2.2583930     0.3707270    -1.2026260
  H        1.3234980     1.4321860     1.0341110
  H        2.5053500     0.1039360     0.9973890
  H       -3.3001310     2.5165380    -0.4095030
  H       -3.5654280     1.2070220     0.7630240
  H       -2.3198080     2.4333430     1.0748900
  H        3.5555180     2.2520740     0.2062470
  H        3.4947160     1.0534000    -1.1072300
  H        2.3164280     2.3771700    -1.0625470
  H       -0.2391740    -2.4808040    -1.2743640
units angstrom
no_reorient  #important for SAPT in psi4, default
symmetry c1  #important for SAPT in psi4, default
}

set PROPERTIES_ORIGIN ["COM"]
properties('MP2/aug-cc-pvtz', properties = ['dipole'])
--------------------------------------------------------------------------

    Molecular point group: c1
  Charge       = 0
  Multiplicity = 1
  Basis Set: AUG-CC-PVTZ
    Blend: AUG-CC-PVTZ
  Basis Set: (AUG-CC-PVTZ AUX)
    Blend: AUG-CC-PVTZ-JKFIT

    Orbital Energies [Eh]
    ---------------------

    Doubly Occupied:

       1A    -80.104265     2A    -20.606703     3A    -20.591771
       4A    -20.591697     5A    -20.508045     6A    -11.300975
       7A    -11.300151     8A    -11.231041     9A    -11.230383
      10A     -7.619765    11A     -5.518346    12A     -5.517831
      13A     -5.516666    14A     -1.449476    15A     -1.382740
      16A     -1.378913    17A     -1.283325    18A     -1.041073
      19A     -1.033021    20A     -0.874265    21A     -0.865209
      22A     -0.815338    23A     -0.733769    24A     -0.716179
      25A     -0.683494    26A     -0.659891    27A     -0.652404
      28A     -0.620000    29A     -0.605402    30A     -0.578109
      31A     -0.563862    32A     -0.562026    33A     -0.544018
      34A     -0.540407    35A     -0.535040    36A     -0.518683
      37A     -0.503344    38A     -0.482836    39A     -0.480308
      40A     -0.460351    41A     -0.456327

  @DF-RHF Final Energy:  -798.38831579946918

   => Energetics <=

    Nuclear Repulsion Energy =            628.2959673735065280
    One-Electron Energy =               -2348.0536684303888251
    Two-Electron Energy =                 921.3693852574131142
    Total Energy =                       -798.3883157994691828
  Basis Set: (AUG-CC-PVTZ AUX)
    Blend: AUG-CC-PVTZ-RI
    Molecular point group: c1

    Geometry (in Angstrom), charge = 0, multiplicity = 1:

       Center              X                  Y                   Z               Mass
    ------------   -----------------  -----------------  -----------------  -----------------
         P           -0.004580772958    -0.862982892626     0.115578035623    30.973761998420
         O           -1.187196672958     0.119836507374     0.564893435623    15.994914619570
         O            1.112920327042     0.088910507374    -0.544496564377    15.994914619570
         O           -0.607091672958    -1.581518492626    -1.189038564377    15.994914619570
         O            0.466648327042    -1.763172492626     1.208862435623    15.994914619570
         C           -1.783397072958     0.987588507374    -0.437919564377    12.000000000000
         C            1.958862327042     0.822147507374     0.386133435623    12.000000000000
         C           -2.807253672958     1.838679507374     0.298076435623    12.000000000000
         C            2.887543327042     1.679044507374    -0.443771564377    12.000000000000
         H           -1.004979672958     1.599244507374    -0.891633564377     1.007825032230
         H           -2.258821672958     0.370127507374    -1.199306564377     1.007825032230
         H            1.323069327042     1.431586507374     1.037430435623     1.007825032230
         H            2.504921327042     0.103336507374     1.000708435623     1.007825032230
         H           -3.300559672958     2.515938507374    -0.406183564377     1.007825032230
         H           -3.565856672958     1.206422507374     0.766343435623     1.007825032230
         H           -2.320236672958     2.432743507374     1.078209435623     1.007825032230
         H            3.555089327042     2.251474507374     0.209566435623     1.007825032230
         H            3.494287327042     1.052800507374    -1.103910564377     1.007825032230
         H            2.315999327042     2.376570507374    -1.059227564377     1.007825032230
         H           -0.239602672958    -2.481403492626    -1.271044564377     1.007825032230

  Basis Set: AUG-CC-PVTZ
    Blend: AUG-CC-PVTZ
  Basis Set: (AUG-CC-PVTZ AUX)
    Blend: AUG-CC-PVTZ-JKFIT
	 Reference Energy          =    -798.3883157994691828 [Eh]
	 Singles Energy            =      -0.0000000000000000 [Eh]
	 Same-Spin Energy          =      -0.4897405617281029 [Eh]
	 Opposite-Spin Energy      =      -1.5380008083680927 [Eh]
	 Correlation Energy        =      -2.0277413700961957 [Eh]
	 Total Energy              =    -800.4160571695654198 [Eh]

	 ================> DF-SCS-MP2 Energies <==================
	-----------------------------------------------------------
	 SCS Same-Spin Scale       =       0.3333333333333333 [-]
	 SCS Opposite-Spin Scale   =       1.2000000000000000 [-]
	 SCS Same-Spin Energy      =      -0.1632468539093676 [Eh]
	 SCS Opposite-Spin Energy  =      -1.8456009700417111 [Eh]
	 SCS Correlation Energy    =      -2.0088478239510787 [Eh]
	 SCS Total Energy          =    -800.3971636234202833 [Eh]
	-----------------------------------------------------------

  Dipole Moment: [D]
     X:    -0.0448      Y:     2.6949      Z:    -2.3399     Total:     3.5692

*** Psi4 exiting successfully. Buy a developer a beer!
