                               Psi4 1.4a3.dev225

  ==> Input File <==

--------------------------------------------------------------------------
#psi4
#
memory 32 gb

molecule  {
0 1
  P       -0.0193980    -0.9573280    -0.1096150
  O        1.2162340    -0.0269160    -0.5415020
  O       -1.1156210     0.0613730     0.5053800
  O        0.5163150    -1.6599550     1.2462920
  O       -0.5025291    -1.8720862    -1.1947096
  C        1.8380650     0.8393470     0.4463000
  C       -1.9139900     0.7949960    -0.4653280
  C        2.8342980     1.7043970    -0.2898420
  C       -2.8451070     1.6924310     0.3153960
  H        1.0624120     1.4376840     0.9337170
  H        2.3223620     0.2121780     1.1993520
  H       -1.2444800     1.3745780    -1.1102950
  H       -2.4582310     0.0769500    -1.0841060
  H        3.3419030     2.3695990     0.4147870
  H        3.5818500     1.0824000    -0.7858930
  H        2.3288000     2.3113610    -1.0437700
  H       -3.4753290     2.2644580    -0.3716610
  H       -3.4879190     1.0956960     0.9656320
  H       -2.2756200     2.3909680     0.9321420
  H        0.1488640    -2.5599310     1.3156750
units angstrom
no_reorient  #important for SAPT in psi4, default
symmetry c1  #important for SAPT in psi4, default
}

set PROPERTIES_ORIGIN ["COM"]
properties('MP2/aug-cc-pvtz', properties = ['dipole'])
--------------------------------------------------------------------------

    Molecular point group: c1
  Charge       = 0
  Multiplicity = 1
  Basis Set: AUG-CC-PVTZ
    Blend: AUG-CC-PVTZ
  Basis Set: (AUG-CC-PVTZ AUX)
    Blend: AUG-CC-PVTZ-JKFIT

    Orbital Energies [Eh]
    ---------------------

    Doubly Occupied:

       1A    -80.108714     2A    -20.606358     3A    -20.592286
       4A    -20.591742     5A    -20.512112     6A    -11.301476
       7A    -11.299354     8A    -11.230148     9A    -11.230109
      10A     -7.623344    11A     -5.521953    12A     -5.521451
      13A     -5.520194    14A     -1.446240    15A     -1.380190
      16A     -1.377626    17A     -1.283485    18A     -1.042170
      19A     -1.034237    20A     -0.874098    21A     -0.864828
      22A     -0.813725    23A     -0.730384    24A     -0.715564
      25A     -0.683720    26A     -0.657886    27A     -0.652055
      28A     -0.618550    29A     -0.606180    30A     -0.576927
      31A     -0.565065    32A     -0.563179    33A     -0.544192
      34A     -0.539776    35A     -0.535279    36A     -0.518811
      37A     -0.503402    38A     -0.480973    39A     -0.479242
      40A     -0.461880    41A     -0.457824

  @DF-RHF Final Energy:  -798.38629303764674

   => Energetics <=

    Nuclear Repulsion Energy =            626.6675633853491263
    One-Electron Energy =               -2344.7742615092361120
    Two-Electron Energy =                 919.7204050862401346
    Total Energy =                       -798.3862930376467375
  Basis Set: (AUG-CC-PVTZ AUX)
    Blend: AUG-CC-PVTZ-RI
    Molecular point group: c1

    Geometry (in Angstrom), charge = 0, multiplicity = 1:

       Center              X                  Y                   Z               Mass
    ------------   -----------------  -----------------  -----------------  -----------------
         P           -0.019602880486    -0.872471326828    -0.098622212554    30.973761998420
         O            1.216029119514     0.057940673172    -0.530509212554    15.994914619570
         O           -1.115825880486     0.146229673172     0.516372787446    15.994914619570
         O            0.516110119514    -1.575098326828     1.257284787446    15.994914619570
         O           -0.502733980486    -1.787229526828    -1.183716812554    15.994914619570
         C            1.837860119514     0.924203673172     0.457292787446    12.000000000000
         C           -1.914194880486     0.879852673172    -0.454335212554    12.000000000000
         C            2.834093119514     1.789253673172    -0.278849212554    12.000000000000
         C           -2.845311880486     1.777287673172     0.326388787446    12.000000000000
         H            1.062207119514     1.522540673172     0.944709787446     1.007825032230
         H            2.322157119514     0.297034673172     1.210344787446     1.007825032230
         H           -1.244684880486     1.459434673172    -1.099302212554     1.007825032230
         H           -2.458435880486     0.161806673172    -1.073113212554     1.007825032230
         H            3.341698119514     2.454455673172     0.425779787446     1.007825032230
         H            3.581645119514     1.167256673172    -0.774900212554     1.007825032230
         H            2.328595119514     2.396217673172    -1.032777212554     1.007825032230
         H           -3.475533880486     2.349314673172    -0.360668212554     1.007825032230
         H           -3.488123880486     1.180552673172     0.976624787446     1.007825032230
         H           -2.275824880486     2.475824673172     0.943134787446     1.007825032230
         H            0.148659119514    -2.475074326828     1.326667787446     1.007825032230

  Basis Set: AUG-CC-PVTZ
    Blend: AUG-CC-PVTZ
  Basis Set: (AUG-CC-PVTZ AUX)
    Blend: AUG-CC-PVTZ-JKFIT
	 Reference Energy          =    -798.3862930376467375 [Eh]
	 Singles Energy            =      -0.0000000000000000 [Eh]
	 Same-Spin Energy          =      -0.4901405206099954 [Eh]
	 Opposite-Spin Energy      =      -1.5390590496520775 [Eh]
	 Correlation Energy        =      -2.0291995702620729 [Eh]
	 Total Energy              =    -800.4154926079088455 [Eh]

	 ================> DF-SCS-MP2 Energies <==================
	-----------------------------------------------------------
	 SCS Same-Spin Scale       =       0.3333333333333333 [-]
	 SCS Opposite-Spin Scale   =       1.2000000000000000 [-]
	 SCS Same-Spin Energy      =      -0.1633801735366651 [Eh]
	 SCS Opposite-Spin Energy  =      -1.8468708595824930 [Eh]
	 SCS Correlation Energy    =      -2.0102510331191579 [Eh]
	 SCS Total Energy          =    -800.3965440707659127 [Eh]
	-----------------------------------------------------------

  Dipole Moment: [D]
     X:     0.1718      Y:     2.7262      Z:     2.1685     Total:     3.4877

*** Psi4 exiting successfully. Buy a developer a beer!
