                               Psi4 1.3.2 release

  ==> Input File <==

--------------------------------------------------------------------------
#psi4
#
memory 32 gb

molecule  {
0 1
  P       -0.0032580    -0.8671950     0.1253540
  O       -1.1867680     0.1204360     0.5615740
  O        1.1133490     0.0895100    -0.5478160
  O       -0.6066630    -1.5809190    -1.1923580
  O        0.4670770    -1.7625730     1.2055430
  C       -1.7907810     0.9929110    -0.4324270
  C        1.9592910     0.8227470     0.3828140
  C       -2.8068250     1.8392790     0.2947570
  C        2.8879720     1.6796440    -0.4470910
  H       -1.0045510     1.5998440    -0.8949530
  H       -2.2583930     0.3707270    -1.2026260
  H        1.3815417     1.3765483     0.9746519
  H        2.5053500     0.1039360     0.9973890
  H       -3.3001310     2.5165380    -0.4095030
  H       -3.5654280     1.2070220     0.7630240
  H       -2.3198080     2.4333430     1.0748900
  H        3.5555180     2.2520740     0.2062470
  H        3.4947160     1.0534000    -1.1072300
  H        2.3164280     2.3771700    -1.0625470
  H       -0.2391740    -2.4808040    -1.2743640
units angstrom
no_reorient  #important for SAPT in psi4, default
symmetry c1  #important for SAPT in psi4, default
}

set PROPERTIES_ORIGIN ["COM"]
properties('MP2/aug-cc-pvtz', properties = ['dipole'])
--------------------------------------------------------------------------

    Molecular point group: c1
  Charge       = 0
  Multiplicity = 1
  Basis Set: AUG-CC-PVTZ
    Blend: AUG-CC-PVTZ
  Basis Set: (AUG-CC-PVTZ AUX)
    Blend: AUG-CC-PVTZ-JKFIT

    Orbital Energies [Eh]
    ---------------------

    Doubly Occupied:

       1A    -80.103782     2A    -20.604455     3A    -20.591240
       4A    -20.589074     5A    -20.510879     6A    -11.301449
       7A    -11.286971     8A    -11.230085     9A    -11.229670
      10A     -7.619410    11A     -5.517954    12A     -5.517430
      13A     -5.516406    14A     -1.446788    15A     -1.379260
      16A     -1.376811    17A     -1.291148    18A     -1.044102
      19A     -1.035892    20A     -0.877683    21A     -0.866052
      22A     -0.817525    23A     -0.732246    24A     -0.715043
      25A     -0.686676    26A     -0.660998    27A     -0.653059
      28A     -0.618485    29A     -0.605887    30A     -0.576479
      31A     -0.565447    32A     -0.562064    33A     -0.545267
      34A     -0.539881    35A     -0.534223    36A     -0.521913
      37A     -0.503508    38A     -0.485401    39A     -0.479805
      40A     -0.465239    41A     -0.460308

  @DF-RHF Final Energy:  -798.38309437686746

   => Energetics <=

    Nuclear Repulsion Energy =            628.5925662538137431
    One-Electron Energy =               -2348.6193271298880063
    Two-Electron Energy =                 921.6436664992066881
    Total Energy =                       -798.3830943768674615
  Basis Set: (AUG-CC-PVTZ AUX)
    Blend: AUG-CC-PVTZ-RI
    Molecular point group: c1

    Geometry (in Angstrom), charge = 0, multiplicity = 1:

       Center              X                  Y                   Z               Mass
    ------------   -----------------  -----------------  -----------------  -----------------
         P           -0.003637596806    -0.866830905857     0.125742801301    30.973761998420
         O           -1.187147596806     0.120800094143     0.561962801301    15.994914619570
         O            1.112969403194     0.089874094143    -0.547427198699    15.994914619570
         O           -0.607042596806    -1.580554905857    -1.191969198699    15.994914619570
         O            0.466697403194    -1.762208905857     1.205931801301    15.994914619570
         C           -1.791160596806     0.993275094143    -0.432038198699    12.000000000000
         C            1.958911403194     0.823111094143     0.383202801301    12.000000000000
         C           -2.807204596806     1.839643094143     0.295145801301    12.000000000000
         C            2.887592403194     1.680008094143    -0.446702198699    12.000000000000
         H           -1.004930596806     1.600208094143    -0.894564198699     1.007825032230
         H           -2.258772596806     0.371091094143    -1.202237198699     1.007825032230
         H            1.381162103194     1.376912394143     0.975040701301     1.007825032230
         H            2.504970403194     0.104300094143     0.997777801301     1.007825032230
         H           -3.300510596806     2.516902094143    -0.409114198699     1.007825032230
         H           -3.565807596806     1.207386094143     0.763412801301     1.007825032230
         H           -2.320187596806     2.433707094143     1.075278801301     1.007825032230
         H            3.555138403194     2.252438094143     0.206635801301     1.007825032230
         H            3.494336403194     1.053764094143    -1.106841198699     1.007825032230
         H            2.316048403194     2.377534094143    -1.062158198699     1.007825032230
         H           -0.239553596806    -2.480439905857    -1.273975198699     1.007825032230

  Basis Set: AUG-CC-PVTZ
    Blend: AUG-CC-PVTZ
  Basis Set: (AUG-CC-PVTZ AUX)
    Blend: AUG-CC-PVTZ-JKFIT
	 Reference Energy          =    -798.3830943768674615 [Eh]
	 Singles Energy            =      -0.0000000000000000 [Eh]
	 Same-Spin Energy          =      -0.4895892210259974 [Eh]
	 Opposite-Spin Energy      =      -1.5373552836847062 [Eh]
	 Correlation Energy        =      -2.0269445047107038 [Eh]
	 Total Energy              =    -800.4100388815782026 [Eh]

	 ================> DF-SCS-MP2 Energies <==================
	-----------------------------------------------------------
	 SCS Same-Spin Scale       =       0.3333333333333333 [-]
	 SCS Opposite-Spin Scale   =       1.2000000000000000 [-]
	 SCS Same-Spin Energy      =      -0.1631964070086658 [Eh]
	 SCS Opposite-Spin Energy  =      -1.8448263404216474 [Eh]
	 SCS Correlation Energy    =      -2.0080227474303132 [Eh]
	 SCS Total Energy          =    -800.3911171242978071 [Eh]
	-----------------------------------------------------------

  Dipole Moment: [D]
     X:    -0.0741      Y:     2.6756      Z:    -2.1771     Total:     3.4502

*** Psi4 exiting successfully. Buy a developer a beer!
