                               Psi4 1.3.2 release

  ==> Input File <==

--------------------------------------------------------------------------
#psi4
#
memory 32 gb

molecule  {
0 1
  P       -0.0032580    -0.8671950     0.1253540
  O       -1.1982096     0.1156404     0.5642363
  O        1.1133490     0.0895100    -0.5478160
  O       -0.6066630    -1.5809190    -1.1923580
  O        0.4670770    -1.7625730     1.2055430
  C       -1.7907810     0.9929110    -0.4324270
  C        1.9592910     0.8227470     0.3828140
  C       -2.8068250     1.8392790     0.2947570
  C        2.8879720     1.6796440    -0.4470910
  H       -1.0111184     1.6040759    -0.9004647
  H       -2.2583930     0.3707270    -1.2026260
  H        1.3234980     1.4321860     1.0341110
  H        2.5053500     0.1039360     0.9973890
  H       -3.3001310     2.5165380    -0.4095030
  H       -3.5654280     1.2070220     0.7630240
  H       -2.3198080     2.4333430     1.0748900
  H        3.5555180     2.2520740     0.2062470
  H        3.4947160     1.0534000    -1.1072300
  H        2.3164280     2.3771700    -1.0625470
  H       -0.2391740    -2.4808040    -1.2743640
units angstrom
no_reorient  #important for SAPT in psi4, default
symmetry c1  #important for SAPT in psi4, default
}

set PROPERTIES_ORIGIN ["COM"]
properties('MP2/aug-cc-pvtz', properties = ['dipole'])
--------------------------------------------------------------------------

    Molecular point group: c1
  Charge       = 0
  Multiplicity = 1
  Basis Set: AUG-CC-PVTZ
    Blend: AUG-CC-PVTZ
  Basis Set: (AUG-CC-PVTZ AUX)
    Blend: AUG-CC-PVTZ-JKFIT

    Orbital Energies [Eh]
    ---------------------

    Doubly Occupied:

       1A    -80.104829     2A    -20.604814     3A    -20.591459
       4A    -20.591383     5A    -20.511297     6A    -11.300778
       7A    -11.299688     8A    -11.230777     9A    -11.229453
      10A     -7.620343    11A     -5.518873    12A     -5.518350
      13A     -5.517345    14A     -1.446477    15A     -1.379258
      16A     -1.377022    17A     -1.291518    18A     -1.041377
      19A     -1.033680    20A     -0.872965    21A     -0.863423
      22A     -0.813376    23A     -0.730957    24A     -0.715077
      25A     -0.681917    26A     -0.658019    27A     -0.651557
      28A     -0.619273    29A     -0.604893    30A     -0.576759
      31A     -0.565613    32A     -0.562192    33A     -0.544489
      34A     -0.539398    35A     -0.534328    36A     -0.519546
      37A     -0.503898    38A     -0.480922    39A     -0.479341
      40A     -0.465317    41A     -0.460761

  @DF-RHF Final Energy:  -798.38819671485612

   => Energetics <=

    Nuclear Repulsion Energy =            627.8119423176931377
    One-Electron Energy =               -2347.0947970128263478
    Two-Electron Energy =                 920.8946579802770884
    Total Energy =                       -798.3881967148561216
  Basis Set: (AUG-CC-PVTZ AUX)
    Blend: AUG-CC-PVTZ-RI
    Molecular point group: c1

    Geometry (in Angstrom), charge = 0, multiplicity = 1:

       Center              X                  Y                   Z               Mass
    ------------   -----------------  -----------------  -----------------  -----------------
         P           -0.002026814470    -0.866724653036     0.125113399076    30.973761998420
         O           -1.196978414470     0.116110746964     0.563995699076    15.994914619570
         O            1.114580185530     0.089980346964    -0.548056600924    15.994914619570
         O           -0.605431814470    -1.580448653036    -1.192598600924    15.994914619570
         O            0.468308185530    -1.762102653036     1.205302399076    15.994914619570
         C           -1.789549814470     0.993381346964    -0.432667600924    12.000000000000
         C            1.960522185530     0.823217346964     0.382573399076    12.000000000000
         C           -2.805593814470     1.839749346964     0.294516399076    12.000000000000
         C            2.889203185530     1.680114346964    -0.447331600924    12.000000000000
         H           -1.009887214470     1.604546246964    -0.900705300924     1.007825032230
         H           -2.257161814470     0.371197346964    -1.202866600924     1.007825032230
         H            1.324729185530     1.432656346964     1.033870399076     1.007825032230
         H            2.506581185530     0.104406346964     0.997148399076     1.007825032230
         H           -3.298899814470     2.517008346964    -0.409743600924     1.007825032230
         H           -3.564196814470     1.207492346964     0.762783399076     1.007825032230
         H           -2.318576814470     2.433813346964     1.074649399076     1.007825032230
         H            3.556749185530     2.252544346964     0.206006399076     1.007825032230
         H            3.495947185530     1.053870346964    -1.107470600924     1.007825032230
         H            2.317659185530     2.377640346964    -1.062787600924     1.007825032230
         H           -0.237942814470    -2.480333653036    -1.274604600924     1.007825032230

  Basis Set: AUG-CC-PVTZ
    Blend: AUG-CC-PVTZ
  Basis Set: (AUG-CC-PVTZ AUX)
    Blend: AUG-CC-PVTZ-JKFIT
	 Reference Energy          =    -798.3881967148561216 [Eh]
	 Singles Energy            =      -0.0000000000000000 [Eh]
	 Same-Spin Energy          =      -0.4897922596307262 [Eh]
	 Opposite-Spin Energy      =      -1.5382128324653306 [Eh]
	 Correlation Energy        =      -2.0280050920960568 [Eh]
	 Total Energy              =    -800.4162018069521309 [Eh]

	 ================> DF-SCS-MP2 Energies <==================
	-----------------------------------------------------------
	 SCS Same-Spin Scale       =       0.3333333333333333 [-]
	 SCS Opposite-Spin Scale   =       1.2000000000000000 [-]
	 SCS Same-Spin Energy      =      -0.1632640865435754 [Eh]
	 SCS Opposite-Spin Energy  =      -1.8458553989583966 [Eh]
	 SCS Correlation Energy    =      -2.0091194855019721 [Eh]
	 SCS Total Energy          =    -800.3973162003580910 [Eh]
	-----------------------------------------------------------

  Dipole Moment: [D]
     X:    -0.0090      Y:     2.6462      Z:    -2.2189     Total:     3.4534

*** Psi4 exiting successfully. Buy a developer a beer!
