                               Psi4 1.3.2 release

  ==> Input File <==

--------------------------------------------------------------------------
#psi4
#
memory 32 gb

molecule  {
0 1
  P       -0.0032580    -0.8671950     0.1253540
  O       -1.1794518     0.1153206     0.5525573
  O        1.1133490     0.0895100    -0.5478160
  O       -0.6066630    -1.5809190    -1.1923580
  O        0.4670770    -1.7625730     1.2055430
  C       -1.7907810     0.9929110    -0.4324270
  C        1.9592910     0.8227470     0.3828140
  C       -2.8098426     1.8452846     0.2834315
  C        2.8879720     1.6796440    -0.4470910
  H       -1.0045510     1.5998440    -0.8949530
  H       -2.2583930     0.3707270    -1.2026260
  H        1.3234980     1.4321860     1.0341110
  H        2.5053500     0.1039360     0.9973890
  H       -3.3001310     2.5165380    -0.4095030
  H       -3.5654280     1.2070220     0.7630240
  H       -2.3198080     2.4333430     1.0748900
  H        3.5555180     2.2520740     0.2062470
  H        3.4947160     1.0534000    -1.1072300
  H        2.3164280     2.3771700    -1.0625470
  H       -0.2391740    -2.4808040    -1.2743640
units angstrom
no_reorient  #important for SAPT in psi4, default
symmetry c1  #important for SAPT in psi4, default
}

set PROPERTIES_ORIGIN ["COM"]
properties('MP2/aug-cc-pvtz', properties = ['dipole'])
--------------------------------------------------------------------------

    Molecular point group: c1
  Charge       = 0
  Multiplicity = 1
  Basis Set: AUG-CC-PVTZ
    Blend: AUG-CC-PVTZ
  Basis Set: (AUG-CC-PVTZ AUX)
    Blend: AUG-CC-PVTZ-JKFIT

    Orbital Energies [Eh]
    ---------------------

    Doubly Occupied:

       1A    -80.102867     2A    -20.603784     3A    -20.591282
       4A    -20.589410     5A    -20.510466     6A    -11.302296
       7A    -11.298855     8A    -11.230818     9A    -11.230190
      10A     -7.618677    11A     -5.517241    12A     -5.516727
      13A     -5.515656    14A     -1.448106    15A     -1.379764
      16A     -1.377142    17A     -1.290788    18A     -1.042572
      19A     -1.033937    20A     -0.873708    21A     -0.864726
      22A     -0.812436    23A     -0.731132    24A     -0.715867
      25A     -0.682303    26A     -0.657662    27A     -0.651101
      28A     -0.618648    29A     -0.606712    30A     -0.576422
      31A     -0.567417    32A     -0.562195    33A     -0.546503
      34A     -0.539217    35A     -0.533483    36A     -0.519497
      37A     -0.503033    38A     -0.480877    39A     -0.479162
      40A     -0.464945    41A     -0.459915

  @DF-RHF Final Energy:  -798.38930142053414

   => Energetics <=

    Nuclear Repulsion Energy =            628.4587412992896134
    One-Electron Energy =               -2348.4010031583338787
    Two-Electron Energy =                 921.5529604385101266
    Total Energy =                       -798.3893014205341387
  Basis Set: (AUG-CC-PVTZ AUX)
    Blend: AUG-CC-PVTZ-RI
    Molecular point group: c1

    Geometry (in Angstrom), charge = 0, multiplicity = 1:

       Center              X                  Y                   Z               Mass
    ------------   -----------------  -----------------  -----------------  -----------------
         P           -0.003782448621    -0.867131607183     0.127172324139    30.973761998420
         O           -1.179976248621     0.115383992817     0.554375624139    15.994914619570
         O            1.112824551379     0.089573392817    -0.545997675861    15.994914619570
         O           -0.607187448621    -1.580855607183    -1.190539675861    15.994914619570
         O            0.466552551379    -1.762509607183     1.207361324139    15.994914619570
         C           -1.791305448621     0.992974392817    -0.430608675861    12.000000000000
         C            1.958766551379     0.822810392817     0.384632324139    12.000000000000
         C           -2.810367048621     1.845347992817     0.285249824139    12.000000000000
         C            2.887447551379     1.679707392817    -0.445272675861    12.000000000000
         H           -1.005075448621     1.599907392817    -0.893134675861     1.007825032230
         H           -2.258917448621     0.370790392817    -1.200807675861     1.007825032230
         H            1.322973551379     1.432249392817     1.035929324139     1.007825032230
         H            2.504825551379     0.103999392817     0.999207324139     1.007825032230
         H           -3.300655448621     2.516601392817    -0.407684675861     1.007825032230
         H           -3.565952448621     1.207085392817     0.764842324139     1.007825032230
         H           -2.320332448621     2.433406392817     1.076708324139     1.007825032230
         H            3.554993551379     2.252137392817     0.208065324139     1.007825032230
         H            3.494191551379     1.053463392817    -1.105411675861     1.007825032230
         H            2.315903551379     2.377233392817    -1.060728675861     1.007825032230
         H           -0.239698448621    -2.480740607183    -1.272545675861     1.007825032230

  Basis Set: AUG-CC-PVTZ
    Blend: AUG-CC-PVTZ
  Basis Set: (AUG-CC-PVTZ AUX)
    Blend: AUG-CC-PVTZ-JKFIT
	 Reference Energy          =    -798.3893014205341387 [Eh]
	 Singles Energy            =      -0.0000000000000000 [Eh]
	 Same-Spin Energy          =      -0.4895379167571137 [Eh]
	 Opposite-Spin Energy      =      -1.5375176357414677 [Eh]
	 Correlation Energy        =      -2.0270555524985814 [Eh]
	 Total Energy              =    -800.4163569730327481 [Eh]

	 ================> DF-SCS-MP2 Energies <==================
	-----------------------------------------------------------
	 SCS Same-Spin Scale       =       0.3333333333333333 [-]
	 SCS Opposite-Spin Scale   =       1.2000000000000000 [-]
	 SCS Same-Spin Energy      =      -0.1631793055857045 [Eh]
	 SCS Opposite-Spin Energy  =      -1.8450211628897613 [Eh]
	 SCS Correlation Energy    =      -2.0082004684754660 [Eh]
	 SCS Total Energy          =    -800.3975018890096180 [Eh]
	-----------------------------------------------------------

  Dipole Moment: [D]
     X:    -0.1192      Y:     2.6881      Z:    -2.1981     Total:     3.4744

*** Psi4 exiting successfully. Buy a developer a beer!
