                               Psi4 1.3.2 release

  ==> Input File <==

--------------------------------------------------------------------------
#psi4
#
memory 32 gb

molecule  {
0 1
  P       -0.0032580    -0.8671950     0.1253540
  O       -1.1867680     0.1204360     0.5615740
  O        1.1192899     0.0951157    -0.5575462
  O       -0.6066630    -1.5809190    -1.1923580
  O        0.4670770    -1.7625730     1.2055430
  C       -1.7907810     0.9929110    -0.4324270
  C        1.9592910     0.8227470     0.3828140
  C       -2.8068250     1.8392790     0.2947570
  C        2.8823923     1.6749439    -0.4580829
  H       -1.0045510     1.5998440    -0.8949530
  H       -2.2583930     0.3707270    -1.2026260
  H        1.3234980     1.4321860     1.0341110
  H        2.5053500     0.1039360     0.9973890
  H       -3.3001310     2.5165380    -0.4095030
  H       -3.5654280     1.2070220     0.7630240
  H       -2.3198080     2.4333430     1.0748900
  H        3.5555180     2.2520740     0.2062470
  H        3.4947160     1.0534000    -1.1072300
  H        2.3164280     2.3771700    -1.0625470
  H       -0.2391740    -2.4808040    -1.2743640
units angstrom
no_reorient  #important for SAPT in psi4, default
symmetry c1  #important for SAPT in psi4, default
}

set PROPERTIES_ORIGIN ["COM"]
properties('MP2/aug-cc-pvtz', properties = ['dipole'])
--------------------------------------------------------------------------

    Molecular point group: c1
  Charge       = 0
  Multiplicity = 1
  Basis Set: AUG-CC-PVTZ
    Blend: AUG-CC-PVTZ
  Basis Set: (AUG-CC-PVTZ AUX)
    Blend: AUG-CC-PVTZ-JKFIT

    Orbital Energies [Eh]
    ---------------------

    Doubly Occupied:

       1A    -80.105281     2A    -20.605153     3A    -20.592018
       4A    -20.590121     5A    -20.512200     6A    -11.301636
       7A    -11.298335     8A    -11.230205     9A    -11.229657
      10A     -7.620730    11A     -5.519281    12A     -5.518727
      13A     -5.517713    14A     -1.446128    15A     -1.379695
      16A     -1.375691    17A     -1.292220    18A     -1.041341
      19A     -1.032864    20A     -0.871958    21A     -0.863835
      22A     -0.813781    23A     -0.730123    24A     -0.714823
      25A     -0.682073    26A     -0.658000    27A     -0.651961
      28A     -0.617722    29A     -0.605953    30A     -0.575411
      31A     -0.565662    32A     -0.562731    33A     -0.544910
      34A     -0.538060    35A     -0.533006    36A     -0.520298
      37A     -0.503703    38A     -0.481090    39A     -0.479491
      40A     -0.466100    41A     -0.461015

  @DF-RHF Final Energy:  -798.38740542728397

   => Energetics <=

    Nuclear Repulsion Energy =            627.7957917845951670
    One-Electron Energy =               -2347.0649887869626582
    Two-Electron Energy =                 920.8817915750835255
    Total Energy =                       -798.3874054272839658
  Basis Set: (AUG-CC-PVTZ AUX)
    Blend: AUG-CC-PVTZ-RI
    Molecular point group: c1

    Geometry (in Angstrom), charge = 0, multiplicity = 1:

       Center              X                  Y                   Z               Mass
    ------------   -----------------  -----------------  -----------------  -----------------
         P           -0.003440049383    -0.867410851664     0.127220423307    30.973761998420
         O           -1.186950049383     0.120220148336     0.563440423307    15.994914619570
         O            1.119107850617     0.094899848336    -0.555679776693    15.994914619570
         O           -0.606845049383    -1.581134851664    -1.190491576693    15.994914619570
         O            0.466894950617    -1.762788851664     1.207409423307    15.994914619570
         C           -1.790963049383     0.992695148336    -0.430560576693    12.000000000000
         C            1.959108950617     0.822531148336     0.384680423307    12.000000000000
         C           -2.807007049383     1.839063148336     0.296623423307    12.000000000000
         C            2.882210250617     1.674728048336    -0.456216476693    12.000000000000
         H           -1.004733049383     1.599628148336    -0.893086576693     1.007825032230
         H           -2.258575049383     0.370511148336    -1.200759576693     1.007825032230
         H            1.323315950617     1.431970148336     1.035977423307     1.007825032230
         H            2.505167950617     0.103720148336     0.999255423307     1.007825032230
         H           -3.300313049383     2.516322148336    -0.407636576693     1.007825032230
         H           -3.565610049383     1.206806148336     0.764890423307     1.007825032230
         H           -2.319990049383     2.433127148336     1.076756423307     1.007825032230
         H            3.555335950617     2.251858148336     0.208113423307     1.007825032230
         H            3.494533950617     1.053184148336    -1.105363576693     1.007825032230
         H            2.316245950617     2.376954148336    -1.060680576693     1.007825032230
         H           -0.239356049383    -2.481019851664    -1.272497576693     1.007825032230

  Basis Set: AUG-CC-PVTZ
    Blend: AUG-CC-PVTZ
  Basis Set: (AUG-CC-PVTZ AUX)
    Blend: AUG-CC-PVTZ-JKFIT
	 Reference Energy          =    -798.3874054272839658 [Eh]
	 Singles Energy            =      -0.0000000000000000 [Eh]
	 Same-Spin Energy          =      -0.4899170317869791 [Eh]
	 Opposite-Spin Energy      =      -1.5385041118655001 [Eh]
	 Correlation Energy        =      -2.0284211436524791 [Eh]
	 Total Energy              =    -800.4158265709364741 [Eh]

	 ================> DF-SCS-MP2 Energies <==================
	-----------------------------------------------------------
	 SCS Same-Spin Scale       =       0.3333333333333333 [-]
	 SCS Opposite-Spin Scale   =       1.2000000000000000 [-]
	 SCS Same-Spin Energy      =      -0.1633056772623264 [Eh]
	 SCS Opposite-Spin Energy  =      -1.8462049342386000 [Eh]
	 SCS Correlation Energy    =      -2.0095106115009265 [Eh]
	 SCS Total Energy          =    -800.3969160387848660 [Eh]
	-----------------------------------------------------------

  Dipole Moment: [D]
     X:    -0.1196      Y:     2.6067      Z:    -2.1903     Total:     3.4069

*** Psi4 exiting successfully. Buy a developer a beer!
