                               Psi4 1.3.2 release

  ==> Input File <==

--------------------------------------------------------------------------
#psi4
#
memory 32 gb

molecule  {
0 1
  P       -0.0032580    -0.8671950     0.1253540
  O       -1.1867680     0.1204360     0.5615740
  O        1.1133490     0.0895100    -0.5478160
  O       -0.5319614    -1.4925599    -1.0292251
  O        0.4670770    -1.7625730     1.2055430
  C       -1.7907810     0.9929110    -0.4324270
  C        1.9592910     0.8227470     0.3828140
  C       -2.8068250     1.8392790     0.2947570
  C        2.8879720     1.6796440    -0.4470910
  H       -1.0045510     1.5998440    -0.8949530
  H       -2.2583930     0.3707270    -1.2026260
  H        1.3234980     1.4321860     1.0341110
  H        2.5053500     0.1039360     0.9973890
  H       -3.3001310     2.5165380    -0.4095030
  H       -3.5654280     1.2070220     0.7630240
  H       -2.3198080     2.4333430     1.0748900
  H        3.5555180     2.2520740     0.2062470
  H        3.4947160     1.0534000    -1.1072300
  H        2.3164280     2.3771700    -1.0625470
  H       -0.2391740    -2.4808040    -1.2743640
units angstrom
no_reorient  #important for SAPT in psi4, default
symmetry c1  #important for SAPT in psi4, default
}

set PROPERTIES_ORIGIN ["COM"]
properties('MP2/aug-cc-pvtz', properties = ['dipole'])
--------------------------------------------------------------------------

    Molecular point group: c1
  Charge       = 0
  Multiplicity = 1
  Basis Set: AUG-CC-PVTZ
    Blend: AUG-CC-PVTZ
  Basis Set: (AUG-CC-PVTZ AUX)
    Blend: AUG-CC-PVTZ-JKFIT

    Orbital Energies [Eh]
    ---------------------

    Doubly Occupied:

       1A    -80.073367     2A    -20.615414     3A    -20.577081
       4A    -20.577064     5A    -20.492258     6A    -11.296586
       7A    -11.290483     8A    -11.226327     9A    -11.225013
      10A     -7.596313    11A     -5.496430    12A     -5.493303
      13A     -5.492373    14A     -1.490876    15A     -1.387032
      16A     -1.366597    17A     -1.276025    18A     -1.035719
      19A     -1.027738    20A     -0.874702    21A     -0.858783
      22A     -0.829839    23A     -0.735935    24A     -0.721464
      25A     -0.684354    26A     -0.673558    27A     -0.648824
      28A     -0.621439    29A     -0.597687    30A     -0.588152
      31A     -0.560932    32A     -0.556764    33A     -0.537550
      34A     -0.535427    35A     -0.530338    36A     -0.511960
      37A     -0.495416    38A     -0.474297    39A     -0.470119
      40A     -0.452092    41A     -0.446895

  @DF-RHF Final Energy:  -798.35490451472913

   => Energetics <=

    Nuclear Repulsion Energy =            637.0385737713476146
    One-Electron Energy =               -2365.9019010321540009
    Two-Electron Energy =                 930.5084227460771444
    Total Energy =                       -798.3549045147291281
  Basis Set: (AUG-CC-PVTZ AUX)
    Blend: AUG-CC-PVTZ-RI
    Molecular point group: c1

    Geometry (in Angstrom), charge = 0, multiplicity = 1:

       Center              X                  Y                   Z               Mass
    ------------   -----------------  -----------------  -----------------  -----------------
         P           -0.011014586805    -0.876369818714     0.108414640350    30.973761998420
         O           -1.194524586805     0.111261181286     0.544634640350    15.994914619570
         O            1.105592413195     0.080335181286    -0.564755359650    15.994914619570
         O           -0.539717986805    -1.501734718714    -1.046164459650    15.994914619570
         O            0.459320413195    -1.771747818714     1.188603640350    15.994914619570
         C           -1.798537586805     0.983736181286    -0.449366359650    12.000000000000
         C            1.951534413195     0.813572181286     0.365874640350    12.000000000000
         C           -2.814581586805     1.830104181286     0.277817640350    12.000000000000
         C            2.880215413195     1.670469181286    -0.464030359650    12.000000000000
         H           -1.012307586805     1.590669181286    -0.911892359650     1.007825032230
         H           -2.266149586805     0.361552181286    -1.219565359650     1.007825032230
         H            1.315741413195     1.423011181286     1.017171640350     1.007825032230
         H            2.497593413195     0.094761181286     0.980449640350     1.007825032230
         H           -3.307887586805     2.507363181286    -0.426442359650     1.007825032230
         H           -3.573184586805     1.197847181286     0.746084640350     1.007825032230
         H           -2.327564586805     2.424168181286     1.057950640350     1.007825032230
         H            3.547761413195     2.242899181286     0.189307640350     1.007825032230
         H            3.486959413195     1.044225181286    -1.124169359650     1.007825032230
         H            2.308671413195     2.367995181286    -1.079486359650     1.007825032230
         H           -0.246930586805    -2.489978818714    -1.291303359650     1.007825032230

  Basis Set: AUG-CC-PVTZ
    Blend: AUG-CC-PVTZ
  Basis Set: (AUG-CC-PVTZ AUX)
    Blend: AUG-CC-PVTZ-JKFIT
	 Reference Energy          =    -798.3549045147291281 [Eh]
	 Singles Energy            =      -0.0000000000000000 [Eh]
	 Same-Spin Energy          =      -0.4892263387989137 [Eh]
	 Opposite-Spin Energy      =      -1.5342568981546001 [Eh]
	 Correlation Energy        =      -2.0234832369535138 [Eh]
	 Total Energy              =    -800.3783877516826806 [Eh]

	 ================> DF-SCS-MP2 Energies <==================
	-----------------------------------------------------------
	 SCS Same-Spin Scale       =       0.3333333333333333 [-]
	 SCS Opposite-Spin Scale   =       1.2000000000000000 [-]
	 SCS Same-Spin Energy      =      -0.1630754462663045 [Eh]
	 SCS Opposite-Spin Energy  =      -1.8411082777855201 [Eh]
	 SCS Correlation Energy    =      -2.0041837240518245 [Eh]
	 SCS Total Energy          =    -800.3590882387809415 [Eh]
	-----------------------------------------------------------

  Dipole Moment: [D]
     X:    -0.4896      Y:     1.7924      Z:    -3.2059     Total:     3.7054

*** Psi4 exiting successfully. Buy a developer a beer!
