                               Psi4 1.3.2 release

  ==> Input File <==

--------------------------------------------------------------------------
#psi4
#
memory 32 gb

molecule  {
0 1
  P       -0.0032580    -0.8671950     0.1253540
  O       -1.1867680     0.1204360     0.5615740
  O        1.1016610     0.0784666    -0.5281437
  O       -0.6066630    -1.5809190    -1.1923580
  O        0.4670770    -1.7625730     1.2055430
  C       -1.7907810     0.9929110    -0.4324270
  C        1.9592910     0.8227470     0.3828140
  C       -2.8068250     1.8392790     0.2947570
  C        2.8989188     1.6888482    -0.4249184
  H       -1.0045510     1.5998440    -0.8949530
  H       -2.2583930     0.3707270    -1.2026260
  H        1.3234980     1.4321860     1.0341110
  H        2.5053500     0.1039360     0.9973890
  H       -3.3001310     2.5165380    -0.4095030
  H       -3.5654280     1.2070220     0.7630240
  H       -2.3198080     2.4333430     1.0748900
  H        3.5555180     2.2520740     0.2062470
  H        3.4947160     1.0534000    -1.1072300
  H        2.3164280     2.3771700    -1.0625470
  H       -0.2391740    -2.4808040    -1.2743640
units angstrom
no_reorient  #important for SAPT in psi4, default
symmetry c1  #important for SAPT in psi4, default
}

set PROPERTIES_ORIGIN ["COM"]
properties('MP2/aug-cc-pvtz', properties = ['dipole'])
--------------------------------------------------------------------------

    Molecular point group: c1
  Charge       = 0
  Multiplicity = 1
  Basis Set: AUG-CC-PVTZ
    Blend: AUG-CC-PVTZ
  Basis Set: (AUG-CC-PVTZ AUX)
    Blend: AUG-CC-PVTZ-JKFIT

    Orbital Energies [Eh]
    ---------------------

    Doubly Occupied:

       1A    -80.101591     2A    -20.603854     3A    -20.590886
       4A    -20.589403     5A    -20.508465     6A    -11.301159
       7A    -11.300790     8A    -11.232286     9A    -11.229548
      10A     -7.617591    11A     -5.516097    12A     -5.515693
      13A     -5.514593    14A     -1.449190    15A     -1.380991
      16A     -1.377582    17A     -1.289228    18A     -1.042997
      19A     -1.034814    20A     -0.875954    21A     -0.864019
      22A     -0.811561    23A     -0.732893    24A     -0.715781
      25A     -0.682710    26A     -0.658287    27A     -0.650526
      28A     -0.621254    29A     -0.604661    30A     -0.580742
      31A     -0.565382    32A     -0.561465    33A     -0.546907
      34A     -0.542119    35A     -0.533210    36A     -0.518199
      37A     -0.503470    38A     -0.480349    39A     -0.478806
      40A     -0.463429    41A     -0.458818

  @DF-RHF Final Energy:  -798.38952390429495

   => Energetics <=

    Nuclear Repulsion Energy =            628.7629208504118878
    One-Electron Energy =               -2349.0102895958275440
    Two-Electron Energy =                 921.8578448411208228
    Total Energy =                       -798.3895239042949470
  Basis Set: (AUG-CC-PVTZ AUX)
    Blend: AUG-CC-PVTZ-RI
    Molecular point group: c1

    Geometry (in Angstrom), charge = 0, multiplicity = 1:

       Center              X                  Y                   Z               Mass
    ------------   -----------------  -----------------  -----------------  -----------------
         P           -0.002896975998    -0.866765242352     0.121583787894    30.973761998420
         O           -1.186406975998     0.120865757648     0.557803787894    15.994914619570
         O            1.102022024002     0.078896357648    -0.531913912106    15.994914619570
         O           -0.606301975998    -1.580489242352    -1.196128212106    15.994914619570
         O            0.467438024002    -1.762143242352     1.201772787894    15.994914619570
         C           -1.790419975998     0.993340757648    -0.436197212106    12.000000000000
         C            1.959652024002     0.823176757648     0.379043787894    12.000000000000
         C           -2.806463975998     1.839708757648     0.290986787894    12.000000000000
         C            2.899279824002     1.689277957648    -0.428688612106    12.000000000000
         H           -1.004189975998     1.600273757648    -0.898723212106     1.007825032230
         H           -2.258031975998     0.371156757648    -1.206396212106     1.007825032230
         H            1.323859024002     1.432615757648     1.030340787894     1.007825032230
         H            2.505711024002     0.104365757648     0.993618787894     1.007825032230
         H           -3.299769975998     2.516967757648    -0.413273212106     1.007825032230
         H           -3.565066975998     1.207451757648     0.759253787894     1.007825032230
         H           -2.319446975998     2.433772757648     1.071119787894     1.007825032230
         H            3.555879024002     2.252503757648     0.202476787894     1.007825032230
         H            3.495077024002     1.053829757648    -1.111000212106     1.007825032230
         H            2.316789024002     2.377599757648    -1.066317212106     1.007825032230
         H           -0.238812975998    -2.480374242352    -1.278134212106     1.007825032230

  Basis Set: AUG-CC-PVTZ
    Blend: AUG-CC-PVTZ
  Basis Set: (AUG-CC-PVTZ AUX)
    Blend: AUG-CC-PVTZ-JKFIT
	 Reference Energy          =    -798.3895239042949470 [Eh]
	 Singles Energy            =      -0.0000000000000000 [Eh]
	 Same-Spin Energy          =      -0.4893132368429581 [Eh]
	 Opposite-Spin Energy      =      -1.5369572712334243 [Eh]
	 Correlation Energy        =      -2.0262705080763825 [Eh]
	 Total Energy              =    -800.4157944123713833 [Eh]

	 ================> DF-SCS-MP2 Energies <==================
	-----------------------------------------------------------
	 SCS Same-Spin Scale       =       0.3333333333333333 [-]
	 SCS Opposite-Spin Scale   =       1.2000000000000000 [-]
	 SCS Same-Spin Energy      =      -0.1631044122809860 [Eh]
	 SCS Opposite-Spin Energy  =      -1.8443487254801090 [Eh]
	 SCS Correlation Energy    =      -2.0074531377610949 [Eh]
	 SCS Total Energy          =    -800.3969770420560508 [Eh]
	-----------------------------------------------------------

  Dipole Moment: [D]
     X:     0.0487      Y:     2.7334      Z:    -2.2589     Total:     3.5464

*** Psi4 exiting successfully. Buy a developer a beer!
