                               Psi4 1.3.2 release

  ==> Input File <==

--------------------------------------------------------------------------
#psi4
#
memory 32 gb

molecule  {
0 1
  P       -0.0032580    -0.8671950     0.1253540
  O       -1.1867680     0.1204360     0.5615740
  O        1.0903599     0.0593358    -0.6235078
  O       -0.5522609    -1.5359190    -1.2389291
  O        0.4670770    -1.7625730     1.2055430
  C       -1.7907810     0.9929110    -0.4324270
  C        1.9592910     0.8227470     0.3828140
  C       -2.8068250     1.8392790     0.2947570
  C        2.8879720     1.6796440    -0.4470910
  H       -1.0045510     1.5998440    -0.8949530
  H       -2.2583930     0.3707270    -1.2026260
  H        1.3234980     1.4321860     1.0341110
  H        2.5053500     0.1039360     0.9973890
  H       -3.3001310     2.5165380    -0.4095030
  H       -3.5654280     1.2070220     0.7630240
  H       -2.3198080     2.4333430     1.0748900
  H        3.5555180     2.2520740     0.2062470
  H        3.4947160     1.0534000    -1.1072300
  H        2.3164280     2.3771700    -1.0625470
  H       -0.2391740    -2.4808040    -1.2743640
units angstrom
no_reorient  #important for SAPT in psi4, default
symmetry c1  #important for SAPT in psi4, default
}

set PROPERTIES_ORIGIN ["COM"]
properties('MP2/aug-cc-pvtz', properties = ['dipole'])
--------------------------------------------------------------------------

    Molecular point group: c1
  Charge       = 0
  Multiplicity = 1
  Basis Set: AUG-CC-PVTZ
    Blend: AUG-CC-PVTZ
  Basis Set: (AUG-CC-PVTZ AUX)
    Blend: AUG-CC-PVTZ-JKFIT

    Orbital Energies [Eh]
    ---------------------

    Doubly Occupied:

       1A    -80.100154     2A    -20.598442     3A    -20.591323
       4A    -20.587900     5A    -20.514248     6A    -11.306054
       7A    -11.300309     8A    -11.232896     9A    -11.229560
      10A     -7.616085    11A     -5.514736    12A     -5.514051
      13A     -5.512997    14A     -1.440852    15A     -1.375069
      16A     -1.355953    17A     -1.292659    18A     -1.041383
      19A     -1.035079    20A     -0.867763    21A     -0.862515
      22A     -0.808785    23A     -0.715923    24A     -0.711159
      25A     -0.677943    26A     -0.652857    27A     -0.647997
      28A     -0.609808    29A     -0.606453    30A     -0.574274
      31A     -0.563395    32A     -0.560384    33A     -0.544769
      34A     -0.535680    35A     -0.525553    36A     -0.521850
      37A     -0.505403    38A     -0.485873    39A     -0.480162
      40A     -0.467602    41A     -0.462974

  @DF-RHF Final Energy:  -798.37773825024726

   => Energetics <=

    Nuclear Repulsion Energy =            627.2733223024989684
    One-Electron Energy =               -2346.2043808379912662
    Two-Electron Energy =                 920.5533202852451495
    Total Energy =                       -798.3777382502472619
  Basis Set: (AUG-CC-PVTZ AUX)
    Blend: AUG-CC-PVTZ-RI
    Molecular point group: c1

    Geometry (in Angstrom), charge = 0, multiplicity = 1:

       Center              X                  Y                   Z               Mass
    ------------   -----------------  -----------------  -----------------  -----------------
         P           -0.006519652196    -0.868734381783     0.138049127461    30.973761998420
         O           -1.190029652196     0.118896618217     0.574269127461    15.994914619570
         O            1.087098247804     0.057796418217    -0.610812672539    15.994914619570
         O           -0.555522552196    -1.537458381783    -1.226233972539    15.994914619570
         O            0.463815347804    -1.764112381783     1.218238127461    15.994914619570
         C           -1.794042652196     0.991371618217    -0.419731872539    12.000000000000
         C            1.956029347804     0.821207618217     0.395509127461    12.000000000000
         C           -2.810086652196     1.837739618217     0.307452127461    12.000000000000
         C            2.884710347804     1.678104618217    -0.434395872539    12.000000000000
         H           -1.007812652196     1.598304618217    -0.882257872539     1.007825032230
         H           -2.261654652196     0.369187618217    -1.189930872539     1.007825032230
         H            1.320236347804     1.430646618217     1.046806127461     1.007825032230
         H            2.502088347804     0.102396618217     1.010084127461     1.007825032230
         H           -3.303392652196     2.514998618217    -0.396807872539     1.007825032230
         H           -3.568689652196     1.205482618217     0.775719127461     1.007825032230
         H           -2.323069652196     2.431803618217     1.087585127461     1.007825032230
         H            3.552256347804     2.250534618217     0.218942127461     1.007825032230
         H            3.491454347804     1.051860618217    -1.094534872539     1.007825032230
         H            2.313166347804     2.375630618217    -1.049851872539     1.007825032230
         H           -0.242435652196    -2.482343381783    -1.261668872539     1.007825032230

  Basis Set: AUG-CC-PVTZ
    Blend: AUG-CC-PVTZ
  Basis Set: (AUG-CC-PVTZ AUX)
    Blend: AUG-CC-PVTZ-JKFIT
	 Reference Energy          =    -798.3777382502472619 [Eh]
	 Singles Energy            =      -0.0000000000000000 [Eh]
	 Same-Spin Energy          =      -0.4908609887147261 [Eh]
	 Opposite-Spin Energy      =      -1.5413862275198080 [Eh]
	 Correlation Energy        =      -2.0322472162345342 [Eh]
	 Total Energy              =    -800.4099854664817713 [Eh]

	 ================> DF-SCS-MP2 Energies <==================
	-----------------------------------------------------------
	 SCS Same-Spin Scale       =       0.3333333333333333 [-]
	 SCS Opposite-Spin Scale   =       1.2000000000000000 [-]
	 SCS Same-Spin Energy      =      -0.1636203295715754 [Eh]
	 SCS Opposite-Spin Energy  =      -1.8496634730237695 [Eh]
	 SCS Correlation Energy    =      -2.0132838025953448 [Eh]
	 SCS Total Energy          =    -800.3910220528425725 [Eh]
	-----------------------------------------------------------

  Dipole Moment: [D]
     X:     0.0017      Y:     2.7143      Z:    -1.8888     Total:     3.3067

*** Psi4 exiting successfully. Buy a developer a beer!
