                               Psi4 1.3.2 release

  ==> Input File <==

--------------------------------------------------------------------------
#psi4
#
memory 32 gb

molecule  {
0 1
  P       -0.0491392    -0.7986796     0.1065389
  O       -1.1867680     0.1204360     0.5615740
  O        1.1133490     0.0895100    -0.5478160
  O       -0.6066630    -1.5809190    -1.1923580
  O        0.4670770    -1.7625730     1.2055430
  C       -1.7907810     0.9929110    -0.4324270
  C        1.9592910     0.8227470     0.3828140
  C       -2.8068250     1.8392790     0.2947570
  C        2.8879720     1.6796440    -0.4470910
  H       -1.0045510     1.5998440    -0.8949530
  H       -2.2583930     0.3707270    -1.2026260
  H        1.3234980     1.4321860     1.0341110
  H        2.5053500     0.1039360     0.9973890
  H       -3.3001310     2.5165380    -0.4095030
  H       -3.5654280     1.2070220     0.7630240
  H       -2.3198080     2.4333430     1.0748900
  H        3.5555180     2.2520740     0.2062470
  H        3.4947160     1.0534000    -1.1072300
  H        2.3164280     2.3771700    -1.0625470
  H       -0.2667666    -2.4867442    -1.3169262
units angstrom
no_reorient  #important for SAPT in psi4, default
symmetry c1  #important for SAPT in psi4, default
}

set PROPERTIES_ORIGIN ["COM"]
properties('MP2/aug-cc-pvtz', properties = ['dipole'])
--------------------------------------------------------------------------

    Molecular point group: c1
  Charge       = 0
  Multiplicity = 1
  Basis Set: AUG-CC-PVTZ
    Blend: AUG-CC-PVTZ
  Basis Set: (AUG-CC-PVTZ AUX)
    Blend: AUG-CC-PVTZ-JKFIT

    Orbital Energies [Eh]
    ---------------------

    Doubly Occupied:

       1A    -80.103953     2A    -20.608731     3A    -20.597807
       4A    -20.591290     5A    -20.492134     6A    -11.313649
       7A    -11.299930     8A    -11.237935     9A    -11.230907
      10A     -7.619226    11A     -5.517926    12A     -5.517474
      13A     -5.515761    14A     -1.462843    15A     -1.395923
      16A     -1.376364    17A     -1.245636    18A     -1.053343
      19A     -1.037259    20A     -0.882075    21A     -0.871630
      22A     -0.820315    23A     -0.741640    24A     -0.728326
      25A     -0.688258    26A     -0.664733    27A     -0.642994
      28A     -0.621516    29A     -0.618636    30A     -0.579048
      31A     -0.568084    32A     -0.560444    33A     -0.546445
      34A     -0.538480    35A     -0.530553    36A     -0.527143
      37A     -0.503961    38A     -0.493988    39A     -0.480866
      40A     -0.434984    41A     -0.432941

  @DF-RHF Final Energy:  -798.37786518650512

   => Energetics <=

    Nuclear Repulsion Energy =            629.3612036344939042
    One-Electron Energy =               -2350.0878338520215038
    Two-Electron Energy =                 922.3487650310224808
    Total Energy =                       -798.3778651865051188
  Basis Set: (AUG-CC-PVTZ AUX)
    Blend: AUG-CC-PVTZ-RI
    Molecular point group: c1

    Geometry (in Angstrom), charge = 0, multiplicity = 1:

       Center              X                  Y                   Z               Mass
    ------------   -----------------  -----------------  -----------------  -----------------
         P           -0.039732866467    -0.812417513045     0.110600430217    30.973761998420
         O           -1.177361666467     0.106698086955     0.565635530217    15.994914619570
         O            1.122755333533     0.075772086955    -0.543754469783    15.994914619570
         O           -0.597256666467    -1.594656913045    -1.188296469783    15.994914619570
         O            0.476483333533    -1.776310913045     1.209604530217    15.994914619570
         C           -1.781374666467     0.979173086955    -0.428365469783    12.000000000000
         C            1.968697333533     0.809009086955     0.386875530217    12.000000000000
         C           -2.797418666467     1.825541086955     0.298818530217    12.000000000000
         C            2.897378333533     1.665906086955    -0.443029469783    12.000000000000
         H           -0.995144666467     1.586106086955    -0.890891469783     1.007825032230
         H           -2.248986666467     0.356989086955    -1.198564469783     1.007825032230
         H            1.332904333533     1.418448086955     1.038172530217     1.007825032230
         H            2.514756333533     0.090198086955     1.001450530217     1.007825032230
         H           -3.290724666467     2.502800086955    -0.405441469783     1.007825032230
         H           -3.556021666467     1.193284086955     0.767085530217     1.007825032230
         H           -2.310401666467     2.419605086955     1.078951530217     1.007825032230
         H            3.564924333533     2.238336086955     0.210308530217     1.007825032230
         H            3.504122333533     1.039662086955    -1.103168469783     1.007825032230
         H            2.325834333533     2.363432086955    -1.058485469783     1.007825032230
         H           -0.257360266467    -2.500482113045    -1.312864669783     1.007825032230

  Basis Set: AUG-CC-PVTZ
    Blend: AUG-CC-PVTZ
  Basis Set: (AUG-CC-PVTZ AUX)
    Blend: AUG-CC-PVTZ-JKFIT
	 Reference Energy          =    -798.3778651865051188 [Eh]
	 Singles Energy            =      -0.0000000000000000 [Eh]
	 Same-Spin Energy          =      -0.4900727510547088 [Eh]
	 Opposite-Spin Energy      =      -1.5381677745749203 [Eh]
	 Correlation Energy        =      -2.0282405256296290 [Eh]
	 Total Energy              =    -800.4061057121347176 [Eh]

	 ================> DF-SCS-MP2 Energies <==================
	-----------------------------------------------------------
	 SCS Same-Spin Scale       =       0.3333333333333333 [-]
	 SCS Opposite-Spin Scale   =       1.2000000000000000 [-]
	 SCS Same-Spin Energy      =      -0.1633575836849029 [Eh]
	 SCS Opposite-Spin Energy  =      -1.8458013294899043 [Eh]
	 SCS Correlation Energy    =      -2.0091589131748071 [Eh]
	 SCS Total Energy          =    -800.3870240996799339 [Eh]
	-----------------------------------------------------------

  Dipole Moment: [D]
     X:    -0.6729      Y:     3.4647      Z:    -2.5307     Total:     4.3429

*** Psi4 exiting successfully. Buy a developer a beer!
