                               Psi4 1.4a3.dev225

  ==> Input File <==

--------------------------------------------------------------------------
#psi4
#
memory 32 gb

molecule  {
0 1
  P       -0.0193980    -0.9573280    -0.1096150
  O        1.2162340    -0.0269160    -0.5415020
  O       -1.1156210     0.0613730     0.5053800
  O        0.5163150    -1.6599550     1.2462920
  O       -0.4896389    -1.8476798    -1.1657584
  C        1.8380650     0.8393470     0.4463000
  C       -1.9139900     0.7949960    -0.4653280
  C        2.8342980     1.7043970    -0.2898420
  C       -2.8451070     1.6924310     0.3153960
  H        1.0624120     1.4376840     0.9337170
  H        2.3223620     0.2121780     1.1993520
  H       -1.2444800     1.3745780    -1.1102950
  H       -2.4582310     0.0769500    -1.0841060
  H        3.3419030     2.3695990     0.4147870
  H        3.5818500     1.0824000    -0.7858930
  H        2.3288000     2.3113610    -1.0437700
  H       -3.4753290     2.2644580    -0.3716610
  H       -3.4879190     1.0956960     0.9656320
  H       -2.2756200     2.3909680     0.9321420
  H        0.1488640    -2.5599310     1.3156750
units angstrom
no_reorient  #important for SAPT in psi4, default
symmetry c1  #important for SAPT in psi4, default
}

set PROPERTIES_ORIGIN ["COM"]
properties('MP2/aug-cc-pvtz', properties = ['dipole'])
--------------------------------------------------------------------------

    Molecular point group: c1
  Charge       = 0
  Multiplicity = 1
  Basis Set: AUG-CC-PVTZ
    Blend: AUG-CC-PVTZ
  Basis Set: (AUG-CC-PVTZ AUX)
    Blend: AUG-CC-PVTZ-JKFIT

    Orbital Energies [Eh]
    ---------------------

    Doubly Occupied:

       1A    -80.101163     2A    -20.603538     3A    -20.589846
       4A    -20.589056     5A    -20.510927     6A    -11.299956
       7A    -11.298522     8A    -11.229447     9A    -11.229160
      10A     -7.617541    11A     -5.515947    12A     -5.515434
      13A     -5.514764    14A     -1.445904    15A     -1.377920
      16A     -1.375529    17A     -1.300522    18A     -1.040896
      19A     -1.033195    20A     -0.872433    21A     -0.863604
      22A     -0.811534    23A     -0.728784    24A     -0.714682
      25A     -0.682044    26A     -0.656745    27A     -0.651909
      28A     -0.617902    29A     -0.604902    30A     -0.576099
      31A     -0.567460    32A     -0.563589    33A     -0.545041
      34A     -0.538968    35A     -0.534490    36A     -0.518470
      37A     -0.503548    38A     -0.480767    39A     -0.478500
      40A     -0.469633    41A     -0.463468

  @DF-RHF Final Energy:  -798.39031685962004

   => Energetics <=

    Nuclear Repulsion Energy =            628.5688510128744610
    One-Electron Energy =               -2348.6506562095983099
    Two-Electron Energy =                 921.6914883371039195
    Total Energy =                       -798.3903168596200430
  Basis Set: (AUG-CC-PVTZ AUX)
    Blend: AUG-CC-PVTZ-RI
    Molecular point group: c1

    Geometry (in Angstrom), charge = 0, multiplicity = 1:

       Center              X                  Y                   Z               Mass
    ------------   -----------------  -----------------  -----------------  -----------------
         P           -0.020941353111    -0.875005600795    -0.101628402425    30.973761998420
         O            1.214690646889     0.055406399205    -0.533515402425    15.994914619570
         O           -1.117164353111     0.143695399205     0.513366597575    15.994914619570
         O            0.514771646889    -1.577632600795     1.254278597575    15.994914619570
         O           -0.491182253111    -1.765357400795    -1.157771802425    15.994914619570
         C            1.836521646889     0.921669399205     0.454286597575    12.000000000000
         C           -1.915533353111     0.877318399205    -0.457341402425    12.000000000000
         C            2.832754646889     1.786719399205    -0.281855402425    12.000000000000
         C           -2.846650353111     1.774753399205     0.323382597575    12.000000000000
         H            1.060868646889     1.520006399205     0.941703597575     1.007825032230
         H            2.320818646889     0.294500399205     1.207338597575     1.007825032230
         H           -1.246023353111     1.456900399205    -1.102308402425     1.007825032230
         H           -2.459774353111     0.159272399205    -1.076119402425     1.007825032230
         H            3.340359646889     2.451921399205     0.422773597575     1.007825032230
         H            3.580306646889     1.164722399205    -0.777906402425     1.007825032230
         H            2.327256646889     2.393683399205    -1.035783402425     1.007825032230
         H           -3.476872353111     2.346780399205    -0.363674402425     1.007825032230
         H           -3.489462353111     1.178018399205     0.973618597575     1.007825032230
         H           -2.277163353111     2.473290399205     0.940128597575     1.007825032230
         H            0.147320646889    -2.477608600795     1.323661597575     1.007825032230

  Basis Set: AUG-CC-PVTZ
    Blend: AUG-CC-PVTZ
  Basis Set: (AUG-CC-PVTZ AUX)
    Blend: AUG-CC-PVTZ-JKFIT
	 Reference Energy          =    -798.3903168596200430 [Eh]
	 Singles Energy            =      -0.0000000000000000 [Eh]
	 Same-Spin Energy          =      -0.4892025967530014 [Eh]
	 Opposite-Spin Energy      =      -1.5368401857829470 [Eh]
	 Correlation Energy        =      -2.0260427825359484 [Eh]
	 Total Energy              =    -800.4163596421559532 [Eh]

	 ================> DF-SCS-MP2 Energies <==================
	-----------------------------------------------------------
	 SCS Same-Spin Scale       =       0.3333333333333333 [-]
	 SCS Opposite-Spin Scale   =       1.2000000000000000 [-]
	 SCS Same-Spin Energy      =      -0.1630675322510005 [Eh]
	 SCS Opposite-Spin Energy  =      -1.8442082229395362 [Eh]
	 SCS Correlation Energy    =      -2.0072757551905367 [Eh]
	 SCS Total Energy          =    -800.3975926148106055 [Eh]
	-----------------------------------------------------------

  Dipole Moment: [D]
     X:     0.1110      Y:     2.5880      Z:     2.0326     Total:     3.2927

*** Psi4 exiting successfully. Buy a developer a beer!
