                               Psi4 1.4a3.dev225

  ==> Input File <==

--------------------------------------------------------------------------
#psi4
#
memory 32 gb

molecule  {
0 1
  P       -0.0193980    -0.9573280    -0.1096150
  O        1.2162340    -0.0269160    -0.5415020
  O       -1.1156210     0.0613730     0.5053800
  O        0.5163150    -1.6599550     1.2462920
  O       -0.4960840    -1.8598830    -1.1802340
  C        1.8166751     0.8095490     0.4123213
  C       -1.9139900     0.7949960    -0.4653280
  C        2.8342980     1.7043970    -0.2898420
  C       -2.8451070     1.6924310     0.3153960
  H        1.0624120     1.4376840     0.9337170
  H        2.3223620     0.2121780     1.1993520
  H       -1.2444800     1.3745780    -1.1102950
  H       -2.4582310     0.0769500    -1.0841060
  H        3.3419030     2.3695990     0.4147870
  H        3.5818500     1.0824000    -0.7858930
  H        2.3288000     2.3113610    -1.0437700
  H       -3.4753290     2.2644580    -0.3716610
  H       -3.4879190     1.0956960     0.9656320
  H       -2.2756200     2.3909680     0.9321420
  H        0.1488640    -2.5599310     1.3156750
units angstrom
no_reorient  #important for SAPT in psi4, default
symmetry c1  #important for SAPT in psi4, default
}

set PROPERTIES_ORIGIN ["COM"]
properties('MP2/aug-cc-pvtz', properties = ['dipole'])
--------------------------------------------------------------------------

    Molecular point group: c1
  Charge       = 0
  Multiplicity = 1
  Basis Set: AUG-CC-PVTZ
    Blend: AUG-CC-PVTZ
  Basis Set: (AUG-CC-PVTZ AUX)
    Blend: AUG-CC-PVTZ-JKFIT

    Orbital Energies [Eh]
    ---------------------

    Doubly Occupied:

       1A    -80.108702     2A    -20.606873     3A    -20.596906
       4A    -20.592341     5A    -20.514223     6A    -11.300106
       7A    -11.299463     8A    -11.230397     9A    -11.227768
      10A     -7.624148    11A     -5.522658    12A     -5.522161
      13A     -5.521167    14A     -1.453401    15A     -1.390322
      16A     -1.380020    17A     -1.294993    18A     -1.040256
      19A     -1.029964    20A     -0.876003    21A     -0.864166
      22A     -0.815006    23A     -0.732295    24A     -0.722303
      25A     -0.684872    26A     -0.656163    27A     -0.653821
      28A     -0.620141    29A     -0.614908    30A     -0.577334
      31A     -0.566205    32A     -0.564834    33A     -0.546882
      34A     -0.540397    35A     -0.536212    36A     -0.515954
      37A     -0.498417    38A     -0.480666    39A     -0.472918
      40A     -0.467641    41A     -0.462861

  @DF-RHF Final Energy:  -798.38734846640114

   => Energetics <=

    Nuclear Repulsion Energy =            628.5851561567315002
    One-Electron Energy =               -2348.4932775954607678
    Two-Electron Energy =                 921.5207729723281318
    Total Energy =                       -798.3873484664011357
  Basis Set: (AUG-CC-PVTZ AUX)
    Blend: AUG-CC-PVTZ-RI
    Molecular point group: c1

    Geometry (in Angstrom), charge = 0, multiplicity = 1:

       Center              X                  Y                   Z               Mass
    ------------   -----------------  -----------------  -----------------  -----------------
         P           -0.018605798699    -0.871417137076    -0.097478295450    30.973761998420
         O            1.217026201301     0.058994862924    -0.529365295450    15.994914619570
         O           -1.114828798699     0.147283862924     0.517516704550    15.994914619570
         O            0.517107201301    -1.574044137076     1.258428704550    15.994914619570
         O           -0.495291798699    -1.773972137076    -1.168097295450    15.994914619570
         C            1.817467301301     0.895459862924     0.424458004550    12.000000000000
         C           -1.913197798699     0.880906862924    -0.453191295450    12.000000000000
         C            2.835090201301     1.790307862924    -0.277705295450    12.000000000000
         C           -2.844314798699     1.778341862924     0.327532704550    12.000000000000
         H            1.063204201301     1.523594862924     0.945853704550     1.007825032230
         H            2.323154201301     0.298088862924     1.211488704550     1.007825032230
         H           -1.243687798699     1.460488862924    -1.098158295450     1.007825032230
         H           -2.457438798699     0.162860862924    -1.071969295450     1.007825032230
         H            3.342695201301     2.455509862924     0.426923704550     1.007825032230
         H            3.582642201301     1.168310862924    -0.773756295450     1.007825032230
         H            2.329592201301     2.397271862924    -1.031633295450     1.007825032230
         H           -3.474536798699     2.350368862924    -0.359524295450     1.007825032230
         H           -3.487126798699     1.181606862924     0.977768704550     1.007825032230
         H           -2.274827798699     2.476878862924     0.944278704550     1.007825032230
         H            0.149656201301    -2.474020137076     1.327811704550     1.007825032230

  Basis Set: AUG-CC-PVTZ
    Blend: AUG-CC-PVTZ
  Basis Set: (AUG-CC-PVTZ AUX)
    Blend: AUG-CC-PVTZ-JKFIT
	 Reference Energy          =    -798.3873484664011357 [Eh]
	 Singles Energy            =      -0.0000000000000000 [Eh]
	 Same-Spin Energy          =      -0.4896747691638654 [Eh]
	 Opposite-Spin Energy      =      -1.5375741768734967 [Eh]
	 Correlation Energy        =      -2.0272489460373624 [Eh]
	 Total Energy              =    -800.4145974124385248 [Eh]

	 ================> DF-SCS-MP2 Energies <==================
	-----------------------------------------------------------
	 SCS Same-Spin Scale       =       0.3333333333333333 [-]
	 SCS Opposite-Spin Scale   =       1.2000000000000000 [-]
	 SCS Same-Spin Energy      =      -0.1632249230546218 [Eh]
	 SCS Opposite-Spin Energy  =      -1.8450890122481960 [Eh]
	 SCS Correlation Energy    =      -2.0083139353028177 [Eh]
	 SCS Total Energy          =    -800.3956624017039303 [Eh]
	-----------------------------------------------------------

  Dipole Moment: [D]
     X:    -0.0271      Y:     2.5017      Z:     2.0110     Total:     3.2099

*** Psi4 exiting successfully. Buy a developer a beer!
