                               Psi4 1.3.2 release

  ==> Input File <==

--------------------------------------------------------------------------
#psi4
#
memory 32 gb

molecule  {
0 1
  P       -0.0032580    -0.8671950     0.1253540
  O       -1.1867680     0.1204360     0.5615740
  O        1.1133490     0.0895100    -0.5478160
  O       -0.6066630    -1.5809190    -1.1923580
  O        0.4670770    -1.7625730     1.2055430
  C       -1.7907810     0.9929110    -0.4324270
  C        1.9011822     0.7723801     0.3188879
  C       -2.8068250     1.8392790     0.2947570
  C        2.8879720     1.6796440    -0.4470910
  H       -1.0045510     1.5998440    -0.8949530
  H       -2.2583930     0.3707270    -1.2026260
  H        1.3234980     1.4321860     1.0341110
  H        2.5053500     0.1039360     0.9973890
  H       -3.3001310     2.5165380    -0.4095030
  H       -3.5654280     1.2070220     0.7630240
  H       -2.3198080     2.4333430     1.0748900
  H        3.5555180     2.2520740     0.2062470
  H        3.4947160     1.0534000    -1.1072300
  H        2.3164280     2.3771700    -1.0625470
  H       -0.2391740    -2.4808040    -1.2743640
units angstrom
no_reorient  #important for SAPT in psi4, default
symmetry c1  #important for SAPT in psi4, default
}

set PROPERTIES_ORIGIN ["COM"]
properties('MP2/aug-cc-pvtz', properties = ['dipole'])
--------------------------------------------------------------------------

    Molecular point group: c1
  Charge       = 0
  Multiplicity = 1
  Basis Set: AUG-CC-PVTZ
    Blend: AUG-CC-PVTZ
  Basis Set: (AUG-CC-PVTZ AUX)
    Blend: AUG-CC-PVTZ-JKFIT

    Orbital Energies [Eh]
    ---------------------

    Doubly Occupied:

       1A    -80.111108     2A    -20.609727     3A    -20.601209
       4A    -20.595389     5A    -20.515655     6A    -11.304035
       7A    -11.297913     8A    -11.231525     9A    -11.226959
      10A     -7.626771    11A     -5.525250    12A     -5.524869
      13A     -5.523696    14A     -1.463762    15A     -1.404350
      16A     -1.383325    17A     -1.296416    18A     -1.042087
      19A     -1.023796    20A     -0.879964    21A     -0.866040
      22A     -0.812668    23A     -0.746165    24A     -0.721945
      25A     -0.687765    26A     -0.663190    27A     -0.651883
      28A     -0.636530    29A     -0.608405    30A     -0.578443
      31A     -0.570449    32A     -0.563334    33A     -0.545914
      34A     -0.545398    35A     -0.539090    36A     -0.515320
      37A     -0.492622    38A     -0.480321    39A     -0.470637
      40A     -0.467546    41A     -0.456532

  @DF-RHF Final Energy:  -798.38110416247537

   => Energetics <=

    Nuclear Repulsion Energy =            630.1483707186222318
    One-Electron Energy =               -2351.4429444590841740
    Two-Electron Energy =                 922.9134695779866888
    Total Energy =                       -798.3811041624753670
  Basis Set: (AUG-CC-PVTZ AUX)
    Blend: AUG-CC-PVTZ-RI
    Molecular point group: c1

    Geometry (in Angstrom), charge = 0, multiplicity = 1:

       Center              X                  Y                   Z               Mass
    ------------   -----------------  -----------------  -----------------  -----------------
         P            0.001268959721    -0.863271236110     0.130333759138    30.973761998420
         O           -1.182241040279     0.124359763890     0.566553759138    15.994914619570
         O            1.117875959721     0.093433763890    -0.542836240862    15.994914619570
         O           -0.602136040279    -1.576995236110    -1.187378240862    15.994914619570
         O            0.471603959721    -1.758649236110     1.210522759138    15.994914619570
         C           -1.786254040279     0.996834763890    -0.427447240862    12.000000000000
         C            1.905709159721     0.776303863890     0.323867659138    12.000000000000
         C           -2.802298040279     1.843202763890     0.299736759138    12.000000000000
         C            2.892498959721     1.683567763890    -0.442111240862    12.000000000000
         H           -1.000024040279     1.603767763890    -0.889973240862     1.007825032230
         H           -2.253866040279     0.374650763890    -1.197646240862     1.007825032230
         H            1.328024959721     1.436109763890     1.039090759138     1.007825032230
         H            2.509876959721     0.107859763890     1.002368759138     1.007825032230
         H           -3.295604040279     2.520461763890    -0.404523240862     1.007825032230
         H           -3.560901040279     1.210945763890     0.768003759138     1.007825032230
         H           -2.315281040279     2.437266763890     1.079869759138     1.007825032230
         H            3.560044959721     2.255997763890     0.211226759138     1.007825032230
         H            3.499242959721     1.057323763890    -1.102250240862     1.007825032230
         H            2.320954959721     2.381093763890    -1.057567240862     1.007825032230
         H           -0.234647040279    -2.476880236110    -1.269384240862     1.007825032230

  Basis Set: AUG-CC-PVTZ
    Blend: AUG-CC-PVTZ
  Basis Set: (AUG-CC-PVTZ AUX)
    Blend: AUG-CC-PVTZ-JKFIT
	 Reference Energy          =    -798.3811041624753670 [Eh]
	 Singles Energy            =      -0.0000000000000000 [Eh]
	 Same-Spin Energy          =      -0.4898395969335925 [Eh]
	 Opposite-Spin Energy      =      -1.5374353970529904 [Eh]
	 Correlation Energy        =      -2.0272749939865831 [Eh]
	 Total Energy              =    -800.4083791564619332 [Eh]

	 ================> DF-SCS-MP2 Energies <==================
	-----------------------------------------------------------
	 SCS Same-Spin Scale       =       0.3333333333333333 [-]
	 SCS Opposite-Spin Scale   =       1.2000000000000000 [-]
	 SCS Same-Spin Energy      =      -0.1632798656445308 [Eh]
	 SCS Opposite-Spin Energy  =      -1.8449224764635883 [Eh]
	 SCS Correlation Energy    =      -2.0082023421081190 [Eh]
	 SCS Total Energy          =    -800.3893065045834874 [Eh]
	-----------------------------------------------------------

  Dipole Moment: [D]
     X:    -0.4504      Y:     2.3573      Z:    -2.3648     Total:     3.3693

*** Psi4 exiting successfully. Buy a developer a beer!
