                               Psi4 1.3.2 release

  ==> Input File <==

--------------------------------------------------------------------------
#psi4
#
memory 32 gb

molecule  {
0 1
  P       -0.0336694    -0.8212890     0.1132089
  O       -1.1867680     0.1204360     0.5615740
  O        1.1133490     0.0895100    -0.5478160
  O       -0.6066630    -1.5809190    -1.1923580
  O        0.4670770    -1.7625730     1.2055430
  C       -1.7907810     0.9929110    -0.4324270
  C        1.9592910     0.8227470     0.3828140
  C       -2.8068250     1.8392790     0.2947570
  C        2.8879720     1.6796440    -0.4470910
  H       -1.0045510     1.5998440    -0.8949530
  H       -2.2583930     0.3707270    -1.2026260
  H        1.3234980     1.4321860     1.0341110
  H        2.5053500     0.1039360     0.9973890
  H       -3.3001310     2.5165380    -0.4095030
  H       -3.5654280     1.2070220     0.7630240
  H       -2.3198080     2.4333430     1.0748900
  H        3.5555180     2.2520740     0.2062470
  H        3.4947160     1.0534000    -1.1072300
  H        2.3164280     2.3771700    -1.0625470
  H       -0.2574618    -2.4850394    -1.3027710
units angstrom
no_reorient  #important for SAPT in psi4, default
symmetry c1  #important for SAPT in psi4, default
}

set PROPERTIES_ORIGIN ["COM"]
properties('MP2/aug-cc-pvtz', properties = ['dipole'])
--------------------------------------------------------------------------

    Molecular point group: c1
  Charge       = 0
  Multiplicity = 1
  Basis Set: AUG-CC-PVTZ
    Blend: AUG-CC-PVTZ
  Basis Set: (AUG-CC-PVTZ AUX)
    Blend: AUG-CC-PVTZ-JKFIT

    Orbital Energies [Eh]
    ---------------------

    Doubly Occupied:

       1A    -80.104121     2A    -20.602969     3A    -20.599991
       4A    -20.591014     5A    -20.498476     6A    -11.309511
       7A    -11.299757     8A    -11.235263     9A    -11.230795
      10A     -7.619319    11A     -5.517959    12A     -5.517542
      13A     -5.516001    14A     -1.455903    15A     -1.390958
      16A     -1.377339    17A     -1.260777    18A     -1.049048
      19A     -1.036516    20A     -0.878329    21A     -0.869810
      22A     -0.817840    23A     -0.737459    24A     -0.724214
      25A     -0.686132    26A     -0.662503    27A     -0.645106
      28A     -0.619282    29A     -0.616156    30A     -0.577386
      31A     -0.566625    32A     -0.560035    33A     -0.545270
      34A     -0.539709    35A     -0.532555    36A     -0.524407
      37A     -0.505013    38A     -0.489716    39A     -0.481020
      40A     -0.445104    41A     -0.442566

  @DF-RHF Final Energy:  -798.38396666795950

   => Energetics <=

    Nuclear Repulsion Energy =            628.9359098539807746
    One-Electron Energy =               -2349.2807615046567662
    Two-Electron Energy =                 921.9608849827164931
    Total Energy =                       -798.3839666679594984
  Basis Set: (AUG-CC-PVTZ AUX)
    Blend: AUG-CC-PVTZ-RI
    Molecular point group: c1

    Geometry (in Angstrom), charge = 0, multiplicity = 1:

       Center              X                  Y                   Z               Mass
    ------------   -----------------  -----------------  -----------------  -----------------
         P           -0.027434561615    -0.830491842149     0.115836635876    30.973761998420
         O           -1.180533161615     0.111233157851     0.564201735876    15.994914619570
         O            1.119583838385     0.080307157851    -0.545188264124    15.994914619570
         O           -0.600428161615    -1.590121842149    -1.189730264124    15.994914619570
         O            0.473311838385    -1.771775842149     1.208170735876    15.994914619570
         C           -1.784546161615     0.983708157851    -0.429799264124    12.000000000000
         C            1.965525838385     0.813544157851     0.385441735876    12.000000000000
         C           -2.800590161615     1.830076157851     0.297384735876    12.000000000000
         C            2.894206838385     1.670441157851    -0.444463264124    12.000000000000
         H           -0.998316161615     1.590641157851    -0.892325264124     1.007825032230
         H           -2.252158161615     0.361524157851    -1.199998264124     1.007825032230
         H            1.329732838385     1.422983157851     1.036738735876     1.007825032230
         H            2.511584838385     0.094733157851     1.000016735876     1.007825032230
         H           -3.293896161615     2.507335157851    -0.406875264124     1.007825032230
         H           -3.559193161615     1.197819157851     0.765651735876     1.007825032230
         H           -2.313573161615     2.424140157851     1.077517735876     1.007825032230
         H            3.561752838385     2.242871157851     0.208874735876     1.007825032230
         H            3.500950838385     1.044197157851    -1.104602264124     1.007825032230
         H            2.322662838385     2.367967157851    -1.059919264124     1.007825032230
         H           -0.251226961615    -2.494242242149    -1.300143264124     1.007825032230

  Basis Set: AUG-CC-PVTZ
    Blend: AUG-CC-PVTZ
  Basis Set: (AUG-CC-PVTZ AUX)
    Blend: AUG-CC-PVTZ-JKFIT
	 Reference Energy          =    -798.3839666679594984 [Eh]
	 Singles Energy            =      -0.0000000000000000 [Eh]
	 Same-Spin Energy          =      -0.4899297350846652 [Eh]
	 Opposite-Spin Energy      =      -1.5380425423511352 [Eh]
	 Correlation Energy        =      -2.0279722774358007 [Eh]
	 Total Energy              =    -800.4119389453952635 [Eh]

	 ================> DF-SCS-MP2 Energies <==================
	-----------------------------------------------------------
	 SCS Same-Spin Scale       =       0.3333333333333333 [-]
	 SCS Opposite-Spin Scale   =       1.2000000000000000 [-]
	 SCS Same-Spin Energy      =      -0.1633099116948884 [Eh]
	 SCS Opposite-Spin Energy  =      -1.8456510508213622 [Eh]
	 SCS Correlation Energy    =      -2.0089609625162508 [Eh]
	 SCS Total Energy          =    -800.3929276304756968 [Eh]
	-----------------------------------------------------------

  Dipole Moment: [D]
     X:    -0.4668      Y:     3.1940      Z:    -2.4189     Total:     4.0336

*** Psi4 exiting successfully. Buy a developer a beer!
