                               Psi4 1.3.2 release

  ==> Input File <==

--------------------------------------------------------------------------
#psi4
#
memory 32 gb

molecule  {
0 1
  P       -0.0032580    -0.8671950     0.1253540
  O       -1.1867680     0.1204360     0.5615740
  O        1.1097284     0.0846609    -0.5605651
  O       -0.5977069    -1.5735516    -1.2003742
  O        0.4670770    -1.7625730     1.2055430
  C       -1.7907810     0.9929110    -0.4324270
  C        1.9592910     0.8227470     0.3828140
  C       -2.8068250     1.8392790     0.2947570
  C        2.8879720     1.6796440    -0.4470910
  H       -1.0045510     1.5998440    -0.8949530
  H       -2.2583930     0.3707270    -1.2026260
  H        1.3234980     1.4321860     1.0341110
  H        2.5053500     0.1039360     0.9973890
  H       -3.3001310     2.5165380    -0.4095030
  H       -3.5654280     1.2070220     0.7630240
  H       -2.3198080     2.4333430     1.0748900
  H        3.5555180     2.2520740     0.2062470
  H        3.4947160     1.0534000    -1.1072300
  H        2.3164280     2.3771700    -1.0625470
  H       -0.2391740    -2.4808040    -1.2743640
units angstrom
no_reorient  #important for SAPT in psi4, default
symmetry c1  #important for SAPT in psi4, default
}

set PROPERTIES_ORIGIN ["COM"]
properties('MP2/aug-cc-pvtz', properties = ['dipole'])
--------------------------------------------------------------------------

    Molecular point group: c1
  Charge       = 0
  Multiplicity = 1
  Basis Set: AUG-CC-PVTZ
    Blend: AUG-CC-PVTZ
  Basis Set: (AUG-CC-PVTZ AUX)
    Blend: AUG-CC-PVTZ-JKFIT

    Orbital Energies [Eh]
    ---------------------

    Doubly Occupied:

       1A    -80.103367     2A    -20.603633     3A    -20.591158
       4A    -20.590047     5A    -20.511505     6A    -11.301164
       7A    -11.300407     8A    -11.230883     9A    -11.229905
      10A     -7.619044    11A     -5.517593    12A     -5.517066
      13A     -5.516027    14A     -1.445855    15A     -1.378264
      16A     -1.374002    17A     -1.291459    18A     -1.041584
      19A     -1.033944    20A     -0.871937    21A     -0.863795
      22A     -0.812479    23A     -0.728251    24A     -0.714666
      25A     -0.681484    26A     -0.657238    27A     -0.650870
      28A     -0.617232    29A     -0.605681    30A     -0.576257
      31A     -0.565112    32A     -0.561966    33A     -0.544865
      34A     -0.538484    35A     -0.532967    36A     -0.520335
      37A     -0.504231    38A     -0.481558    39A     -0.479775
      40A     -0.465630    41A     -0.460851

  @DF-RHF Final Energy:  -798.38775571051269

   => Energetics <=

    Nuclear Repulsion Energy =            627.9637069150869593
    One-Electron Energy =               -2347.4377803639199556
    Two-Electron Energy =                 921.0863177383203038
    Total Energy =                       -798.3877557105126925
  Basis Set: (AUG-CC-PVTZ AUX)
    Blend: AUG-CC-PVTZ-RI
    Molecular point group: c1

    Geometry (in Angstrom), charge = 0, multiplicity = 1:

       Center              X                  Y                   Z               Mass
    ------------   -----------------  -----------------  -----------------  -----------------
         P           -0.003811857135    -0.867456414658     0.127509976853    30.973761998420
         O           -1.187321857135     0.120174585342     0.563729976853    15.994914619570
         O            1.109174542865     0.084399485342    -0.558409123147    15.994914619570
         O           -0.598260757135    -1.573813014658    -1.198218223147    15.994914619570
         O            0.466523142865    -1.762834414658     1.207698976853    15.994914619570
         C           -1.791334857135     0.992649585342    -0.430271023147    12.000000000000
         C            1.958737142865     0.822485585342     0.384969976853    12.000000000000
         C           -2.807378857135     1.839017585342     0.296912976853    12.000000000000
         C            2.887418142865     1.679382585342    -0.444935023147    12.000000000000
         H           -1.005104857135     1.599582585342    -0.892797023147     1.007825032230
         H           -2.258946857135     0.370465585342    -1.200470023147     1.007825032230
         H            1.322944142865     1.431924585342     1.036266976853     1.007825032230
         H            2.504796142865     0.103674585342     0.999544976853     1.007825032230
         H           -3.300684857135     2.516276585342    -0.407347023147     1.007825032230
         H           -3.565981857135     1.206760585342     0.765179976853     1.007825032230
         H           -2.320361857135     2.433081585342     1.077045976853     1.007825032230
         H            3.554964142865     2.251812585342     0.208402976853     1.007825032230
         H            3.494162142865     1.053138585342    -1.105074023147     1.007825032230
         H            2.315874142865     2.376908585342    -1.060391023147     1.007825032230
         H           -0.239727857135    -2.481065414658    -1.272208023147     1.007825032230

  Basis Set: AUG-CC-PVTZ
    Blend: AUG-CC-PVTZ
  Basis Set: (AUG-CC-PVTZ AUX)
    Blend: AUG-CC-PVTZ-JKFIT
	 Reference Energy          =    -798.3877557105126925 [Eh]
	 Singles Energy            =      -0.0000000000000000 [Eh]
	 Same-Spin Energy          =      -0.4898540839136789 [Eh]
	 Opposite-Spin Energy      =      -1.5384400557321829 [Eh]
	 Correlation Energy        =      -2.0282941396458618 [Eh]
	 Total Energy              =    -800.4160498501585153 [Eh]

	 ================> DF-SCS-MP2 Energies <==================
	-----------------------------------------------------------
	 SCS Same-Spin Scale       =       0.3333333333333333 [-]
	 SCS Opposite-Spin Scale   =       1.2000000000000000 [-]
	 SCS Same-Spin Energy      =      -0.1632846946378930 [Eh]
	 SCS Opposite-Spin Energy  =      -1.8461280668786193 [Eh]
	 SCS Correlation Energy    =      -2.0094127615165123 [Eh]
	 SCS Total Energy          =    -800.3971684720291933 [Eh]
	-----------------------------------------------------------

  Dipole Moment: [D]
     X:    -0.0493      Y:     2.6620      Z:    -2.1562     Total:     3.4261

*** Psi4 exiting successfully. Buy a developer a beer!
