                               Psi4 1.3.2 release

  ==> Input File <==

--------------------------------------------------------------------------
#psi4
#
memory 32 gb

molecule  {
0 1
  P       -0.0032580    -0.8671950     0.1253540
  O       -1.1867680     0.1204360     0.5615740
  O        1.1133490     0.0895100    -0.5478160
  O       -0.6813646    -1.6692781    -1.3554909
  O        0.4670770    -1.7625730     1.2055430
  C       -1.7907810     0.9929110    -0.4324270
  C        1.9592910     0.8227470     0.3828140
  C       -2.8068250     1.8392790     0.2947570
  C        2.8879720     1.6796440    -0.4470910
  H       -1.0045510     1.5998440    -0.8949530
  H       -2.2583930     0.3707270    -1.2026260
  H        1.3234980     1.4321860     1.0341110
  H        2.5053500     0.1039360     0.9973890
  H       -3.3001310     2.5165380    -0.4095030
  H       -3.5654280     1.2070220     0.7630240
  H       -2.3198080     2.4333430     1.0748900
  H        3.5555180     2.2520740     0.2062470
  H        3.4947160     1.0534000    -1.1072300
  H        2.3164280     2.3771700    -1.0625470
  H       -0.2391740    -2.4808040    -1.2743640
units angstrom
no_reorient  #important for SAPT in psi4, default
symmetry c1  #important for SAPT in psi4, default
}

set PROPERTIES_ORIGIN ["COM"]
properties('MP2/aug-cc-pvtz', properties = ['dipole'])
--------------------------------------------------------------------------

    Molecular point group: c1
  Charge       = 0
  Multiplicity = 1
  Basis Set: AUG-CC-PVTZ
    Blend: AUG-CC-PVTZ
  Basis Set: (AUG-CC-PVTZ AUX)
    Blend: AUG-CC-PVTZ-JKFIT

    Orbital Energies [Eh]
    ---------------------

    Doubly Occupied:

       1A    -80.123486     2A    -20.602165     3A    -20.601158
       4A    -20.592313     5A    -20.527711     6A    -11.306388
       7A    -11.305293     8A    -11.234975     9A    -11.233016
      10A     -7.636887    11A     -5.535180    12A     -5.534807
      13A     -5.533673    14A     -1.440226    15A     -1.385700
      16A     -1.354464    17A     -1.304422    18A     -1.046667
      19A     -1.038515    20A     -0.875480    21A     -0.868505
      22A     -0.801661    23A     -0.722768    24A     -0.708670
      25A     -0.682855    26A     -0.658782    27A     -0.639962
      28A     -0.625908    29A     -0.612402    30A     -0.569817
      31A     -0.566539    32A     -0.561075    33A     -0.550453
      34A     -0.541126    35A     -0.526249    36A     -0.524630
      37A     -0.509646    38A     -0.487523    39A     -0.484574
      40A     -0.473892    41A     -0.471892

  @DF-RHF Final Energy:  -798.35924619095726

   => Energetics <=

    Nuclear Repulsion Energy =            620.5209156193187710
    One-Electron Energy =               -2332.1574120809405031
    Two-Electron Energy =                 913.2772502706645810
    Total Energy =                       -798.3592461909572648
  Basis Set: (AUG-CC-PVTZ AUX)
    Blend: AUG-CC-PVTZ-RI
    Molecular point group: c1

    Geometry (in Angstrom), charge = 0, multiplicity = 1:

       Center              X                  Y                   Z               Mass
    ------------   -----------------  -----------------  -----------------  -----------------
         P            0.004498911308    -0.858020027931     0.142292923229    30.973761998420
         O           -1.179011088692     0.129610972069     0.578512923229    15.994914619570
         O            1.121105911308     0.098684972069    -0.530877076771    15.994914619570
         O           -0.673607688692    -1.660103127931    -1.338551976771    15.994914619570
         O            0.474833911308    -1.753398027931     1.222481923229    15.994914619570
         C           -1.783024088692     1.002085972069    -0.415488076771    12.000000000000
         C            1.967047911308     0.831921972069     0.399752923229    12.000000000000
         C           -2.799068088692     1.848453972069     0.311695923229    12.000000000000
         C            2.895728911308     1.688818972069    -0.430152076771    12.000000000000
         H           -0.996794088692     1.609018972069    -0.878014076771     1.007825032230
         H           -2.250636088692     0.379901972069    -1.185687076771     1.007825032230
         H            1.331254911308     1.441360972069     1.051049923229     1.007825032230
         H            2.513106911308     0.113110972069     1.014327923229     1.007825032230
         H           -3.292374088692     2.525712972069    -0.392564076771     1.007825032230
         H           -3.557671088692     1.216196972069     0.779962923229     1.007825032230
         H           -2.312051088692     2.442517972069     1.091828923229     1.007825032230
         H            3.563274911308     2.261248972069     0.223185923229     1.007825032230
         H            3.502472911308     1.062574972069    -1.090291076771     1.007825032230
         H            2.324184911308     2.386344972069    -1.045608076771     1.007825032230
         H           -0.231417088692    -2.471629027931    -1.257425076771     1.007825032230

  Basis Set: AUG-CC-PVTZ
    Blend: AUG-CC-PVTZ
  Basis Set: (AUG-CC-PVTZ AUX)
    Blend: AUG-CC-PVTZ-JKFIT
	 Reference Energy          =    -798.3592461909572648 [Eh]
	 Singles Energy            =      -0.0000000000000000 [Eh]
	 Same-Spin Energy          =      -0.4912624100727856 [Eh]
	 Opposite-Spin Energy      =      -1.5438481952165690 [Eh]
	 Correlation Energy        =      -2.0351106052893546 [Eh]
	 Total Energy              =    -800.3943567962465977 [Eh]

	 ================> DF-SCS-MP2 Energies <==================
	-----------------------------------------------------------
	 SCS Same-Spin Scale       =       0.3333333333333333 [-]
	 SCS Opposite-Spin Scale   =       1.2000000000000000 [-]
	 SCS Same-Spin Energy      =      -0.1637541366909285 [Eh]
	 SCS Opposite-Spin Energy  =      -1.8526178342598827 [Eh]
	 SCS Correlation Energy    =      -2.0163719709508112 [Eh]
	 SCS Total Energy          =    -800.3756181619080508 [Eh]
	-----------------------------------------------------------

  Dipole Moment: [D]
     X:     0.3210      Y:     3.3696      Z:    -1.3110     Total:     3.6299

*** Psi4 exiting successfully. Buy a developer a beer!
