                               Psi4 1.3.2 release

  ==> Input File <==

--------------------------------------------------------------------------
#psi4
#
memory 32 gb

molecule  {
0 1
  P       -0.0032580    -0.8671950     0.1253540
  O       -1.1790591     0.1247975     0.5723902
  O        1.1133490     0.0895100    -0.5478160
  O       -0.5947878    -1.5884036    -1.1936665
  O        0.4670770    -1.7625730     1.2055430
  C       -1.7907810     0.9929110    -0.4324270
  C        1.9592910     0.8227470     0.3828140
  C       -2.8068250     1.8392790     0.2947570
  C        2.8879720     1.6796440    -0.4470910
  H       -1.0045510     1.5998440    -0.8949530
  H       -2.2583930     0.3707270    -1.2026260
  H        1.3234980     1.4321860     1.0341110
  H        2.5053500     0.1039360     0.9973890
  H       -3.3001310     2.5165380    -0.4095030
  H       -3.5654280     1.2070220     0.7630240
  H       -2.3198080     2.4333430     1.0748900
  H        3.5555180     2.2520740     0.2062470
  H        3.4947160     1.0534000    -1.1072300
  H        2.3164280     2.3771700    -1.0625470
  H       -0.2391740    -2.4808040    -1.2743640
units angstrom
no_reorient  #important for SAPT in psi4, default
symmetry c1  #important for SAPT in psi4, default
}

set PROPERTIES_ORIGIN ["COM"]
properties('MP2/aug-cc-pvtz', properties = ['dipole'])
--------------------------------------------------------------------------

    Molecular point group: c1
  Charge       = 0
  Multiplicity = 1
  Basis Set: AUG-CC-PVTZ
    Blend: AUG-CC-PVTZ
  Basis Set: (AUG-CC-PVTZ AUX)
    Blend: AUG-CC-PVTZ-JKFIT

    Orbital Energies [Eh]
    ---------------------

    Doubly Occupied:

       1A    -80.103839     2A    -20.603835     3A    -20.592256
       4A    -20.589740     5A    -20.509679     6A    -11.302791
       7A    -11.298803     8A    -11.230700     9A    -11.230201
      10A     -7.619451    11A     -5.517959    12A     -5.517481
      13A     -5.516463    14A     -1.446963    15A     -1.381065
      16A     -1.375990    17A     -1.290209    18A     -1.041963
      19A     -1.033822    20A     -0.873003    21A     -0.864115
      22A     -0.814686    23A     -0.731785    24A     -0.715082
      25A     -0.682502    26A     -0.657917    27A     -0.651191
      28A     -0.618416    29A     -0.605479    30A     -0.576868
      31A     -0.565464    32A     -0.561950    33A     -0.544814
      34A     -0.539232    35A     -0.534208    36A     -0.520252
      37A     -0.504581    38A     -0.481671    39A     -0.479504
      40A     -0.464212    41A     -0.459335

  @DF-RHF Final Energy:  -798.38910324590347

   => Energetics <=

    Nuclear Repulsion Energy =            627.9873395696544094
    One-Electron Energy =               -2347.4539257514188648
    Two-Electron Energy =                 921.0774829358608713
    Total Energy =                       -798.3891032459034705
  Basis Set: (AUG-CC-PVTZ AUX)
    Blend: AUG-CC-PVTZ-RI
    Molecular point group: c1

    Geometry (in Angstrom), charge = 0, multiplicity = 1:

       Center              X                  Y                   Z               Mass
    ------------   -----------------  -----------------  -----------------  -----------------
         P           -0.005291381196    -0.866870631701     0.124366535961    30.973761998420
         O           -1.181092481196     0.125121868299     0.571402735961    15.994914619570
         O            1.111315618804     0.089834368299    -0.548803464039    15.994914619570
         O           -0.596821181196    -1.588079231701    -1.194653964039    15.994914619570
         O            0.465043618804    -1.762248631701     1.204555535961    15.994914619570
         C           -1.792814381196     0.993235368299    -0.433414464039    12.000000000000
         C            1.957257618804     0.823071368299     0.381826535961    12.000000000000
         C           -2.808858381196     1.839603368299     0.293769535961    12.000000000000
         C            2.885938618804     1.679968368299    -0.448078464039    12.000000000000
         H           -1.006584381196     1.600168368299    -0.895940464039     1.007825032230
         H           -2.260426381196     0.371051368299    -1.203613464039     1.007825032230
         H            1.321464618804     1.432510368299     1.033123535961     1.007825032230
         H            2.503316618804     0.104260368299     0.996401535961     1.007825032230
         H           -3.302164381196     2.516862368299    -0.410490464039     1.007825032230
         H           -3.567461381196     1.207346368299     0.762036535961     1.007825032230
         H           -2.321841381196     2.433667368299     1.073902535961     1.007825032230
         H            3.553484618804     2.252398368299     0.205259535961     1.007825032230
         H            3.492682618804     1.053724368299    -1.108217464039     1.007825032230
         H            2.314394618804     2.377494368299    -1.063534464039     1.007825032230
         H           -0.241207381196    -2.480479631701    -1.275351464039     1.007825032230

  Basis Set: AUG-CC-PVTZ
    Blend: AUG-CC-PVTZ
  Basis Set: (AUG-CC-PVTZ AUX)
    Blend: AUG-CC-PVTZ-JKFIT
	 Reference Energy          =    -798.3891032459034705 [Eh]
	 Singles Energy            =      -0.0000000000000000 [Eh]
	 Same-Spin Energy          =      -0.4895502789189359 [Eh]
	 Opposite-Spin Energy      =      -1.5377186140969523 [Eh]
	 Correlation Energy        =      -2.0272688930158882 [Eh]
	 Total Energy              =    -800.4163721389193142 [Eh]

	 ================> DF-SCS-MP2 Energies <==================
	-----------------------------------------------------------
	 SCS Same-Spin Scale       =       0.3333333333333333 [-]
	 SCS Opposite-Spin Scale   =       1.2000000000000000 [-]
	 SCS Same-Spin Energy      =      -0.1631834263063120 [Eh]
	 SCS Opposite-Spin Energy  =      -1.8452623369163428 [Eh]
	 SCS Correlation Energy    =      -2.0084457632226549 [Eh]
	 SCS Total Energy          =    -800.3975490091261236 [Eh]
	-----------------------------------------------------------

  Dipole Moment: [D]
     X:    -0.1344      Y:     2.6832      Z:    -2.2376     Total:     3.4963

*** Psi4 exiting successfully. Buy a developer a beer!
