                               Psi4 1.4a3.dev225

  ==> Input File <==

--------------------------------------------------------------------------
#psi4
#
memory 32 gb

molecule  {
0 1
  P       -0.0193980    -0.9573280    -0.1096150
  O        1.2162340    -0.0269160    -0.5415020
  O       -1.1156210     0.0613730     0.5053800
  O        0.5163150    -1.6599550     1.2462920
  O       -0.4960840    -1.8598830    -1.1802340
  C        1.8380650     0.8393470     0.4463000
  C       -1.9139900     0.7949960    -0.4653280
  C        2.8342980     1.7043970    -0.2898420
  C       -2.8451070     1.6924310     0.3153960
  H        1.0482341     1.4486208     0.9426263
  H        2.3223620     0.2121780     1.1993520
  H       -1.2444800     1.3745780    -1.1102950
  H       -2.4582310     0.0769500    -1.0841060
  H        3.3419030     2.3695990     0.4147870
  H        3.5818500     1.0824000    -0.7858930
  H        2.3288000     2.3113610    -1.0437700
  H       -3.4753290     2.2644580    -0.3716610
  H       -3.4879190     1.0956960     0.9656320
  H       -2.2756200     2.3909680     0.9321420
  H        0.1488640    -2.5599310     1.3156750
units angstrom
no_reorient  #important for SAPT in psi4, default
symmetry c1  #important for SAPT in psi4, default
}

set PROPERTIES_ORIGIN ["COM"]
properties('MP2/aug-cc-pvtz', properties = ['dipole'])
--------------------------------------------------------------------------

    Molecular point group: c1
  Charge       = 0
  Multiplicity = 1
  Basis Set: AUG-CC-PVTZ
    Blend: AUG-CC-PVTZ
  Basis Set: (AUG-CC-PVTZ AUX)
    Blend: AUG-CC-PVTZ-JKFIT

    Orbital Energies [Eh]
    ---------------------

    Doubly Occupied:

       1A    -80.105124     2A    -20.604990     3A    -20.591387
       4A    -20.590369     5A    -20.511605     6A    -11.303049
       7A    -11.298909     8A    -11.229821     9A    -11.229753
      10A     -7.620571    11A     -5.519089    12A     -5.518583
      13A     -5.517596    14A     -1.446049    15A     -1.379104
      16A     -1.376644    17A     -1.292017    18A     -1.041166
      19A     -1.033390    20A     -0.873095    21A     -0.863167
      22A     -0.812277    23A     -0.729241    24A     -0.714488
      25A     -0.682892    26A     -0.656105    27A     -0.651888
      28A     -0.618177    29A     -0.605647    30A     -0.576484
      31A     -0.565907    32A     -0.563703    33A     -0.544705
      34A     -0.539204    35A     -0.534979    36A     -0.518114
      37A     -0.503347    38A     -0.480376    39A     -0.478077
      40A     -0.465790    41A     -0.460841

  @DF-RHF Final Energy:  -798.38815142539750

   => Energetics <=

    Nuclear Repulsion Energy =            627.5234147046788848
    One-Electron Energy =               -2346.5276920376086309
    Two-Electron Energy =                 920.6161259075321368
    Total Energy =                       -798.3881514253974956
  Basis Set: (AUG-CC-PVTZ AUX)
    Blend: AUG-CC-PVTZ-RI
    Molecular point group: c1

    Geometry (in Angstrom), charge = 0, multiplicity = 1:

       Center              X                  Y                   Z               Mass
    ------------   -----------------  -----------------  -----------------  -----------------
         P           -0.020179355897    -0.873810019362    -0.100183597836    30.973761998420
         O            1.215452644103     0.056601980638    -0.532070597836    15.994914619570
         O           -1.116402355897     0.144890980638     0.514811402164    15.994914619570
         O            0.515533644103    -1.576437019362     1.255723402164    15.994914619570
         O           -0.496865355897    -1.776365019362    -1.170802597836    15.994914619570
         C            1.837283644103     0.922864980638     0.455731402164    12.000000000000
         C           -1.914771355897     0.878513980638    -0.455896597836    12.000000000000
         C            2.833516644103     1.787914980638    -0.280410597836    12.000000000000
         C           -2.845888355897     1.775948980638     0.324827402164    12.000000000000
         H            1.047452744103     1.532138780638     0.952057702164     1.007825032230
         H            2.321580644103     0.295695980638     1.208783402164     1.007825032230
         H           -1.245261355897     1.458095980638    -1.100863597836     1.007825032230
         H           -2.459012355897     0.160467980638    -1.074674597836     1.007825032230
         H            3.341121644103     2.453116980638     0.424218402164     1.007825032230
         H            3.581068644103     1.165917980638    -0.776461597836     1.007825032230
         H            2.328018644103     2.394878980638    -1.034338597836     1.007825032230
         H           -3.476110355897     2.347975980638    -0.362229597836     1.007825032230
         H           -3.488700355897     1.179213980638     0.975063402164     1.007825032230
         H           -2.276401355897     2.474485980638     0.941573402164     1.007825032230
         H            0.148082644103    -2.476413019362     1.325106402164     1.007825032230

  Basis Set: AUG-CC-PVTZ
    Blend: AUG-CC-PVTZ
  Basis Set: (AUG-CC-PVTZ AUX)
    Blend: AUG-CC-PVTZ-JKFIT
	 Reference Energy          =    -798.3881514253974956 [Eh]
	 Singles Energy            =      -0.0000000000000000 [Eh]
	 Same-Spin Energy          =      -0.4897172060349405 [Eh]
	 Opposite-Spin Energy      =      -1.5381250665004231 [Eh]
	 Correlation Energy        =      -2.0278422725353638 [Eh]
	 Total Energy              =    -800.4159936979328904 [Eh]

	 ================> DF-SCS-MP2 Energies <==================
	-----------------------------------------------------------
	 SCS Same-Spin Scale       =       0.3333333333333333 [-]
	 SCS Opposite-Spin Scale   =       1.2000000000000000 [-]
	 SCS Same-Spin Energy      =      -0.1632390686783135 [Eh]
	 SCS Opposite-Spin Energy  =      -1.8457500798005078 [Eh]
	 SCS Correlation Energy    =      -2.0089891484788214 [Eh]
	 SCS Total Energy          =    -800.3971405738762996 [Eh]
	-----------------------------------------------------------

  Dipole Moment: [D]
     X:     0.1448      Y:     2.6502      Z:     2.0937     Total:     3.3806

*** Psi4 exiting successfully. Buy a developer a beer!
