                               Psi4 1.3.2 release

  ==> Input File <==

--------------------------------------------------------------------------
#psi4
#
memory 32 gb

molecule  {
0 1
  P       -0.0032580    -0.8671950     0.1253540
  O       -1.1867680     0.1204360     0.5615740
  O        1.0734456     0.1105365    -0.5817555
  O       -0.6066630    -1.5809190    -1.1923580
  O        0.4189345    -1.7806806     1.2102607
  C       -1.7907810     0.9929110    -0.4324270
  C        1.9592910     0.8227470     0.3828140
  C       -2.8068250     1.8392790     0.2947570
  C        2.8879720     1.6796440    -0.4470910
  H       -1.0045510     1.5998440    -0.8949530
  H       -2.2583930     0.3707270    -1.2026260
  H        1.3234980     1.4321860     1.0341110
  H        2.5053500     0.1039360     0.9973890
  H       -3.3001310     2.5165380    -0.4095030
  H       -3.5654280     1.2070220     0.7630240
  H       -2.3198080     2.4333430     1.0748900
  H        3.5555180     2.2520740     0.2062470
  H        3.4947160     1.0534000    -1.1072300
  H        2.3164280     2.3771700    -1.0625470
  H       -0.2391740    -2.4808040    -1.2743640
units angstrom
no_reorient  #important for SAPT in psi4, default
symmetry c1  #important for SAPT in psi4, default
}

set PROPERTIES_ORIGIN ["COM"]
properties('MP2/aug-cc-pvtz', properties = ['dipole'])
--------------------------------------------------------------------------

    Molecular point group: c1
  Charge       = 0
  Multiplicity = 1
  Basis Set: AUG-CC-PVTZ
    Blend: AUG-CC-PVTZ
  Basis Set: (AUG-CC-PVTZ AUX)
    Blend: AUG-CC-PVTZ-JKFIT

    Orbital Energies [Eh]
    ---------------------

    Doubly Occupied:

       1A    -80.102259     2A    -20.600033     3A    -20.593707
       4A    -20.587036     5A    -20.512811     6A    -11.305429
       7A    -11.298577     8A    -11.233534     9A    -11.228218
      10A     -7.618016    11A     -5.516561    12A     -5.516085
      13A     -5.514949    14A     -1.444070    15A     -1.375518
      16A     -1.370369    17A     -1.292114    18A     -1.042293
      19A     -1.033992    20A     -0.871151    21A     -0.862824
      22A     -0.812272    23A     -0.726302    24A     -0.712963
      25A     -0.680267    26A     -0.655198    27A     -0.650149
      28A     -0.616570    29A     -0.603345    30A     -0.576564
      31A     -0.564307    32A     -0.561611    33A     -0.544313
      34A     -0.537193    35A     -0.531934    36A     -0.522872
      37A     -0.504102    38A     -0.483832    39A     -0.477973
      40A     -0.465994    41A     -0.462949

  @DF-RHF Final Energy:  -798.38523819228942

   => Energetics <=

    Nuclear Repulsion Energy =            627.7406484247131857
    One-Electron Energy =               -2347.0312609501270344
    Two-Electron Energy =                 920.9053743331245414
    Total Energy =                       -798.3852381922894210
  Basis Set: (AUG-CC-PVTZ AUX)
    Blend: AUG-CC-PVTZ-RI
    Molecular point group: c1

    Geometry (in Angstrom), charge = 0, multiplicity = 1:

       Center              X                  Y                   Z               Mass
    ------------   -----------------  -----------------  -----------------  -----------------
         P            0.005884536066    -0.867498011540     0.128388069804    30.973761998420
         O           -1.177625463934     0.120132988460     0.564608069804    15.994914619570
         O            1.082588136066     0.110233488460    -0.578721430196    15.994914619570
         O           -0.597520463934    -1.581222011540    -1.189323930196    15.994914619570
         O            0.428077036066    -1.780983611540     1.213294769804    15.994914619570
         C           -1.781638463934     0.992607988460    -0.429392930196    12.000000000000
         C            1.968433536066     0.822443988460     0.385848069804    12.000000000000
         C           -2.797682463934     1.838975988460     0.297791069804    12.000000000000
         C            2.897114536066     1.679340988460    -0.444056930196    12.000000000000
         H           -0.995408463934     1.599540988460    -0.891918930196     1.007825032230
         H           -2.249250463934     0.370423988460    -1.199591930196     1.007825032230
         H            1.332640536066     1.431882988460     1.037145069804     1.007825032230
         H            2.514492536066     0.103632988460     1.000423069804     1.007825032230
         H           -3.290988463934     2.516234988460    -0.406468930196     1.007825032230
         H           -3.556285463934     1.206718988460     0.766058069804     1.007825032230
         H           -2.310665463934     2.433039988460     1.077924069804     1.007825032230
         H            3.564660536066     2.251770988460     0.209281069804     1.007825032230
         H            3.503858536066     1.053096988460    -1.104195930196     1.007825032230
         H            2.325570536066     2.376866988460    -1.059512930196     1.007825032230
         H           -0.230031463934    -2.481107011540    -1.271329930196     1.007825032230

  Basis Set: AUG-CC-PVTZ
    Blend: AUG-CC-PVTZ
  Basis Set: (AUG-CC-PVTZ AUX)
    Blend: AUG-CC-PVTZ-JKFIT
	 Reference Energy          =    -798.3852381922894210 [Eh]
	 Singles Energy            =      -0.0000000000000000 [Eh]
	 Same-Spin Energy          =      -0.4900557293450615 [Eh]
	 Opposite-Spin Energy      =      -1.5391139423425406 [Eh]
	 Correlation Energy        =      -2.0291696716876020 [Eh]
	 Total Energy              =    -800.4144078639769759 [Eh]

	 ================> DF-SCS-MP2 Energies <==================
	-----------------------------------------------------------
	 SCS Same-Spin Scale       =       0.3333333333333333 [-]
	 SCS Opposite-Spin Scale   =       1.2000000000000000 [-]
	 SCS Same-Spin Energy      =      -0.1633519097816871 [Eh]
	 SCS Opposite-Spin Energy  =      -1.8469367308110487 [Eh]
	 SCS Correlation Energy    =      -2.0102886405927358 [Eh]
	 SCS Total Energy          =    -800.3955268328821830 [Eh]
	-----------------------------------------------------------

  Dipole Moment: [D]
     X:     0.2994      Y:     2.7186      Z:    -2.1112     Total:     3.4551

*** Psi4 exiting successfully. Buy a developer a beer!
