                               Psi4 1.4a3.dev225

  ==> Input File <==

--------------------------------------------------------------------------
#psi4
#
memory 32 gb

molecule  {
0 1
  P       -0.0193980    -0.9573280    -0.1096150
  O        1.2008455    -0.0385033    -0.5361233
  O       -1.1156210     0.0613730     0.5053800
  O        0.5163150    -1.6599550     1.2462920
  O       -0.4960840    -1.8598830    -1.1802340
  C        1.8380650     0.8393470     0.4463000
  C       -1.9139900     0.7949960    -0.4653280
  C        2.8342980     1.7043970    -0.2898420
  C       -2.8451070     1.6924310     0.3153960
  H        1.0624120     1.4376840     0.9337170
  H        2.3223620     0.2121780     1.1993520
  H       -1.2444800     1.3745780    -1.1102950
  H       -2.4582310     0.0769500    -1.0841060
  H        3.3419030     2.3695990     0.4147870
  H        3.5818500     1.0824000    -0.7858930
  H        2.3288000     2.3113610    -1.0437700
  H       -3.4753290     2.2644580    -0.3716610
  H       -3.4879190     1.0956960     0.9656320
  H       -2.2756200     2.3909680     0.9321420
  H        0.1488640    -2.5599310     1.3156750
units angstrom
no_reorient  #important for SAPT in psi4, default
symmetry c1  #important for SAPT in psi4, default
}

set PROPERTIES_ORIGIN ["COM"]
properties('MP2/aug-cc-pvtz', properties = ['dipole'])
--------------------------------------------------------------------------

    Molecular point group: c1
  Charge       = 0
  Multiplicity = 1
  Basis Set: AUG-CC-PVTZ
    Blend: AUG-CC-PVTZ
  Basis Set: (AUG-CC-PVTZ AUX)
    Blend: AUG-CC-PVTZ-JKFIT

    Orbital Energies [Eh]
    ---------------------

    Doubly Occupied:

       1A    -80.101956     2A    -20.603259     3A    -20.591061
       4A    -20.588608     5A    -20.509397     6A    -11.303669
       7A    -11.298149     8A    -11.231579     9A    -11.229256
      10A     -7.617821    11A     -5.516362    12A     -5.515858
      13A     -5.514834    14A     -1.447015    15A     -1.378544
      16A     -1.376110    17A     -1.290064    18A     -1.043161
      19A     -1.034175    20A     -0.873717    21A     -0.865273
      22A     -0.811568    23A     -0.729442    24A     -0.715354
      25A     -0.682830    26A     -0.657049    27A     -0.650908
      28A     -0.617208    29A     -0.606546    30A     -0.576393
      31A     -0.566126    32A     -0.563554    33A     -0.545325
      34A     -0.539344    35A     -0.534474    36A     -0.519626
      37A     -0.503698    38A     -0.482227    39A     -0.479126
      40A     -0.464172    41A     -0.459127

  @DF-RHF Final Energy:  -798.38970617969392

   => Energetics <=

    Nuclear Repulsion Energy =            628.1849199369493135
    One-Electron Energy =               -2347.8813283301474257
    Two-Electron Energy =                 921.3067022135040816
    Total Energy =                       -798.3897061796939170
  Basis Set: (AUG-CC-PVTZ AUX)
    Blend: AUG-CC-PVTZ-RI
    Molecular point group: c1

    Geometry (in Angstrom), charge = 0, multiplicity = 1:

       Center              X                  Y                   Z               Mass
    ------------   -----------------  -----------------  -----------------  -----------------
         P           -0.018674229566    -0.872535279699    -0.100683812611    30.973761998420
         O            1.201569270434     0.046289420301    -0.527192112611    15.994914619570
         O           -1.114897229566     0.146165720301     0.514311187389    15.994914619570
         O            0.517038770434    -1.575162279699     1.255223187389    15.994914619570
         O           -0.495360229566    -1.775090279699    -1.171302812611    15.994914619570
         C            1.838788770434     0.924139720301     0.455231187389    12.000000000000
         C           -1.913266229566     0.879788720301    -0.456396812611    12.000000000000
         C            2.835021770434     1.789189720301    -0.280910812611    12.000000000000
         C           -2.844383229566     1.777223720301     0.324327187389    12.000000000000
         H            1.063135770434     1.522476720301     0.942648187389     1.007825032230
         H            2.323085770434     0.296970720301     1.208283187389     1.007825032230
         H           -1.243756229566     1.459370720301    -1.101363812611     1.007825032230
         H           -2.457507229566     0.161742720301    -1.075174812611     1.007825032230
         H            3.342626770434     2.454391720301     0.423718187389     1.007825032230
         H            3.582573770434     1.167192720301    -0.776961812611     1.007825032230
         H            2.329523770434     2.396153720301    -1.034838812611     1.007825032230
         H           -3.474605229566     2.349250720301    -0.362729812611     1.007825032230
         H           -3.487195229566     1.180488720301     0.974563187389     1.007825032230
         H           -2.274896229566     2.475760720301     0.941073187389     1.007825032230
         H            0.149587770434    -2.475138279699     1.324606187389     1.007825032230

  Basis Set: AUG-CC-PVTZ
    Blend: AUG-CC-PVTZ
  Basis Set: (AUG-CC-PVTZ AUX)
    Blend: AUG-CC-PVTZ-JKFIT
	 Reference Energy          =    -798.3897061796939170 [Eh]
	 Singles Energy            =      -0.0000000000000000 [Eh]
	 Same-Spin Energy          =      -0.4894179415120723 [Eh]
	 Opposite-Spin Energy      =      -1.5373466239416786 [Eh]
	 Correlation Energy        =      -2.0267645654537509 [Eh]
	 Total Energy              =    -800.4164707451476488 [Eh]

	 ================> DF-SCS-MP2 Energies <==================
	-----------------------------------------------------------
	 SCS Same-Spin Scale       =       0.3333333333333333 [-]
	 SCS Opposite-Spin Scale   =       1.2000000000000000 [-]
	 SCS Same-Spin Energy      =      -0.1631393138373574 [Eh]
	 SCS Opposite-Spin Energy  =      -1.8448159487300142 [Eh]
	 SCS Correlation Energy    =      -2.0079552625673718 [Eh]
	 SCS Total Energy          =    -800.3976614422613238 [Eh]
	-----------------------------------------------------------

  Dipole Moment: [D]
     X:     0.2763      Y:     2.7547      Z:     2.1007     Total:     3.4753

*** Psi4 exiting successfully. Buy a developer a beer!
