                               Psi4 1.3.2 release

  ==> Input File <==

--------------------------------------------------------------------------
#psi4
#
memory 32 gb

molecule  {
0 1
  P       -0.0032580    -0.8671950     0.1253540
  O       -1.1867680     0.1204360     0.5615740
  O        1.1133490     0.0895100    -0.5478160
  O       -0.6066630    -1.5809190    -1.1923580
  O        0.4670770    -1.7625730     1.2055430
  C       -1.7907810     0.9929110    -0.4324270
  C        1.9592910     0.8227470     0.3828140
  C       -2.8068250     1.8392790     0.2947570
  C        2.8879720     1.6796440    -0.4470910
  H       -1.0045510     1.5998440    -0.8949530
  H       -2.2583930     0.3707270    -1.2026260
  H        1.3234980     1.4321860     1.0341110
  H        2.5053500     0.1039360     0.9973890
  H       -3.3001310     2.5165380    -0.4095030
  H       -3.5654280     1.2070220     0.7630240
  H       -2.3198080     2.4333430     1.0748900
  H        3.5555180     2.2520740     0.2062470
  H        3.4947160     1.0534000    -1.1072300
  H        2.3164280     2.3771700    -1.0625470
  H       -0.1638289    -2.6653045    -1.2911774
units angstrom
no_reorient  #important for SAPT in psi4, default
symmetry c1  #important for SAPT in psi4, default
}

set PROPERTIES_ORIGIN ["COM"]
properties('MP2/aug-cc-pvtz', properties = ['dipole'])
--------------------------------------------------------------------------

    Molecular point group: c1
  Charge       = 0
  Multiplicity = 1
  Basis Set: AUG-CC-PVTZ
    Blend: AUG-CC-PVTZ
  Basis Set: (AUG-CC-PVTZ AUX)
    Blend: AUG-CC-PVTZ-JKFIT

    Orbital Energies [Eh]
    ---------------------

    Doubly Occupied:

       1A    -80.100257     2A    -20.613145     3A    -20.589367
       4A    -20.588011     5A    -20.507645     6A    -11.299891
       7A    -11.297664     8A    -11.229374     9A    -11.228880
      10A     -7.615887    11A     -5.514358    12A     -5.513945
      13A     -5.512909    14A     -1.437907    15A     -1.375014
      16A     -1.350534    17A     -1.286710    18A     -1.039814
      19A     -1.032265    20A     -0.868278    21A     -0.862135
      22A     -0.795201    23A     -0.717023    24A     -0.704233
      25A     -0.673349    26A     -0.655259    27A     -0.641107
      28A     -0.613071    29A     -0.598320    30A     -0.572163
      31A     -0.563135    32A     -0.559941    33A     -0.542221
      34A     -0.537191    35A     -0.530019    36A     -0.517803
      37A     -0.501391    38A     -0.478939    39A     -0.477357
      40A     -0.461532    41A     -0.457648

  @DF-RHF Final Energy:  -798.35357954954293

   => Energetics <=

    Nuclear Repulsion Energy =            626.8623459903677713
    One-Electron Energy =               -2345.5100626363655465
    Two-Electron Energy =                 920.2941370964547332
    Total Energy =                       -798.3535795495429284
  Basis Set: (AUG-CC-PVTZ AUX)
    Blend: AUG-CC-PVTZ-RI
    Molecular point group: c1

    Geometry (in Angstrom), charge = 0, multiplicity = 1:

       Center              X                  Y                   Z               Mass
    ------------   -----------------  -----------------  -----------------  -----------------
         P           -0.003750793646    -0.865987802893     0.125463785820    30.973761998420
         O           -1.187260793646     0.121643197107     0.561683785820    15.994914619570
         O            1.112856206354     0.090717197107    -0.547706214180    15.994914619570
         O           -0.607155793646    -1.579711802893    -1.192248214180    15.994914619570
         O            0.466584206354    -1.761365802893     1.205652785820    15.994914619570
         C           -1.791273793646     0.994118197107    -0.432317214180    12.000000000000
         C            1.958798206354     0.823954197107     0.382923785820    12.000000000000
         C           -2.807317793646     1.840486197107     0.294866785820    12.000000000000
         C            2.887479206354     1.680851197107    -0.446981214180    12.000000000000
         H           -1.005043793646     1.601051197107    -0.894843214180     1.007825032230
         H           -2.258885793646     0.371934197107    -1.202516214180     1.007825032230
         H            1.323005206354     1.433393197107     1.034220785820     1.007825032230
         H            2.504857206354     0.105143197107     0.997498785820     1.007825032230
         H           -3.300623793646     2.517745197107    -0.409393214180     1.007825032230
         H           -3.565920793646     1.208229197107     0.763133785820     1.007825032230
         H           -2.320300793646     2.434550197107     1.074999785820     1.007825032230
         H            3.555025206354     2.253281197107     0.206356785820     1.007825032230
         H            3.494223206354     1.054607197107    -1.107120214180     1.007825032230
         H            2.315935206354     2.378377197107    -1.062437214180     1.007825032230
         H           -0.164321693646    -2.664097302893    -1.291067614180     1.007825032230

  Basis Set: AUG-CC-PVTZ
    Blend: AUG-CC-PVTZ
  Basis Set: (AUG-CC-PVTZ AUX)
    Blend: AUG-CC-PVTZ-JKFIT
	 Reference Energy          =    -798.3535795495429284 [Eh]
	 Singles Energy            =      -0.0000000000000000 [Eh]
	 Same-Spin Energy          =      -0.4918120448970447 [Eh]
	 Opposite-Spin Energy      =      -1.5437246857481590 [Eh]
	 Correlation Energy        =      -2.0355367306452035 [Eh]
	 Total Energy              =    -800.3891162801880910 [Eh]

	 ================> DF-SCS-MP2 Energies <==================
	-----------------------------------------------------------
	 SCS Same-Spin Scale       =       0.3333333333333333 [-]
	 SCS Opposite-Spin Scale   =       1.2000000000000000 [-]
	 SCS Same-Spin Energy      =      -0.1639373482990149 [Eh]
	 SCS Opposite-Spin Energy  =      -1.8524696228977908 [Eh]
	 SCS Correlation Energy    =      -2.0164069711968056 [Eh]
	 SCS Total Energy          =    -800.3699865207397579 [Eh]
	-----------------------------------------------------------

  Dipole Moment: [D]
     X:    -0.0114      Y:     2.3277      Z:    -2.3172     Total:     3.2845

*** Psi4 exiting successfully. Buy a developer a beer!
