                               Psi4 1.3.2 release

  ==> Input File <==

--------------------------------------------------------------------------
#psi4
#
memory 32 gb

molecule  {
0 1
  P       -0.0032580    -0.8671950     0.1253540
  O       -1.1867680     0.1204360     0.5615740
  O        1.1551024     0.0688226    -0.5680831
  O       -0.6066630    -1.5809190    -1.1923580
  O        0.4670770    -1.7625730     1.2055430
  C       -1.7907810     0.9929110    -0.4324270
  C        1.9592910     0.8227470     0.3828140
  C       -2.8068250     1.8392790     0.2947570
  C        2.8879720     1.6796440    -0.4470910
  H       -1.0045510     1.5998440    -0.8949530
  H       -2.2583930     0.3707270    -1.2026260
  H        1.3549316     1.4448997     1.0517775
  H        2.5053500     0.1039360     0.9973890
  H       -3.3001310     2.5165380    -0.4095030
  H       -3.5654280     1.2070220     0.7630240
  H       -2.3198080     2.4333430     1.0748900
  H        3.5555180     2.2520740     0.2062470
  H        3.4947160     1.0534000    -1.1072300
  H        2.3164280     2.3771700    -1.0625470
  H       -0.2391740    -2.4808040    -1.2743640
units angstrom
no_reorient  #important for SAPT in psi4, default
symmetry c1  #important for SAPT in psi4, default
}

set PROPERTIES_ORIGIN ["COM"]
properties('MP2/aug-cc-pvtz', properties = ['dipole'])
--------------------------------------------------------------------------

    Molecular point group: c1
  Charge       = 0
  Multiplicity = 1
  Basis Set: AUG-CC-PVTZ
    Blend: AUG-CC-PVTZ
  Basis Set: (AUG-CC-PVTZ AUX)
    Blend: AUG-CC-PVTZ-JKFIT

    Orbital Energies [Eh]
    ---------------------

    Doubly Occupied:

       1A    -80.107024     2A    -20.605554     3A    -20.595249
       4A    -20.591627     5A    -20.511876     6A    -11.303251
       7A    -11.296945     8A    -11.231291     9A    -11.228330
      10A     -7.622246    11A     -5.520820    12A     -5.520179
      13A     -5.519220    14A     -1.445501    15A     -1.381023
      16A     -1.374544    17A     -1.291998    18A     -1.041910
      19A     -1.032308    20A     -0.871413    21A     -0.863342
      22A     -0.815260    23A     -0.729943    24A     -0.715237
      25A     -0.681148    26A     -0.658884    27A     -0.651098
      28A     -0.616605    29A     -0.607696    30A     -0.576934
      31A     -0.565634    32A     -0.561094    33A     -0.545625
      34A     -0.538548    35A     -0.533310    36A     -0.519971
      37A     -0.503771    38A     -0.482102    39A     -0.479608
      40A     -0.465788    41A     -0.459925

  @DF-RHF Final Energy:  -798.38553588744935

   => Energetics <=

    Nuclear Repulsion Energy =            626.8951957854326338
    One-Electron Energy =               -2345.2337991877820969
    Two-Electron Energy =                 919.9530675149001127
    Total Energy =                       -798.3855358874493504
  Basis Set: (AUG-CC-PVTZ AUX)
    Blend: AUG-CC-PVTZ-RI
    Molecular point group: c1

    Geometry (in Angstrom), charge = 0, multiplicity = 1:

       Center              X                  Y                   Z               Mass
    ------------   -----------------  -----------------  -----------------  -----------------
         P           -0.007799021380    -0.865129998286     0.127342659976    30.973761998420
         O           -1.191309021380     0.122501001714     0.563562659976    15.994914619570
         O            1.150561378620     0.070887601714    -0.566094440024    15.994914619570
         O           -0.611204021380    -1.578853998286    -1.190369340024    15.994914619570
         O            0.462535978620    -1.760507998286     1.207531659976    15.994914619570
         C           -1.795322021380     0.994976001714    -0.430438340024    12.000000000000
         C            1.954749978620     0.824812001714     0.384802659976    12.000000000000
         C           -2.811366021380     1.841344001714     0.296745659976    12.000000000000
         C            2.883430978620     1.681709001714    -0.445102340024    12.000000000000
         H           -1.009092021380     1.601909001714    -0.892964340024     1.007825032230
         H           -2.262934021380     0.372792001714    -1.200637340024     1.007825032230
         H            1.350390578620     1.446964701714     1.053766159976     1.007825032230
         H            2.500808978620     0.106001001714     0.999377659976     1.007825032230
         H           -3.304672021380     2.518603001714    -0.407514340024     1.007825032230
         H           -3.569969021380     1.209087001714     0.765012659976     1.007825032230
         H           -2.324349021380     2.435408001714     1.076878659976     1.007825032230
         H            3.550976978620     2.254139001714     0.208235659976     1.007825032230
         H            3.490174978620     1.055465001714    -1.105241340024     1.007825032230
         H            2.311886978620     2.379235001714    -1.060558340024     1.007825032230
         H           -0.243715021380    -2.478738998286    -1.272375340024     1.007825032230

  Basis Set: AUG-CC-PVTZ
    Blend: AUG-CC-PVTZ
  Basis Set: (AUG-CC-PVTZ AUX)
    Blend: AUG-CC-PVTZ-JKFIT
	 Reference Energy          =    -798.3855358874493504 [Eh]
	 Singles Energy            =      -0.0000000000000000 [Eh]
	 Same-Spin Energy          =      -0.4901061475169676 [Eh]
	 Opposite-Spin Energy      =      -1.5390668839112078 [Eh]
	 Correlation Energy        =      -2.0291730314281753 [Eh]
	 Total Energy              =    -800.4147089188775226 [Eh]

	 ================> DF-SCS-MP2 Energies <==================
	-----------------------------------------------------------
	 SCS Same-Spin Scale       =       0.3333333333333333 [-]
	 SCS Opposite-Spin Scale   =       1.2000000000000000 [-]
	 SCS Same-Spin Energy      =      -0.1633687158389892 [Eh]
	 SCS Opposite-Spin Energy  =      -1.8468802606934493 [Eh]
	 SCS Correlation Energy    =      -2.0102489765324387 [Eh]
	 SCS Total Energy          =    -800.3957848639818167 [Eh]
	-----------------------------------------------------------

  Dipole Moment: [D]
     X:    -0.2726      Y:     2.6452      Z:    -2.1589     Total:     3.4252

*** Psi4 exiting successfully. Buy a developer a beer!
