                               Psi4 1.3.2 release

  ==> Input File <==

--------------------------------------------------------------------------
#psi4
#
memory 32 gb

molecule  {
0 1
  P       -0.0032580    -0.8671950     0.1253540
  O       -1.1867680     0.1204360     0.5615740
  O        1.1133490     0.0895100    -0.5478160
  O       -0.5915695    -1.6557807    -1.1560073
  O        0.4463928    -1.8229943     1.1616874
  C       -1.7907810     0.9929110    -0.4324270
  C        1.9592910     0.8227470     0.3828140
  C       -2.8068250     1.8392790     0.2947570
  C        2.8879720     1.6796440    -0.4470910
  H       -1.0045510     1.5998440    -0.8949530
  H       -2.2583930     0.3707270    -1.2026260
  H        1.3234980     1.4321860     1.0341110
  H        2.5053500     0.1039360     0.9973890
  H       -3.3001310     2.5165380    -0.4095030
  H       -3.5654280     1.2070220     0.7630240
  H       -2.3198080     2.4333430     1.0748900
  H        3.5555180     2.2520740     0.2062470
  H        3.4947160     1.0534000    -1.1072300
  H        2.3164280     2.3771700    -1.0625470
  H       -0.2391740    -2.4808040    -1.2743640
units angstrom
no_reorient  #important for SAPT in psi4, default
symmetry c1  #important for SAPT in psi4, default
}

set PROPERTIES_ORIGIN ["COM"]
properties('MP2/aug-cc-pvtz', properties = ['dipole'])
--------------------------------------------------------------------------

    Molecular point group: c1
  Charge       = 0
  Multiplicity = 1
  Basis Set: AUG-CC-PVTZ
    Blend: AUG-CC-PVTZ
  Basis Set: (AUG-CC-PVTZ AUX)
    Blend: AUG-CC-PVTZ-JKFIT

    Orbital Energies [Eh]
    ---------------------

    Doubly Occupied:

       1A    -80.105359     2A    -20.596328     3A    -20.594583
       4A    -20.590624     5A    -20.505758     6A    -11.304419
       7A    -11.302519     8A    -11.232583     9A    -11.232028
      10A     -7.620673    11A     -5.519189    12A     -5.518757
      13A     -5.517652    14A     -1.450294    15A     -1.389090
      16A     -1.380852    17A     -1.287519    18A     -1.044518
      19A     -1.036254    20A     -0.877918    21A     -0.866772
      22A     -0.823993    23A     -0.741322    24A     -0.718311
      25A     -0.684888    26A     -0.660663    27A     -0.648005
      28A     -0.621036    29A     -0.608358    30A     -0.577035
      31A     -0.565812    32A     -0.562902    33A     -0.546298
      34A     -0.541164    35A     -0.535520    36A     -0.522399
      37A     -0.505983    38A     -0.483564    39A     -0.482209
      40A     -0.460221    41A     -0.457302

  @DF-RHF Final Energy:  -798.38678269059608

   => Energetics <=

    Nuclear Repulsion Energy =            627.6409931340399453
    One-Electron Energy =               -2346.6142075765342270
    Two-Electron Energy =                 920.5864317518982034
    Total Energy =                       -798.3867826905960783
  Basis Set: (AUG-CC-PVTZ AUX)
    Blend: AUG-CC-PVTZ-RI
    Molecular point group: c1

    Geometry (in Angstrom), charge = 0, multiplicity = 1:

       Center              X                  Y                   Z               Mass
    ------------   -----------------  -----------------  -----------------  -----------------
         P           -0.002677319300    -0.853147616670     0.126133063973    30.973761998420
         O           -1.186187319300     0.134483383330     0.562353063973    15.994914619570
         O            1.113929680700     0.103557383330    -0.547036936027    15.994914619570
         O           -0.590988819300    -1.641733316670    -1.155228236027    15.994914619570
         O            0.446973480700    -1.808946916670     1.162466463973    15.994914619570
         C           -1.790200319300     1.006958383330    -0.431647936027    12.000000000000
         C            1.959871680700     0.836794383330     0.383593063973    12.000000000000
         C           -2.806244319300     1.853326383330     0.295536063973    12.000000000000
         C            2.888552680700     1.693691383330    -0.446311936027    12.000000000000
         H           -1.003970319300     1.613891383330    -0.894173936027     1.007825032230
         H           -2.257812319300     0.384774383330    -1.201846936027     1.007825032230
         H            1.324078680700     1.446233383330     1.034890063973     1.007825032230
         H            2.505930680700     0.117983383330     0.998168063973     1.007825032230
         H           -3.299550319300     2.530585383330    -0.408723936027     1.007825032230
         H           -3.564847319300     1.221069383330     0.763803063973     1.007825032230
         H           -2.319227319300     2.447390383330     1.075669063973     1.007825032230
         H            3.556098680700     2.266121383330     0.207026063973     1.007825032230
         H            3.495296680700     1.067447383330    -1.106450936027     1.007825032230
         H            2.317008680700     2.391217383330    -1.061767936027     1.007825032230
         H           -0.238593319300    -2.466756616670    -1.273584936027     1.007825032230

  Basis Set: AUG-CC-PVTZ
    Blend: AUG-CC-PVTZ
  Basis Set: (AUG-CC-PVTZ AUX)
    Blend: AUG-CC-PVTZ-JKFIT
	 Reference Energy          =    -798.3867826905960783 [Eh]
	 Singles Energy            =      -0.0000000000000000 [Eh]
	 Same-Spin Energy          =      -0.4885485452322835 [Eh]
	 Opposite-Spin Energy      =      -1.5354701215311048 [Eh]
	 Correlation Energy        =      -2.0240186667633884 [Eh]
	 Total Energy              =    -800.4108013573594462 [Eh]

	 ================> DF-SCS-MP2 Energies <==================
	-----------------------------------------------------------
	 SCS Same-Spin Scale       =       0.3333333333333333 [-]
	 SCS Opposite-Spin Scale   =       1.2000000000000000 [-]
	 SCS Same-Spin Energy      =      -0.1628495150774278 [Eh]
	 SCS Opposite-Spin Energy  =      -1.8425641458373256 [Eh]
	 SCS Correlation Energy    =      -2.0054136609147535 [Eh]
	 SCS Total Energy          =    -800.3921963515108473 [Eh]
	-----------------------------------------------------------

  Dipole Moment: [D]
     X:    -0.0195      Y:     3.1188      Z:    -2.1528     Total:     3.7897

*** Psi4 exiting successfully. Buy a developer a beer!
