                               Psi4 1.4a3.dev225

  ==> Input File <==

--------------------------------------------------------------------------
#psi4
#
memory 32 gb

molecule  {
0 1
  P       -0.0193980    -0.9573280    -0.1096150
  O        1.2162340    -0.0269160    -0.5415020
  O       -1.1156210     0.0613730     0.5053800
  O        0.5328659    -1.6816627     1.2881828
  O       -0.4960840    -1.8598830    -1.1802340
  C        1.8380650     0.8393470     0.4463000
  C       -1.9139900     0.7949960    -0.4653280
  C        2.8342980     1.7043970    -0.2898420
  C       -2.8451070     1.6924310     0.3153960
  H        1.0624120     1.4376840     0.9337170
  H        2.3223620     0.2121780     1.1993520
  H       -1.2444800     1.3745780    -1.1102950
  H       -2.4582310     0.0769500    -1.0841060
  H        3.3419030     2.3695990     0.4147870
  H        3.5818500     1.0824000    -0.7858930
  H        2.3288000     2.3113610    -1.0437700
  H       -3.4753290     2.2644580    -0.3716610
  H       -3.4879190     1.0956960     0.9656320
  H       -2.2756200     2.3909680     0.9321420
  H        0.1488640    -2.5599310     1.3156750
units angstrom
no_reorient  #important for SAPT in psi4, default
symmetry c1  #important for SAPT in psi4, default
}

set PROPERTIES_ORIGIN ["COM"]
properties('MP2/aug-cc-pvtz', properties = ['dipole'])
--------------------------------------------------------------------------

    Molecular point group: c1
  Charge       = 0
  Multiplicity = 1
  Basis Set: AUG-CC-PVTZ
    Blend: AUG-CC-PVTZ
  Basis Set: (AUG-CC-PVTZ AUX)
    Blend: AUG-CC-PVTZ-JKFIT

    Orbital Energies [Eh]
    ---------------------

    Doubly Occupied:

       1A    -80.110687     2A    -20.601746     3A    -20.594098
       4A    -20.593310     5A    -20.515894     6A    -11.301792
       7A    -11.300856     8A    -11.230982     9A    -11.230492
      10A     -7.625296    11A     -5.523706    12A     -5.523333
      13A     -5.522310    14A     -1.442090    15A     -1.378898
      16A     -1.373751    17A     -1.295460    18A     -1.042883
      19A     -1.035010    20A     -0.873617    21A     -0.865408
      22A     -0.808626    23A     -0.726703    24A     -0.714485
      25A     -0.683733    26A     -0.657387    27A     -0.648572
      28A     -0.619913    29A     -0.607227    30A     -0.573143
      31A     -0.566510    32A     -0.564144    33A     -0.546301
      34A     -0.540067    35A     -0.534079    36A     -0.520209
      37A     -0.505111    38A     -0.482203    39A     -0.480745
      40A     -0.468430    41A     -0.463842

  @DF-RHF Final Energy:  -798.38473985713711

   => Energetics <=

    Nuclear Repulsion Energy =            625.6125348847346004
    One-Electron Energy =               -2342.6084492046497871
    Two-Electron Energy =                 918.6111744627781945
    Total Energy =                       -798.3847398571371059
  Basis Set: (AUG-CC-PVTZ AUX)
    Blend: AUG-CC-PVTZ-RI
    Molecular point group: c1

    Geometry (in Angstrom), charge = 0, multiplicity = 1:

       Center              X                  Y                   Z               Mass
    ------------   -----------------  -----------------  -----------------  -----------------
         P           -0.021990703522    -0.871484413276    -0.104475099507    30.973761998420
         O            1.213641296478     0.058927586724    -0.536362099507    15.994914619570
         O           -1.118213703522     0.147216586724     0.510519900493    15.994914619570
         O            0.530273196478    -1.595819113276     1.293322700493    15.994914619570
         O           -0.498676703522    -1.774039413276    -1.175094099507    15.994914619570
         C            1.835472296478     0.925190586724     0.451439900493    12.000000000000
         C           -1.916582703522     0.880839586724    -0.460188099507    12.000000000000
         C            2.831705296478     1.790240586724    -0.284702099507    12.000000000000
         C           -2.847699703522     1.778274586724     0.320535900493    12.000000000000
         H            1.059819296478     1.523527586724     0.938856900493     1.007825032230
         H            2.319769296478     0.298021586724     1.204491900493     1.007825032230
         H           -1.247072703522     1.460421586724    -1.105155099507     1.007825032230
         H           -2.460823703522     0.162793586724    -1.078966099507     1.007825032230
         H            3.339310296478     2.455442586724     0.419926900493     1.007825032230
         H            3.579257296478     1.168243586724    -0.780753099507     1.007825032230
         H            2.326207296478     2.397204586724    -1.038630099507     1.007825032230
         H           -3.477921703522     2.350301586724    -0.366521099507     1.007825032230
         H           -3.490511703522     1.181539586724     0.970771900493     1.007825032230
         H           -2.278212703522     2.476811586724     0.937281900493     1.007825032230
         H            0.146271296478    -2.474087413276     1.320814900493     1.007825032230

  Basis Set: AUG-CC-PVTZ
    Blend: AUG-CC-PVTZ
  Basis Set: (AUG-CC-PVTZ AUX)
    Blend: AUG-CC-PVTZ-JKFIT
	 Reference Energy          =    -798.3847398571371059 [Eh]
	 Singles Energy            =      -0.0000000000000000 [Eh]
	 Same-Spin Energy          =      -0.4899634661996742 [Eh]
	 Opposite-Spin Energy      =      -1.5392226939992373 [Eh]
	 Correlation Energy        =      -2.0291861601989116 [Eh]
	 Total Energy              =    -800.4139260173360526 [Eh]

	 ================> DF-SCS-MP2 Energies <==================
	-----------------------------------------------------------
	 SCS Same-Spin Scale       =       0.3333333333333333 [-]
	 SCS Opposite-Spin Scale   =       1.2000000000000000 [-]
	 SCS Same-Spin Energy      =      -0.1633211553998914 [Eh]
	 SCS Opposite-Spin Energy  =      -1.8470672327990847 [Eh]
	 SCS Correlation Energy    =      -2.0103883881989759 [Eh]
	 SCS Total Energy          =    -800.3951282453360818 [Eh]
	-----------------------------------------------------------

  Dipole Moment: [D]
     X:     0.0552      Y:     2.8485      Z:     1.8592     Total:     3.4020

*** Psi4 exiting successfully. Buy a developer a beer!
