                               Psi4 1.3.2 release

  ==> Input File <==

--------------------------------------------------------------------------
#psi4
#
memory 32 gb

molecule  {
0 1
  P       -0.0032580    -0.8671950     0.1253540
  O       -1.1867680     0.1204360     0.5615740
  O        1.1133490     0.0895100    -0.5478160
  O       -0.6066630    -1.5809190    -1.1923580
  O        0.4670770    -1.7625730     1.2055430
  C       -1.7492392     0.9329054    -0.3640633
  C        1.9592910     0.8227470     0.3828140
  C       -2.8068250     1.8392790     0.2947570
  C        2.8879720     1.6796440    -0.4470910
  H       -1.0045510     1.5998440    -0.8949530
  H       -2.2583930     0.3707270    -1.2026260
  H        1.3234980     1.4321860     1.0341110
  H        2.5053500     0.1039360     0.9973890
  H       -3.3001310     2.5165380    -0.4095030
  H       -3.5654280     1.2070220     0.7630240
  H       -2.3198080     2.4333430     1.0748900
  H        3.5555180     2.2520740     0.2062470
  H        3.4947160     1.0534000    -1.1072300
  H        2.3164280     2.3771700    -1.0625470
  H       -0.2391740    -2.4808040    -1.2743640
units angstrom
no_reorient  #important for SAPT in psi4, default
symmetry c1  #important for SAPT in psi4, default
}

set PROPERTIES_ORIGIN ["COM"]
properties('MP2/aug-cc-pvtz', properties = ['dipole'])
--------------------------------------------------------------------------

    Molecular point group: c1
  Charge       = 0
  Multiplicity = 1
  Basis Set: AUG-CC-PVTZ
    Blend: AUG-CC-PVTZ
  Basis Set: (AUG-CC-PVTZ AUX)
    Blend: AUG-CC-PVTZ-JKFIT

    Orbital Energies [Eh]
    ---------------------

    Doubly Occupied:

       1A    -80.111421     2A    -20.608522     3A    -20.602653
       4A    -20.594246     5A    -20.516306     6A    -11.301538
       7A    -11.299762     8A    -11.231643     9A    -11.226405
      10A     -7.627046    11A     -5.525577    12A     -5.525068
      13A     -5.524019    14A     -1.465217    15A     -1.402840
      16A     -1.382036    17A     -1.297199    18A     -1.040424
      19A     -1.025356    20A     -0.879676    21A     -0.865220
      22A     -0.817173    23A     -0.736931    24A     -0.729099
      25A     -0.686564    26A     -0.657613    27A     -0.654982
      28A     -0.626488    29A     -0.622043    30A     -0.578138
      31A     -0.567072    32A     -0.563916    33A     -0.548875
      34A     -0.541283    35A     -0.537305    36A     -0.515821
      37A     -0.493260    38A     -0.479093    39A     -0.470977
      40A     -0.466414    41A     -0.459517

  @DF-RHF Final Energy:  -798.38111944700563

   => Energetics <=

    Nuclear Repulsion Energy =            630.1098714057687857
    One-Electron Energy =               -2351.3725153564582797
    Two-Electron Energy =                 922.8815245036837496
    Total Energy =                       -798.3811194470056307
  Basis Set: (AUG-CC-PVTZ AUX)
    Blend: AUG-CC-PVTZ-RI
    Molecular point group: c1

    Geometry (in Angstrom), charge = 0, multiplicity = 1:

       Center              X                  Y                   Z               Mass
    ------------   -----------------  -----------------  -----------------  -----------------
         P           -0.006494031150    -0.862520361152     0.120028106088    30.973761998420
         O           -1.190004031150     0.125110638848     0.556248106088    15.994914619570
         O            1.110112968850     0.094184638848    -0.553141893912    15.994914619570
         O           -0.609899031150    -1.576244361152    -1.197683893912    15.994914619570
         O            0.463840968850    -1.757898361152     1.200217106088    15.994914619570
         C           -1.752475231150     0.937580038848    -0.369389193912    12.000000000000
         C            1.956054968850     0.827421638848     0.377488106088    12.000000000000
         C           -2.810061031150     1.843953638848     0.289431106088    12.000000000000
         C            2.884735968850     1.684318638848    -0.452416893912    12.000000000000
         H           -1.007787031150     1.604518638848    -0.900278893912     1.007825032230
         H           -2.261629031150     0.375401638848    -1.207951893912     1.007825032230
         H            1.320261968850     1.436860638848     1.028785106088     1.007825032230
         H            2.502113968850     0.108610638848     0.992063106088     1.007825032230
         H           -3.303367031150     2.521212638848    -0.414828893912     1.007825032230
         H           -3.568664031150     1.211696638848     0.757698106088     1.007825032230
         H           -2.323044031150     2.438017638848     1.069564106088     1.007825032230
         H            3.552281968850     2.256748638848     0.200921106088     1.007825032230
         H            3.491479968850     1.058074638848    -1.112555893912     1.007825032230
         H            2.313191968850     2.381844638848    -1.067872893912     1.007825032230
         H           -0.242410031150    -2.476129361152    -1.279689893912     1.007825032230

  Basis Set: AUG-CC-PVTZ
    Blend: AUG-CC-PVTZ
  Basis Set: (AUG-CC-PVTZ AUX)
    Blend: AUG-CC-PVTZ-JKFIT
	 Reference Energy          =    -798.3811194470056307 [Eh]
	 Singles Energy            =      -0.0000000000000000 [Eh]
	 Same-Spin Energy          =      -0.4898377985557916 [Eh]
	 Opposite-Spin Energy      =      -1.5374039999344007 [Eh]
	 Correlation Energy        =      -2.0272417984901923 [Eh]
	 Total Energy              =    -800.4083612454958256 [Eh]

	 ================> DF-SCS-MP2 Energies <==================
	-----------------------------------------------------------
	 SCS Same-Spin Scale       =       0.3333333333333333 [-]
	 SCS Opposite-Spin Scale   =       1.2000000000000000 [-]
	 SCS Same-Spin Energy      =      -0.1632792661852638 [Eh]
	 SCS Opposite-Spin Energy  =      -1.8448847999212807 [Eh]
	 SCS Correlation Energy    =      -2.0081640661065445 [Eh]
	 SCS Total Energy          =    -800.3892835131122183 [Eh]
	-----------------------------------------------------------

  Dipole Moment: [D]
     X:     0.2675      Y:     2.3257      Z:    -2.0264     Total:     3.0963

*** Psi4 exiting successfully. Buy a developer a beer!
