                               Psi4 1.4a3.dev225

  ==> Input File <==

--------------------------------------------------------------------------
#psi4
#
memory 32 gb

molecule  {
0 1
  P       -0.0193980    -0.9573280    -0.1096150
  O        1.2162340    -0.0269160    -0.5415020
  O       -1.1156210     0.0613730     0.5053800
  O        0.5163150    -1.6599550     1.2462920
  O       -0.4960840    -1.8598830    -1.1802340
  C        1.8380650     0.8393470     0.4463000
  C       -1.9139900     0.7949960    -0.4653280
  C        2.8342980     1.7043970    -0.2898420
  C       -2.8451070     1.6924310     0.3153960
  H        1.0624120     1.4376840     0.9337170
  H        2.3223620     0.2121780     1.1993520
  H       -1.2444800     1.3745780    -1.1102950
  H       -2.4582310     0.0769500    -1.0841060
  H        3.3419030     2.3695990     0.4147870
  H        3.5818500     1.0824000    -0.7858930
  H        2.3288000     2.3113610    -1.0437700
  H       -3.4753290     2.2644580    -0.3716610
  H       -3.4879190     1.0956960     0.9656320
  H       -2.2756200     2.3909680     0.9321420
  H        0.1300121    -2.6061039     1.3192347
units angstrom
no_reorient  #important for SAPT in psi4, default
symmetry c1  #important for SAPT in psi4, default
}

set PROPERTIES_ORIGIN ["COM"]
properties('MP2/aug-cc-pvtz', properties = ['dipole'])
--------------------------------------------------------------------------

    Molecular point group: c1
  Charge       = 0
  Multiplicity = 1
  Basis Set: AUG-CC-PVTZ
    Blend: AUG-CC-PVTZ
  Basis Set: (AUG-CC-PVTZ AUX)
    Blend: AUG-CC-PVTZ-JKFIT

    Orbital Energies [Eh]
    ---------------------

    Doubly Occupied:

       1A    -80.104085     2A    -20.607823     3A    -20.590613
       4A    -20.589828     5A    -20.510705     6A    -11.300354
       7A    -11.298549     8A    -11.229508     9A    -11.229380
      10A     -7.619535    11A     -5.518035    12A     -5.517555
      13A     -5.516569    14A     -1.442758    15A     -1.376059
      16A     -1.370653    17A     -1.290853    18A     -1.041036
      19A     -1.033363    20A     -0.871646    21A     -0.863704
      22A     -0.806978    23A     -0.724274    24A     -0.713471
      25A     -0.681038    26A     -0.656658    27A     -0.649644
      28A     -0.616908    29A     -0.604255    30A     -0.575257
      31A     -0.565246    32A     -0.563090    33A     -0.544081
      34A     -0.538847    35A     -0.533912    36A     -0.518179
      37A     -0.502834    38A     -0.480211    39A     -0.478380
      40A     -0.464882    41A     -0.460139

  @DF-RHF Final Energy:  -798.38382542747308

   => Energetics <=

    Nuclear Repulsion Energy =            627.2666971560746560
    One-Electron Energy =               -2346.0992589662682803
    Two-Electron Energy =                 920.4487363827204263
    Total Energy =                       -798.3838254274730843
  Basis Set: (AUG-CC-PVTZ AUX)
    Blend: AUG-CC-PVTZ-RI
    Molecular point group: c1

    Geometry (in Angstrom), charge = 0, multiplicity = 1:

       Center              X                  Y                   Z               Mass
    ------------   -----------------  -----------------  -----------------  -----------------
         P           -0.020148775595    -0.873436371130    -0.100148597327    30.973761998420
         O            1.215483224405     0.056975628870    -0.532035597327    15.994914619570
         O           -1.116371775595     0.145264628870     0.514846402673    15.994914619570
         O            0.515564224405    -1.576063371130     1.255758402673    15.994914619570
         O           -0.496834775595    -1.775991371130    -1.170767597327    15.994914619570
         C            1.837314224405     0.923238628870     0.455766402673    12.000000000000
         C           -1.914740775595     0.878887628870    -0.455861597327    12.000000000000
         C            2.833547224405     1.788288628870    -0.280375597327    12.000000000000
         C           -2.845857775595     1.776322628870     0.324862402673    12.000000000000
         H            1.061661224405     1.521575628870     0.943183402673     1.007825032230
         H            2.321611224405     0.296069628870     1.208818402673     1.007825032230
         H           -1.245230775595     1.458469628870    -1.100828597327     1.007825032230
         H           -2.458981775595     0.160841628870    -1.074639597327     1.007825032230
         H            3.341152224405     2.453490628870     0.424253402673     1.007825032230
         H            3.581099224405     1.166291628870    -0.776426597327     1.007825032230
         H            2.328049224405     2.395252628870    -1.034303597327     1.007825032230
         H           -3.476079775595     2.348349628870    -0.362194597327     1.007825032230
         H           -3.488669775595     1.179587628870     0.975098402673     1.007825032230
         H           -2.276370775595     2.474859628870     0.941608402673     1.007825032230
         H            0.129261324405    -2.522212271130     1.328701102673     1.007825032230

  Basis Set: AUG-CC-PVTZ
    Blend: AUG-CC-PVTZ
  Basis Set: (AUG-CC-PVTZ AUX)
    Blend: AUG-CC-PVTZ-JKFIT
	 Reference Energy          =    -798.3838254274730843 [Eh]
	 Singles Energy            =      -0.0000000000000000 [Eh]
	 Same-Spin Energy          =      -0.4902261617667422 [Eh]
	 Opposite-Spin Energy      =      -1.5393063848458253 [Eh]
	 Correlation Energy        =      -2.0295325466125673 [Eh]
	 Total Energy              =    -800.4133579740856703 [Eh]

	 ================> DF-SCS-MP2 Energies <==================
	-----------------------------------------------------------
	 SCS Same-Spin Scale       =       0.3333333333333333 [-]
	 SCS Opposite-Spin Scale   =       1.2000000000000000 [-]
	 SCS Same-Spin Energy      =      -0.1634087205889140 [Eh]
	 SCS Opposite-Spin Energy  =      -1.8471676618149901 [Eh]
	 SCS Correlation Energy    =      -2.0105763824039040 [Eh]
	 SCS Total Energy          =    -800.3944018098769675 [Eh]
	-----------------------------------------------------------

  Dipole Moment: [D]
     X:     0.1285      Y:     2.5769      Z:     2.1291     Total:     3.3452

*** Psi4 exiting successfully. Buy a developer a beer!
