                               Psi4 1.3.2 release

  ==> Input File <==

--------------------------------------------------------------------------
#psi4
#
memory 32 gb

molecule  {
0 1
  P       -0.0032580    -0.8671950     0.1253540
  O       -1.1577849     0.1003768     0.5250598
  O        1.1133490     0.0895100    -0.5478160
  O       -0.6066630    -1.5809190    -1.1923580
  O        0.4670770    -1.7625730     1.2055430
  C       -1.7907810     0.9929110    -0.4324270
  C        1.9592910     0.8227470     0.3828140
  C       -2.8184289     1.8629101     0.2491316
  C        2.8879720     1.6796440    -0.4470910
  H       -1.0045510     1.5998440    -0.8949530
  H       -2.2583930     0.3707270    -1.2026260
  H        1.3234980     1.4321860     1.0341110
  H        2.5053500     0.1039360     0.9973890
  H       -3.3001310     2.5165380    -0.4095030
  H       -3.5654280     1.2070220     0.7630240
  H       -2.3198080     2.4333430     1.0748900
  H        3.5555180     2.2520740     0.2062470
  H        3.4947160     1.0534000    -1.1072300
  H        2.3164280     2.3771700    -1.0625470
  H       -0.2391740    -2.4808040    -1.2743640
units angstrom
no_reorient  #important for SAPT in psi4, default
symmetry c1  #important for SAPT in psi4, default
}

set PROPERTIES_ORIGIN ["COM"]
properties('MP2/aug-cc-pvtz', properties = ['dipole'])
--------------------------------------------------------------------------

    Molecular point group: c1
  Charge       = 0
  Multiplicity = 1
  Basis Set: AUG-CC-PVTZ
    Blend: AUG-CC-PVTZ
  Basis Set: (AUG-CC-PVTZ AUX)
    Blend: AUG-CC-PVTZ-JKFIT

    Orbital Energies [Eh]
    ---------------------

    Doubly Occupied:

       1A    -80.099110     2A    -20.600930     3A    -20.591774
       4A    -20.586515     5A    -20.508973     6A    -11.305438
       7A    -11.297758     8A    -11.233762     9A    -11.229391
      10A     -7.615564    11A     -5.514244    12A     -5.513640
      13A     -5.512487    14A     -1.452318    15A     -1.382274
      16A     -1.375352    17A     -1.289469    18A     -1.046235
      19A     -1.033875    20A     -0.877876    21A     -0.865519
      22A     -0.810651    23A     -0.731869    24A     -0.717821
      25A     -0.682490    26A     -0.656624    27A     -0.650224
      28A     -0.619097    29A     -0.610078    30A     -0.579017
      31A     -0.573930    32A     -0.561150    33A     -0.549432
      34A     -0.537911    35A     -0.531138    36A     -0.518187
      37A     -0.500778    38A     -0.480568    39A     -0.478281
      40A     -0.463887    41A     -0.458542

  @DF-RHF Final Energy:  -798.38689958561918

   => Energetics <=

    Nuclear Repulsion Energy =            629.5206199255118236
    One-Electron Energy =               -2350.5266760928711847
    Two-Electron Energy =                 922.6191565817402989
    Total Energy =                       -798.3868995856191759
  Basis Set: (AUG-CC-PVTZ AUX)
    Blend: AUG-CC-PVTZ-RI
    Molecular point group: c1

    Geometry (in Angstrom), charge = 0, multiplicity = 1:

       Center              X                  Y                   Z               Mass
    ------------   -----------------  -----------------  -----------------  -----------------
         P           -0.005363371840    -0.866952959460     0.132699601154    30.973761998420
         O           -1.159890271840     0.100618840540     0.532405401154    15.994914619570
         O            1.111243628160     0.089752040540    -0.540470398846    15.994914619570
         O           -0.608768371840    -1.580676959460    -1.185012398846    15.994914619570
         O            0.464971628160    -1.762330959460     1.212888601154    15.994914619570
         C           -1.792886371840     0.993153040540    -0.425081398846    12.000000000000
         C            1.957185628160     0.822989040540     0.390159601154    12.000000000000
         C           -2.820534271840     1.863152140540     0.256477201154    12.000000000000
         C            2.885866628160     1.679886040540    -0.439745398846    12.000000000000
         H           -1.006656371840     1.600086040540    -0.887607398846     1.007825032230
         H           -2.260498371840     0.370969040540    -1.195280398846     1.007825032230
         H            1.321392628160     1.432428040540     1.041456601154     1.007825032230
         H            2.503244628160     0.104178040540     1.004734601154     1.007825032230
         H           -3.302236371840     2.516780040540    -0.402157398846     1.007825032230
         H           -3.567533371840     1.207264040540     0.770369601154     1.007825032230
         H           -2.321913371840     2.433585040540     1.082235601154     1.007825032230
         H            3.553412628160     2.252316040540     0.213592601154     1.007825032230
         H            3.492610628160     1.053642040540    -1.099884398846     1.007825032230
         H            2.314322628160     2.377412040540    -1.055201398846     1.007825032230
         H           -0.241279371840    -2.480561959460    -1.267018398846     1.007825032230

  Basis Set: AUG-CC-PVTZ
    Blend: AUG-CC-PVTZ
  Basis Set: (AUG-CC-PVTZ AUX)
    Blend: AUG-CC-PVTZ-JKFIT
	 Reference Energy          =    -798.3868995856191759 [Eh]
	 Singles Energy            =      -0.0000000000000000 [Eh]
	 Same-Spin Energy          =      -0.4891242483465644 [Eh]
	 Opposite-Spin Energy      =      -1.5364071137483579 [Eh]
	 Correlation Energy        =      -2.0255313620949225 [Eh]
	 Total Energy              =    -800.4124309477141423 [Eh]

	 ================> DF-SCS-MP2 Energies <==================
	-----------------------------------------------------------
	 SCS Same-Spin Scale       =       0.3333333333333333 [-]
	 SCS Opposite-Spin Scale   =       1.2000000000000000 [-]
	 SCS Same-Spin Energy      =      -0.1630414161155215 [Eh]
	 SCS Opposite-Spin Energy  =      -1.8436885364980293 [Eh]
	 SCS Correlation Energy    =      -2.0067299526135507 [Eh]
	 SCS Total Energy          =    -800.3936295382327444 [Eh]
	-----------------------------------------------------------

  Dipole Moment: [D]
     X:    -0.2860      Y:     2.8017      Z:    -2.1507     Total:     3.5436

*** Psi4 exiting successfully. Buy a developer a beer!
