                               Psi4 1.3.2 release

  ==> Input File <==

--------------------------------------------------------------------------
#psi4
#
memory 32 gb

molecule  {
0 1
  P       -0.0032580    -0.8671950     0.1253540
  O       -1.2164870     0.1415582     0.5968772
  O        1.1133490     0.0895100    -0.5478160
  O       -0.6066630    -1.5809190    -1.1923580
  O        0.4670770    -1.7625730     1.2055430
  C       -1.7907810     0.9929110    -0.4324270
  C        1.9592910     0.8227470     0.3828140
  C       -2.7939832     1.8146168     0.3394965
  C        2.8879720     1.6796440    -0.4470910
  H       -1.0045510     1.5998440    -0.8949530
  H       -2.2583930     0.3707270    -1.2026260
  H        1.3234980     1.4321860     1.0341110
  H        2.5053500     0.1039360     0.9973890
  H       -3.3001310     2.5165380    -0.4095030
  H       -3.5654280     1.2070220     0.7630240
  H       -2.3198080     2.4333430     1.0748900
  H        3.5555180     2.2520740     0.2062470
  H        3.4947160     1.0534000    -1.1072300
  H        2.3164280     2.3771700    -1.0625470
  H       -0.2391740    -2.4808040    -1.2743640
units angstrom
no_reorient  #important for SAPT in psi4, default
symmetry c1  #important for SAPT in psi4, default
}

set PROPERTIES_ORIGIN ["COM"]
properties('MP2/aug-cc-pvtz', properties = ['dipole'])
--------------------------------------------------------------------------

    Molecular point group: c1
  Charge       = 0
  Multiplicity = 1
  Basis Set: AUG-CC-PVTZ
    Blend: AUG-CC-PVTZ
  Basis Set: (AUG-CC-PVTZ AUX)
    Blend: AUG-CC-PVTZ-JKFIT

    Orbital Energies [Eh]
    ---------------------

    Doubly Occupied:

       1A    -80.108677     2A    -20.608379     3A    -20.594138
       4A    -20.590785     5A    -20.512952     6A    -11.300719
       7A    -11.298075     8A    -11.231544     9A    -11.227431
      10A     -7.623654    11A     -5.522129    12A     -5.521549
      13A     -5.520685    14A     -1.444056    15A     -1.381624
      16A     -1.372618    17A     -1.293011    18A     -1.040259
      19A     -1.030897    20A     -0.872869    21A     -0.860126
      22A     -0.815363    23A     -0.730899    24A     -0.712072
      25A     -0.682080    26A     -0.660189    27A     -0.653074
      28A     -0.620188    29A     -0.601079    30A     -0.578387
      31A     -0.565451    32A     -0.560888    33A     -0.544345
      34A     -0.537661    35A     -0.530519    36A     -0.517579
      37A     -0.506342    38A     -0.480395    39A     -0.479390
      40A     -0.465734    41A     -0.461413

  @DF-RHF Final Energy:  -798.38035481192128

   => Energetics <=

    Nuclear Repulsion Energy =            626.7812584832364564
    One-Electron Energy =               -2345.0047725533881930
    Two-Electron Energy =                 919.8431592582305711
    Total Energy =                       -798.3803548119212792
  Basis Set: (AUG-CC-PVTZ AUX)
    Blend: AUG-CC-PVTZ-RI
    Molecular point group: c1

    Geometry (in Angstrom), charge = 0, multiplicity = 1:

       Center              X                  Y                   Z               Mass
    ------------   -----------------  -----------------  -----------------  -----------------
         P           -0.001172325420    -0.867466940479     0.118202721837    30.973761998420
         O           -1.214401325420     0.141286259521     0.589725921837    15.994914619570
         O            1.115434674580     0.089238059521    -0.554967278163    15.994914619570
         O           -0.604577325420    -1.581190940479    -1.199509278163    15.994914619570
         O            0.469162674580    -1.762844940479     1.198391721837    15.994914619570
         C           -1.788695325420     0.992639059521    -0.439578278163    12.000000000000
         C            1.961376674580     0.822475059521     0.375662721837    12.000000000000
         C           -2.791897525420     1.814344859521     0.332345221837    12.000000000000
         C            2.890057674580     1.679372059521    -0.454242278163    12.000000000000
         H           -1.002465325420     1.599572059521    -0.902104278163     1.007825032230
         H           -2.256307325420     0.370455059521    -1.209777278163     1.007825032230
         H            1.325583674580     1.431914059521     1.026959721837     1.007825032230
         H            2.507435674580     0.103664059521     0.990237721837     1.007825032230
         H           -3.298045325420     2.516266059521    -0.416654278163     1.007825032230
         H           -3.563342325420     1.206750059521     0.755872721837     1.007825032230
         H           -2.317722325420     2.433071059521     1.067738721837     1.007825032230
         H            3.557603674580     2.251802059521     0.199095721837     1.007825032230
         H            3.496801674580     1.053128059521    -1.114381278163     1.007825032230
         H            2.318513674580     2.376898059521    -1.069698278163     1.007825032230
         H           -0.237088325420    -2.481075940479    -1.281515278163     1.007825032230

  Basis Set: AUG-CC-PVTZ
    Blend: AUG-CC-PVTZ
  Basis Set: (AUG-CC-PVTZ AUX)
    Blend: AUG-CC-PVTZ-JKFIT
	 Reference Energy          =    -798.3803548119212792 [Eh]
	 Singles Energy            =      -0.0000000000000000 [Eh]
	 Same-Spin Energy          =      -0.4905002852531039 [Eh]
	 Opposite-Spin Energy      =      -1.5400480921873403 [Eh]
	 Correlation Energy        =      -2.0305483774404443 [Eh]
	 Total Energy              =    -800.4109031893617612 [Eh]

	 ================> DF-SCS-MP2 Energies <==================
	-----------------------------------------------------------
	 SCS Same-Spin Scale       =       0.3333333333333333 [-]
	 SCS Opposite-Spin Scale   =       1.2000000000000000 [-]
	 SCS Same-Spin Energy      =      -0.1635000950843679 [Eh]
	 SCS Opposite-Spin Energy  =      -1.8480577106248082 [Eh]
	 SCS Correlation Energy    =      -2.0115578057091761 [Eh]
	 SCS Total Energy          =    -800.3919126176305099 [Eh]
	-----------------------------------------------------------

  Dipole Moment: [D]
     X:     0.1641      Y:     2.4898      Z:    -2.2647     Total:     3.3697

*** Psi4 exiting successfully. Buy a developer a beer!
