                               Psi4 1.3.2 release

  ==> Input File <==

--------------------------------------------------------------------------
#psi4
#
memory 32 gb

molecule  {
0 1
  P       -0.0107934    -0.8556348     0.1224677
  O       -1.1867680     0.1204360     0.5615740
  O        1.1133490     0.0895100    -0.5478160
  O       -0.6066630    -1.5809190    -1.1923580
  O        0.4670770    -1.7625730     1.2055430
  C       -1.7907810     0.9929110    -0.4324270
  C        1.9592910     0.8227470     0.3828140
  C       -2.8068250     1.8392790     0.2947570
  C        2.8879720     1.6796440    -0.4470910
  H       -1.0045510     1.5998440    -0.8949530
  H       -2.2583930     0.3707270    -1.2026260
  H        1.3234980     1.4321860     1.0341110
  H        2.5053500     0.1039360     0.9973890
  H       -3.3001310     2.5165380    -0.4095030
  H       -3.5654280     1.2070220     0.7630240
  H       -2.3198080     2.4333430     1.0748900
  H        3.5555180     2.2520740     0.2062470
  H        3.4947160     1.0534000    -1.1072300
  H        2.3164280     2.3771700    -1.0625470
  H       -0.2437048    -2.4819659    -1.2814765
units angstrom
no_reorient  #important for SAPT in psi4, default
symmetry c1  #important for SAPT in psi4, default
}

set PROPERTIES_ORIGIN ["COM"]
properties('MP2/aug-cc-pvtz', properties = ['dipole'])
--------------------------------------------------------------------------

    Molecular point group: c1
  Charge       = 0
  Multiplicity = 1
  Basis Set: AUG-CC-PVTZ
    Blend: AUG-CC-PVTZ
  Basis Set: (AUG-CC-PVTZ AUX)
    Blend: AUG-CC-PVTZ-JKFIT

    Orbital Energies [Eh]
    ---------------------

    Doubly Occupied:

       1A    -80.104130     2A    -20.603491     3A    -20.594137
       4A    -20.590538     5A    -20.507871     6A    -11.303376
       7A    -11.299380     8A    -11.231296     9A    -11.230556
      10A     -7.619573    11A     -5.518141    12A     -5.517663
      13A     -5.516484    14A     -1.448619    15A     -1.381632
      16A     -1.378251    17A     -1.283631    18A     -1.043270
      19A     -1.034660    20A     -0.874083    21A     -0.865741
      22A     -0.814215    23A     -0.732381    24A     -0.717488
      25A     -0.683160    26A     -0.659024    27A     -0.649955
      28A     -0.618881    29A     -0.608242    30A     -0.576611
      31A     -0.564726    32A     -0.561936    33A     -0.544980
      34A     -0.539893    35A     -0.534197    36A     -0.520592
      37A     -0.504409    38A     -0.482582    39A     -0.480341
      40A     -0.460272    41A     -0.456229

  @DF-RHF Final Energy:  -798.38849670241132

   => Energetics <=

    Nuclear Repulsion Energy =            628.3157107481601997
    One-Electron Energy =               -2348.0951409723174947
    Two-Electron Energy =                 921.3909335217459784
    Total Energy =                       -798.3884967024113166
  Basis Set: (AUG-CC-PVTZ AUX)
    Blend: AUG-CC-PVTZ-RI
    Molecular point group: c1

    Geometry (in Angstrom), charge = 0, multiplicity = 1:

       Center              X                  Y                   Z               Mass
    ------------   -----------------  -----------------  -----------------  -----------------
         P           -0.009248400572    -0.857951608934     0.123094384158    30.973761998420
         O           -1.185223000572     0.118119191066     0.562200684158    15.994914619570
         O            1.114893999428     0.087193191066    -0.547189315842    15.994914619570
         O           -0.605118000572    -1.583235808934    -1.191731315842    15.994914619570
         O            0.468621999428    -1.764889808934     1.206169684158    15.994914619570
         C           -1.789236000572     0.990594191066    -0.431800315842    12.000000000000
         C            1.960835999428     0.820430191066     0.383440684158    12.000000000000
         C           -2.805280000572     1.836962191066     0.295383684158    12.000000000000
         C            2.889516999428     1.677327191066    -0.446464315842    12.000000000000
         H           -1.003006000572     1.597527191066    -0.894326315842     1.007825032230
         H           -2.256848000572     0.368410191066    -1.201999315842     1.007825032230
         H            1.325042999428     1.429869191066     1.034737684158     1.007825032230
         H            2.506894999428     0.101619191066     0.998015684158     1.007825032230
         H           -3.298586000572     2.514221191066    -0.408876315842     1.007825032230
         H           -3.563883000572     1.204705191066     0.763650684158     1.007825032230
         H           -2.318263000572     2.431026191066     1.075516684158     1.007825032230
         H            3.557062999428     2.249757191066     0.206873684158     1.007825032230
         H            3.496260999428     1.051083191066    -1.106603315842     1.007825032230
         H            2.317972999428     2.374853191066    -1.061920315842     1.007825032230
         H           -0.242159800572    -2.484282708934    -1.280849815842     1.007825032230

  Basis Set: AUG-CC-PVTZ
    Blend: AUG-CC-PVTZ
  Basis Set: (AUG-CC-PVTZ AUX)
    Blend: AUG-CC-PVTZ-JKFIT
	 Reference Energy          =    -798.3884967024113166 [Eh]
	 Singles Energy            =      -0.0000000000000000 [Eh]
	 Same-Spin Energy          =      -0.4897512549206976 [Eh]
	 Opposite-Spin Energy      =      -1.5379562823153254 [Eh]
	 Correlation Energy        =      -2.0277075372360231 [Eh]
	 Total Energy              =    -800.4162042396472998 [Eh]

	 ================> DF-SCS-MP2 Energies <==================
	-----------------------------------------------------------
	 SCS Same-Spin Scale       =       0.3333333333333333 [-]
	 SCS Opposite-Spin Scale   =       1.2000000000000000 [-]
	 SCS Same-Spin Energy      =      -0.1632504183068992 [Eh]
	 SCS Opposite-Spin Energy  =      -1.8455475387783904 [Eh]
	 SCS Correlation Energy    =      -2.0087979570852896 [Eh]
	 SCS Total Energy          =    -800.3972946594966515 [Eh]
	-----------------------------------------------------------

  Dipole Moment: [D]
     X:    -0.1629      Y:     2.7859      Z:    -2.2621     Total:     3.5923

*** Psi4 exiting successfully. Buy a developer a beer!
