                               Psi4 1.3.2 release

  ==> Input File <==

--------------------------------------------------------------------------
#psi4
#
memory 32 gb

molecule  {
0 1
  P       -0.0032580    -0.8671950     0.1253540
  O       -1.1867680     0.1204360     0.5615740
  O        1.0790721     0.0570631    -0.4879727
  O       -0.6066630    -1.5809190    -1.1923580
  O        0.4670770    -1.7625730     1.2055430
  C       -1.7907810     0.9929110    -0.4324270
  C        1.9592910     0.8227470     0.3828140
  C       -2.8068250     1.8392790     0.2947570
  C        2.9199505     1.7064623    -0.3798418
  H       -1.0045510     1.5998440    -0.8949530
  H       -2.2583930     0.3707270    -1.2026260
  H        1.3234980     1.4321860     1.0341110
  H        2.5053500     0.1039360     0.9973890
  H       -3.3001310     2.5165380    -0.4095030
  H       -3.5654280     1.2070220     0.7630240
  H       -2.3198080     2.4333430     1.0748900
  H        3.5555180     2.2520740     0.2062470
  H        3.4947160     1.0534000    -1.1072300
  H        2.3164280     2.3771700    -1.0625470
  H       -0.2391740    -2.4808040    -1.2743640
units angstrom
no_reorient  #important for SAPT in psi4, default
symmetry c1  #important for SAPT in psi4, default
}

set PROPERTIES_ORIGIN ["COM"]
properties('MP2/aug-cc-pvtz', properties = ['dipole'])
--------------------------------------------------------------------------

    Molecular point group: c1
  Charge       = 0
  Multiplicity = 1
  Basis Set: AUG-CC-PVTZ
    Blend: AUG-CC-PVTZ
  Basis Set: (AUG-CC-PVTZ AUX)
    Blend: AUG-CC-PVTZ-JKFIT

    Orbital Energies [Eh]
    ---------------------

    Doubly Occupied:

       1A    -80.096336     2A    -20.602121     3A    -20.592039
       4A    -20.585891     5A    -20.503359     6A    -11.305648
       7A    -11.299716     8A    -11.236795     9A    -11.228709
      10A     -7.613257    11A     -5.511660    12A     -5.511575
      13A     -5.510214    14A     -1.455299    15A     -1.386284
      16A     -1.375648    17A     -1.285144    18A     -1.047874
      19A     -1.035223    20A     -0.883962    21A     -0.863331
      22A     -0.808788    23A     -0.737077    24A     -0.717211
      25A     -0.683972    26A     -0.658826    27A     -0.648976
      28A     -0.626970    29A     -0.602934    30A     -0.594643
      31A     -0.565650    32A     -0.560702    33A     -0.552452
      34A     -0.541272    35A     -0.529904    36A     -0.514558
      37A     -0.501929    38A     -0.478669    39A     -0.477275
      40A     -0.459718    41A     -0.455409

  @DF-RHF Final Energy:  -798.38277916366337

   => Energetics <=

    Nuclear Repulsion Energy =            630.1117670177370655
    One-Electron Energy =               -2351.6950532461496550
    Two-Electron Energy =                 923.2005070647492175
    Total Energy =                       -798.3827791636633719
  Basis Set: (AUG-CC-PVTZ AUX)
    Blend: AUG-CC-PVTZ-RI
    Molecular point group: c1

    Geometry (in Angstrom), charge = 0, multiplicity = 1:

       Center              X                  Y                   Z               Mass
    ------------   -----------------  -----------------  -----------------  -----------------
         P           -0.002189838350    -0.865914954220     0.113901012066    30.973761998420
         O           -1.185699838350     0.121716045780     0.550121012066    15.994914619570
         O            1.080140261650     0.058343145780    -0.499425687934    15.994914619570
         O           -0.605594838350    -1.579638954220    -1.203810987934    15.994914619570
         O            0.468145161650    -1.761292954220     1.194090012066    15.994914619570
         C           -1.789712838350     0.994191045780    -0.443879987934    12.000000000000
         C            1.960359161650     0.824027045780     0.371361012066    12.000000000000
         C           -2.805756838350     1.840559045780     0.283304012066    12.000000000000
         C            2.921018661650     1.707742345780    -0.391294787934    12.000000000000
         H           -1.003482838350     1.601124045780    -0.906405987934     1.007825032230
         H           -2.257324838350     0.372007045780    -1.214078987934     1.007825032230
         H            1.324566161650     1.433466045780     1.022658012066     1.007825032230
         H            2.506418161650     0.105216045780     0.985936012066     1.007825032230
         H           -3.299062838350     2.517818045780    -0.420955987934     1.007825032230
         H           -3.564359838350     1.208302045780     0.751571012066     1.007825032230
         H           -2.318739838350     2.434623045780     1.063437012066     1.007825032230
         H            3.556586161650     2.253354045780     0.194794012066     1.007825032230
         H            3.495784161650     1.054680045780    -1.118682987934     1.007825032230
         H            2.317496161650     2.378450045780    -1.073999987934     1.007825032230
         H           -0.238105838350    -2.479523954220    -1.285816987934     1.007825032230

  Basis Set: AUG-CC-PVTZ
    Blend: AUG-CC-PVTZ
  Basis Set: (AUG-CC-PVTZ AUX)
    Blend: AUG-CC-PVTZ-JKFIT
	 Reference Energy          =    -798.3827791636633719 [Eh]
	 Singles Energy            =      -0.0000000000000000 [Eh]
	 Same-Spin Energy          =      -0.4886877271312521 [Eh]
	 Opposite-Spin Energy      =      -1.5353547269466596 [Eh]
	 Correlation Energy        =      -2.0240424540779118 [Eh]
	 Total Energy              =    -800.4068216177412296 [Eh]

	 ================> DF-SCS-MP2 Energies <==================
	-----------------------------------------------------------
	 SCS Same-Spin Scale       =       0.3333333333333333 [-]
	 SCS Opposite-Spin Scale   =       1.2000000000000000 [-]
	 SCS Same-Spin Energy      =      -0.1628959090437507 [Eh]
	 SCS Opposite-Spin Energy  =      -1.8424256723359915 [Eh]
	 SCS Correlation Energy    =      -2.0053215813797420 [Eh]
	 SCS Total Energy          =    -800.3881007450430616 [Eh]
	-----------------------------------------------------------

  Dipole Moment: [D]
     X:     0.2667      Y:     2.8974      Z:    -2.3563     Total:     3.7441

*** Psi4 exiting successfully. Buy a developer a beer!
