                               Psi4 1.3.2 release

  ==> Input File <==

--------------------------------------------------------------------------
#psi4
#
memory 32 gb

molecule  {
0 1
  P       -0.0032580    -0.8671950     0.1253540
  O       -1.1867680     0.1204360     0.5615740
  O        1.1203348     0.0989892    -0.5221650
  O       -0.6244367    -1.5954902    -1.1760251
  O        0.4670770    -1.7625730     1.2055430
  C       -1.7907810     0.9929110    -0.4324270
  C        1.9592910     0.8227470     0.3828140
  C       -2.8068250     1.8392790     0.2947570
  C        2.8879720     1.6796440    -0.4470910
  H       -1.0045510     1.5998440    -0.8949530
  H       -2.2583930     0.3707270    -1.2026260
  H        1.3234980     1.4321860     1.0341110
  H        2.5053500     0.1039360     0.9973890
  H       -3.3001310     2.5165380    -0.4095030
  H       -3.5654280     1.2070220     0.7630240
  H       -2.3198080     2.4333430     1.0748900
  H        3.5555180     2.2520740     0.2062470
  H        3.4947160     1.0534000    -1.1072300
  H        2.3164280     2.3771700    -1.0625470
  H       -0.2391740    -2.4808040    -1.2743640
units angstrom
no_reorient  #important for SAPT in psi4, default
symmetry c1  #important for SAPT in psi4, default
}

set PROPERTIES_ORIGIN ["COM"]
properties('MP2/aug-cc-pvtz', properties = ['dipole'])
--------------------------------------------------------------------------

    Molecular point group: c1
  Charge       = 0
  Multiplicity = 1
  Basis Set: AUG-CC-PVTZ
    Blend: AUG-CC-PVTZ
  Basis Set: (AUG-CC-PVTZ AUX)
    Blend: AUG-CC-PVTZ-JKFIT

    Orbital Energies [Eh]
    ---------------------

    Doubly Occupied:

       1A    -80.105549     2A    -20.606940     3A    -20.591147
       4A    -20.590884     5A    -20.509892     6A    -11.301737
       7A    -11.296823     8A    -11.230147     9A    -11.229587
      10A     -7.621052    11A     -5.519585    12A     -5.519079
      13A     -5.518061    14A     -1.449527    15A     -1.385468
      16A     -1.379401    17A     -1.290780    18A     -1.041911
      19A     -1.033187    20A     -0.875532    21A     -0.864424
      22A     -0.813964    23A     -0.736458    24A     -0.716100
      25A     -0.683871    26A     -0.659753    27A     -0.652648
      28A     -0.622179    29A     -0.605265    30A     -0.577758
      31A     -0.566352    32A     -0.562740    33A     -0.544873
      34A     -0.541185    35A     -0.536105    36A     -0.518569
      37A     -0.502591    38A     -0.480262    39A     -0.477505
      40A     -0.464376    41A     -0.459153

  @DF-RHF Final Energy:  -798.38972428656962

   => Energetics <=

    Nuclear Repulsion Energy =            628.4247437141247019
    One-Electron Energy =               -2348.2640936320585752
    Two-Electron Energy =                 921.4496256313641425
    Total Energy =                       -798.3897242865696171
  Basis Set: (AUG-CC-PVTZ AUX)
    Blend: AUG-CC-PVTZ-RI
    Molecular point group: c1

    Geometry (in Angstrom), charge = 0, multiplicity = 1:

       Center              X                  Y                   Z               Mass
    ------------   -----------------  -----------------  -----------------  -----------------
         P           -0.002137660495    -0.866666188112     0.120994322598    30.973761998420
         O           -1.185647660495     0.120964811888     0.557214322598    15.994914619570
         O            1.121455139505     0.099518011888    -0.526524677402    15.994914619570
         O           -0.623316360495    -1.594961388112    -1.180384777402    15.994914619570
         O            0.468197339505    -1.762044188112     1.201183322598    15.994914619570
         C           -1.789660660495     0.993439811888    -0.436786677402    12.000000000000
         C            1.960411339505     0.823275811888     0.378454322598    12.000000000000
         C           -2.805704660495     1.839807811888     0.290397322598    12.000000000000
         C            2.889092339505     1.680172811888    -0.451450677402    12.000000000000
         H           -1.003430660495     1.600372811888    -0.899312677402     1.007825032230
         H           -2.257272660495     0.371255811888    -1.206985677402     1.007825032230
         H            1.324618339505     1.432714811888     1.029751322598     1.007825032230
         H            2.506470339505     0.104464811888     0.993029322598     1.007825032230
         H           -3.299010660495     2.517066811888    -0.413862677402     1.007825032230
         H           -3.564307660495     1.207550811888     0.758664322598     1.007825032230
         H           -2.318687660495     2.433871811888     1.070530322598     1.007825032230
         H            3.556638339505     2.252602811888     0.201887322598     1.007825032230
         H            3.495836339505     1.053928811888    -1.111589677402     1.007825032230
         H            2.317548339505     2.377698811888    -1.066906677402     1.007825032230
         H           -0.238053660495    -2.480275188112    -1.278723677402     1.007825032230

  Basis Set: AUG-CC-PVTZ
    Blend: AUG-CC-PVTZ
  Basis Set: (AUG-CC-PVTZ AUX)
    Blend: AUG-CC-PVTZ-JKFIT
	 Reference Energy          =    -798.3897242865696171 [Eh]
	 Singles Energy            =      -0.0000000000000000 [Eh]
	 Same-Spin Energy          =      -0.4894497260153384 [Eh]
	 Opposite-Spin Energy      =      -1.5370920169694398 [Eh]
	 Correlation Energy        =      -2.0265417429847781 [Eh]
	 Total Energy              =    -800.4162660295544356 [Eh]

	 ================> DF-SCS-MP2 Energies <==================
	-----------------------------------------------------------
	 SCS Same-Spin Scale       =       0.3333333333333333 [-]
	 SCS Opposite-Spin Scale   =       1.2000000000000000 [-]
	 SCS Same-Spin Energy      =      -0.1631499086717795 [Eh]
	 SCS Opposite-Spin Energy  =      -1.8445104203633276 [Eh]
	 SCS Correlation Energy    =      -2.0076603290351072 [Eh]
	 SCS Total Energy          =    -800.3973846156047784 [Eh]
	-----------------------------------------------------------

  Dipole Moment: [D]
     X:    -0.0939      Y:     2.6217      Z:    -2.3285     Total:     3.5077

*** Psi4 exiting successfully. Buy a developer a beer!
