                               Psi4 1.3.2 release

  ==> Input File <==

--------------------------------------------------------------------------
#psi4
#
memory 32 gb

molecule  {
0 1
  P       -0.0017403    -0.8765922     0.1516435
  O       -1.1867680     0.1204360     0.5615740
  O        1.1133490     0.0895100    -0.5478160
  O       -0.6066630    -1.5809190    -1.1923580
  O        0.4670770    -1.7625730     1.2055430
  C       -1.8062676     1.0021574    -0.4145765
  C        1.9592910     0.8227470     0.3828140
  C       -2.8068250     1.8392790     0.2947570
  C        2.8879720     1.6796440    -0.4470910
  H       -1.0045510     1.5998440    -0.8949530
  H       -2.2583930     0.3707270    -1.2026260
  H        1.3234980     1.4321860     1.0341110
  H        2.5053500     0.1039360     0.9973890
  H       -3.3001310     2.5165380    -0.4095030
  H       -3.5654280     1.2070220     0.7630240
  H       -2.3198080     2.4333430     1.0748900
  H        3.5555180     2.2520740     0.2062470
  H        3.4947160     1.0534000    -1.1072300
  H        2.3164280     2.3771700    -1.0625470
  H       -0.2391740    -2.4808040    -1.2743640
units angstrom
no_reorient  #important for SAPT in psi4, default
symmetry c1  #important for SAPT in psi4, default
}

set PROPERTIES_ORIGIN ["COM"]
properties('MP2/aug-cc-pvtz', properties = ['dipole'])
--------------------------------------------------------------------------

    Molecular point group: c1
  Charge       = 0
  Multiplicity = 1
  Basis Set: AUG-CC-PVTZ
    Blend: AUG-CC-PVTZ
  Basis Set: (AUG-CC-PVTZ AUX)
    Blend: AUG-CC-PVTZ-JKFIT

    Orbital Energies [Eh]
    ---------------------

    Doubly Occupied:

       1A    -80.103567     2A    -20.600679     3A    -20.590007
       4A    -20.587654     5A    -20.516681     6A    -11.302258
       7A    -11.297354     8A    -11.229275     9A    -11.229213
      10A     -7.619583    11A     -5.518015    12A     -5.517506
      13A     -5.516785    14A     -1.442645    15A     -1.374706
      16A     -1.371341    17A     -1.306855    18A     -1.045271
      19A     -1.032965    20A     -0.870883    21A     -0.861562
      22A     -0.808404    23A     -0.725494    24A     -0.713033
      25A     -0.679885    26A     -0.654823    27A     -0.649938
      28A     -0.617099    29A     -0.606107    30A     -0.574346
      31A     -0.569126    32A     -0.563168    33A     -0.546591
      34A     -0.537346    35A     -0.531617    36A     -0.520942
      37A     -0.504261    38A     -0.481626    39A     -0.475712
      40A     -0.472781    41A     -0.466173

  @DF-RHF Final Energy:  -798.38665245926359

   => Energetics <=

    Nuclear Repulsion Energy =            627.7693440842709833
    One-Electron Energy =               -2347.0454406941603338
    Two-Electron Energy =                 920.8894441506258772
    Total Energy =                       -798.3866524592635869
  Basis Set: (AUG-CC-PVTZ AUX)
    Blend: AUG-CC-PVTZ-RI
    Molecular point group: c1

    Geometry (in Angstrom), charge = 0, multiplicity = 1:

       Center              X                  Y                   Z               Mass
    ------------   -----------------  -----------------  -----------------  -----------------
         P           -0.000838873299    -0.875422878803     0.144966483021    30.973761998420
         O           -1.185866573299     0.121605321197     0.554896983021    15.994914619570
         O            1.114250426701     0.090679321197    -0.554493016979    15.994914619570
         O           -0.605761573299    -1.579749678803    -1.199035016979    15.994914619570
         O            0.467978426701    -1.761403678803     1.198865983021    15.994914619570
         C           -1.805366173299     1.003326721197    -0.421253516979    12.000000000000
         C            1.960192426701     0.823916321197     0.376136983021    12.000000000000
         C           -2.805923573299     1.840448321197     0.288079983021    12.000000000000
         C            2.888873426701     1.680813321197    -0.453768016979    12.000000000000
         H           -1.003649573299     1.601013321197    -0.901630016979     1.007825032230
         H           -2.257491573299     0.371896321197    -1.209303016979     1.007825032230
         H            1.324399426701     1.433355321197     1.027433983021     1.007825032230
         H            2.506251426701     0.105105321197     0.990711983021     1.007825032230
         H           -3.299229573299     2.517707321197    -0.416180016979     1.007825032230
         H           -3.564526573299     1.208191321197     0.756346983021     1.007825032230
         H           -2.318906573299     2.434512321197     1.068212983021     1.007825032230
         H            3.556419426701     2.253243321197     0.199569983021     1.007825032230
         H            3.495617426701     1.054569321197    -1.113907016979     1.007825032230
         H            2.317329426701     2.378339321197    -1.069224016979     1.007825032230
         H           -0.238272573299    -2.479634678803    -1.281041016979     1.007825032230

  Basis Set: AUG-CC-PVTZ
    Blend: AUG-CC-PVTZ
  Basis Set: (AUG-CC-PVTZ AUX)
    Blend: AUG-CC-PVTZ-JKFIT
	 Reference Energy          =    -798.3866524592635869 [Eh]
	 Singles Energy            =      -0.0000000000000000 [Eh]
	 Same-Spin Energy          =      -0.4896753158699656 [Eh]
	 Opposite-Spin Energy      =      -1.5379651206334954 [Eh]
	 Correlation Energy        =      -2.0276404365034608 [Eh]
	 Total Energy              =    -800.4142928957670620 [Eh]

	 ================> DF-SCS-MP2 Energies <==================
	-----------------------------------------------------------
	 SCS Same-Spin Scale       =       0.3333333333333333 [-]
	 SCS Opposite-Spin Scale   =       1.2000000000000000 [-]
	 SCS Same-Spin Energy      =      -0.1632251052899885 [Eh]
	 SCS Opposite-Spin Energy  =      -1.8455581447601945 [Eh]
	 SCS Correlation Energy    =      -2.0087832500501830 [Eh]
	 SCS Total Energy          =    -800.3954357093138015 [Eh]
	-----------------------------------------------------------

  Dipole Moment: [D]
     X:    -0.1049      Y:     2.5636      Z:    -1.9573     Total:     3.2271

*** Psi4 exiting successfully. Buy a developer a beer!
