                               Psi4 1.3.2 release

  ==> Input File <==

--------------------------------------------------------------------------
#psi4
#
memory 32 gb

molecule  {
0 1
  P       -0.0119198    -0.8747978     0.0995896
  O       -1.1867680     0.1204360     0.5615740
  O        1.1133490     0.0895100    -0.5478160
  O       -0.6066630    -1.5809190    -1.1923580
  O        0.4670770    -1.7625730     1.2055430
  C       -1.7907810     0.9929110    -0.4324270
  C        1.9715311     0.8331622     0.3631348
  C       -2.8068250     1.8392790     0.2947570
  C        2.8879720     1.6796440    -0.4470910
  H       -1.0045510     1.5998440    -0.8949530
  H       -2.2583930     0.3707270    -1.2026260
  H        1.3234980     1.4321860     1.0341110
  H        2.5053500     0.1039360     0.9973890
  H       -3.3001310     2.5165380    -0.4095030
  H       -3.5654280     1.2070220     0.7630240
  H       -2.3198080     2.4333430     1.0748900
  H        3.5555180     2.2520740     0.2062470
  H        3.4947160     1.0534000    -1.1072300
  H        2.3164280     2.3771700    -1.0625470
  H       -0.2391740    -2.4808040    -1.2743640
units angstrom
no_reorient  #important for SAPT in psi4, default
symmetry c1  #important for SAPT in psi4, default
}

set PROPERTIES_ORIGIN ["COM"]
properties('MP2/aug-cc-pvtz', properties = ['dipole'])
--------------------------------------------------------------------------

    Molecular point group: c1
  Charge       = 0
  Multiplicity = 1
  Basis Set: AUG-CC-PVTZ
    Blend: AUG-CC-PVTZ
  Basis Set: (AUG-CC-PVTZ AUX)
    Blend: AUG-CC-PVTZ-JKFIT

    Orbital Energies [Eh]
    ---------------------

    Doubly Occupied:

       1A    -80.104976     2A    -20.612417     3A    -20.590106
       4A    -20.588353     5A    -20.507286     6A    -11.300671
       7A    -11.299462     8A    -11.229575     9A    -11.229324
      10A     -7.620321    11A     -5.518979    12A     -5.518371
      13A     -5.517201    14A     -1.451641    15A     -1.386940
      16A     -1.375069    17A     -1.280777    18A     -1.043991
      19A     -1.035211    20A     -0.873433    21A     -0.862564
      22A     -0.816383    23A     -0.734776    24A     -0.714914
      25A     -0.681791    26A     -0.662017    27A     -0.652807
      28A     -0.619453    29A     -0.605107    30A     -0.582215
      31A     -0.565896    32A     -0.562006    33A     -0.543748
      34A     -0.541001    35A     -0.534256    36A     -0.519201
      37A     -0.503840    38A     -0.479197    39A     -0.474148
      40A     -0.459051    41A     -0.453889

  @DF-RHF Final Energy:  -798.38688043579589

   => Energetics <=

    Nuclear Repulsion Energy =            628.0619012424283483
    One-Electron Energy =               -2347.5928374784307380
    Two-Electron Energy =                 921.1440558002065018
    Total Energy =                       -798.3868804357958879
  Basis Set: (AUG-CC-PVTZ AUX)
    Blend: AUG-CC-PVTZ-RI
    Molecular point group: c1

    Geometry (in Angstrom), charge = 0, multiplicity = 1:

       Center              X                  Y                   Z               Mass
    ------------   -----------------  -----------------  -----------------  -----------------
         P           -0.011131480588    -0.874080342906     0.106303054722    30.973761998420
         O           -1.185979680588     0.121153457094     0.568287454722    15.994914619570
         O            1.114137319412     0.090227457094    -0.541102545278    15.994914619570
         O           -0.605874680588    -1.580201542906    -1.185644545278    15.994914619570
         O            0.467865319412    -1.761855542906     1.212256454722    15.994914619570
         C           -1.789992680588     0.993628457094    -0.425713545278    12.000000000000
         C            1.972319419412     0.833879657094     0.369848254722    12.000000000000
         C           -2.806036680588     1.839996457094     0.301470454722    12.000000000000
         C            2.888760319412     1.680361457094    -0.440377545278    12.000000000000
         H           -1.003762680588     1.600561457094    -0.888239545278     1.007825032230
         H           -2.257604680588     0.371444457094    -1.195912545278     1.007825032230
         H            1.324286319412     1.432903457094     1.040824454722     1.007825032230
         H            2.506138319412     0.104653457094     1.004102454722     1.007825032230
         H           -3.299342680588     2.517255457094    -0.402789545278     1.007825032230
         H           -3.564639680588     1.207739457094     0.769737454722     1.007825032230
         H           -2.319019680588     2.434060457094     1.081603454722     1.007825032230
         H            3.556306319412     2.252791457094     0.212960454722     1.007825032230
         H            3.495504319412     1.054117457094    -1.100516545278     1.007825032230
         H            2.317216319412     2.377887457094    -1.055833545278     1.007825032230
         H           -0.238385680588    -2.480086542906    -1.267650545278     1.007825032230

  Basis Set: AUG-CC-PVTZ
    Blend: AUG-CC-PVTZ
  Basis Set: (AUG-CC-PVTZ AUX)
    Blend: AUG-CC-PVTZ-JKFIT
	 Reference Energy          =    -798.3868804357958879 [Eh]
	 Singles Energy            =      -0.0000000000000000 [Eh]
	 Same-Spin Energy          =      -0.4899908947863570 [Eh]
	 Opposite-Spin Energy      =      -1.5381288481079707 [Eh]
	 Correlation Energy        =      -2.0281197428943276 [Eh]
	 Total Energy              =    -800.4150001786902067 [Eh]

	 ================> DF-SCS-MP2 Energies <==================
	-----------------------------------------------------------
	 SCS Same-Spin Scale       =       0.3333333333333333 [-]
	 SCS Opposite-Spin Scale   =       1.2000000000000000 [-]
	 SCS Same-Spin Energy      =      -0.1633302982621190 [Eh]
	 SCS Opposite-Spin Energy  =      -1.8457546177295647 [Eh]
	 SCS Correlation Energy    =      -2.0090849159916839 [Eh]
	 SCS Total Energy          =    -800.3959653517875950 [Eh]
	-----------------------------------------------------------

  Dipole Moment: [D]
     X:    -0.1164      Y:     2.5740      Z:    -2.4738     Total:     3.5719

*** Psi4 exiting successfully. Buy a developer a beer!
