                               Psi4 1.4a3.dev225

  ==> Input File <==

--------------------------------------------------------------------------
#psi4
#
memory 32 gb

molecule  {
0 1
  P       -0.0193980    -0.9573280    -0.1096150
  O        1.2162340    -0.0269160    -0.5415020
  O       -1.1156210     0.0613730     0.5053800
  O        0.5163150    -1.6599550     1.2462920
  O       -0.5121969    -1.8903910    -1.2164229
  C        1.8380650     0.8393470     0.4463000
  C       -1.9139900     0.7949960    -0.4653280
  C        2.8342980     1.7043970    -0.2898420
  C       -2.8451070     1.6924310     0.3153960
  H        1.0624120     1.4376840     0.9337170
  H        2.3223620     0.2121780     1.1993520
  H       -1.2444800     1.3745780    -1.1102950
  H       -2.4582310     0.0769500    -1.0841060
  H        3.3419030     2.3695990     0.4147870
  H        3.5818500     1.0824000    -0.7858930
  H        2.3288000     2.3113610    -1.0437700
  H       -3.4753290     2.2644580    -0.3716610
  H       -3.4879190     1.0956960     0.9656320
  H       -2.2756200     2.3909680     0.9321420
  H        0.1488640    -2.5599310     1.3156750
units angstrom
no_reorient  #important for SAPT in psi4, default
symmetry c1  #important for SAPT in psi4, default
}

set PROPERTIES_ORIGIN ["COM"]
properties('MP2/aug-cc-pvtz', properties = ['dipole'])
--------------------------------------------------------------------------

    Molecular point group: c1
  Charge       = 0
  Multiplicity = 1
  Basis Set: AUG-CC-PVTZ
    Blend: AUG-CC-PVTZ
  Basis Set: (AUG-CC-PVTZ AUX)
    Blend: AUG-CC-PVTZ-JKFIT

    Orbital Energies [Eh]
    ---------------------

    Doubly Occupied:

       1A    -80.113778     2A    -20.608395     3A    -20.594039
       4A    -20.593674     5A    -20.512898     6A    -11.302570
       7A    -11.299970     8A    -11.230862     9A    -11.230597
      10A     -7.627377    11A     -5.526083    12A     -5.525584
      13A     -5.523998    14A     -1.446802    15A     -1.381835
      16A     -1.379144    17A     -1.271007    18A     -1.043102
      19A     -1.034993    20A     -0.875328    21A     -0.865718
      22A     -0.815301    23A     -0.731608    24A     -0.716276
      25A     -0.684952    26A     -0.658770    27A     -0.652278
      28A     -0.619173    29A     -0.607152    30A     -0.577660
      31A     -0.565227    32A     -0.561607    33A     -0.543585
      34A     -0.540253    35A     -0.535207    36A     -0.519002
      37A     -0.503366    38A     -0.481669    39A     -0.479781
      40A     -0.456117    41A     -0.453112

  @DF-RHF Final Energy:  -798.38119085097844

   => Energetics <=

    Nuclear Repulsion Energy =            625.2885814153809179
    One-Electron Energy =               -2341.9598448719498265
    Two-Electron Energy =                 918.2900726055903533
    Total Energy =                       -798.3811908509784416
  Basis Set: (AUG-CC-PVTZ AUX)
    Blend: AUG-CC-PVTZ-RI
    Molecular point group: c1

    Geometry (in Angstrom), charge = 0, multiplicity = 1:

       Center              X                  Y                   Z               Mass
    ------------   -----------------  -----------------  -----------------  -----------------
         P           -0.018599010441    -0.870570621353    -0.096367580534    30.973761998420
         O            1.217032989559     0.059841378647    -0.528254580534    15.994914619570
         O           -1.114822010441     0.148130378647     0.518627419466    15.994914619570
         O            0.517113989559    -1.573197621353     1.259539419466    15.994914619570
         O           -0.511397910441    -1.803633621353    -1.203175480534    15.994914619570
         C            1.838863989559     0.926104378647     0.459547419466    12.000000000000
         C           -1.913191010441     0.881753378647    -0.452080580534    12.000000000000
         C            2.835096989559     1.791154378647    -0.276594580534    12.000000000000
         C           -2.844308010441     1.779188378647     0.328643419466    12.000000000000
         H            1.063210989559     1.524441378647     0.946964419466     1.007825032230
         H            2.323160989559     0.298935378647     1.212599419466     1.007825032230
         H           -1.243681010441     1.461335378647    -1.097047580534     1.007825032230
         H           -2.457432010441     0.163707378647    -1.070858580534     1.007825032230
         H            3.342701989559     2.456356378647     0.428034419466     1.007825032230
         H            3.582648989559     1.169157378647    -0.772645580534     1.007825032230
         H            2.329598989559     2.398118378647    -1.030522580534     1.007825032230
         H           -3.474530010441     2.351215378647    -0.358413580534     1.007825032230
         H           -3.487120010441     1.182453378647     0.978879419466     1.007825032230
         H           -2.274821010441     2.477725378647     0.945389419466     1.007825032230
         H            0.149662989559    -2.473173621353     1.328922419466     1.007825032230

  Basis Set: AUG-CC-PVTZ
    Blend: AUG-CC-PVTZ
  Basis Set: (AUG-CC-PVTZ AUX)
    Blend: AUG-CC-PVTZ-JKFIT
	 Reference Energy          =    -798.3811908509784416 [Eh]
	 Singles Energy            =      -0.0000000000000000 [Eh]
	 Same-Spin Energy          =      -0.4908180942936388 [Eh]
	 Opposite-Spin Energy      =      -1.5406926140994017 [Eh]
	 Correlation Energy        =      -2.0315107083930406 [Eh]
	 Total Energy              =    -800.4127015593714987 [Eh]

	 ================> DF-SCS-MP2 Energies <==================
	-----------------------------------------------------------
	 SCS Same-Spin Scale       =       0.3333333333333333 [-]
	 SCS Opposite-Spin Scale   =       1.2000000000000000 [-]
	 SCS Same-Spin Energy      =      -0.1636060314312129 [Eh]
	 SCS Opposite-Spin Energy  =      -1.8488311369192820 [Eh]
	 SCS Correlation Energy    =      -2.0124371683504951 [Eh]
	 SCS Total Energy          =    -800.3936280193289576 [Eh]
	-----------------------------------------------------------

  Dipole Moment: [D]
     X:     0.2168      Y:     2.8288      Z:     2.2693     Total:     3.6331

*** Psi4 exiting successfully. Buy a developer a beer!
