                               Psi4 1.3.2 release

  ==> Input File <==

--------------------------------------------------------------------------
#psi4
#
memory 32 gb

molecule  {
0 1
  P       -0.0032580    -0.8671950     0.1253540
  O       -1.1867680     0.1204360     0.5615740
  O        1.1231141     0.0840702    -0.5392013
  O       -0.6066630    -1.5809190    -1.1923580
  O        0.4790254    -1.7578748     1.2041577
  C       -1.7907810     0.9929110    -0.4324270
  C        1.9592910     0.8227470     0.3828140
  C       -2.8068250     1.8392790     0.2947570
  C        2.8879720     1.6796440    -0.4470910
  H       -1.0045510     1.5998440    -0.8949530
  H       -2.2583930     0.3707270    -1.2026260
  H        1.3234980     1.4321860     1.0341110
  H        2.5053500     0.1039360     0.9973890
  H       -3.3001310     2.5165380    -0.4095030
  H       -3.5654280     1.2070220     0.7630240
  H       -2.3198080     2.4333430     1.0748900
  H        3.5555180     2.2520740     0.2062470
  H        3.4947160     1.0534000    -1.1072300
  H        2.3164280     2.3771700    -1.0625470
  H       -0.2391740    -2.4808040    -1.2743640
units angstrom
no_reorient  #important for SAPT in psi4, default
symmetry c1  #important for SAPT in psi4, default
}

set PROPERTIES_ORIGIN ["COM"]
properties('MP2/aug-cc-pvtz', properties = ['dipole'])
--------------------------------------------------------------------------

    Molecular point group: c1
  Charge       = 0
  Multiplicity = 1
  Basis Set: AUG-CC-PVTZ
    Blend: AUG-CC-PVTZ
  Basis Set: (AUG-CC-PVTZ AUX)
    Blend: AUG-CC-PVTZ-JKFIT

    Orbital Energies [Eh]
    ---------------------

    Doubly Occupied:

       1A    -80.104542     2A    -20.605875     3A    -20.592162
       4A    -20.589430     5A    -20.510475     6A    -11.302030
       7A    -11.297696     8A    -11.230417     9A    -11.229700
      10A     -7.620126    11A     -5.518665    12A     -5.518146
      13A     -5.517129    14A     -1.447763    15A     -1.380510
      16A     -1.378597    17A     -1.290979    18A     -1.041808
      19A     -1.033337    20A     -0.873603    21A     -0.864316
      22A     -0.813164    23A     -0.732128    24A     -0.715658
      25A     -0.682741    26A     -0.658800    27A     -0.651851
      28A     -0.619372    29A     -0.606090    30A     -0.576837
      31A     -0.565817    32A     -0.562357    33A     -0.545020
      34A     -0.539748    35A     -0.534776    36A     -0.519203
      37A     -0.503402    38A     -0.480830    39A     -0.478915
      40A     -0.464978    41A     -0.459381

  @DF-RHF Final Energy:  -798.38910451119295

   => Energetics <=

    Nuclear Repulsion Energy =            628.2135841719923519
    One-Electron Energy =               -2347.8886321993554702
    Two-Electron Energy =                 921.2859435161701640
    Total Energy =                       -798.3891045111929543
  Basis Set: (AUG-CC-PVTZ AUX)
    Blend: AUG-CC-PVTZ-RI
    Molecular point group: c1

    Geometry (in Angstrom), charge = 0, multiplicity = 1:

       Center              X                  Y                   Z               Mass
    ------------   -----------------  -----------------  -----------------  -----------------
         P           -0.005512490536    -0.867117918210     0.124603106548    30.973761998420
         O           -1.189022490536     0.120513081790     0.560823106548    15.994914619570
         O            1.120859609464     0.084147281790    -0.539952193452    15.994914619570
         O           -0.608917490536    -1.580841918210    -1.193108893452    15.994914619570
         O            0.476770909464    -1.757797718210     1.203406806548    15.994914619570
         C           -1.793035490536     0.992988081790    -0.433177893452    12.000000000000
         C            1.957036509464     0.822824081790     0.382063106548    12.000000000000
         C           -2.809079490536     1.839356081790     0.294006106548    12.000000000000
         C            2.885717509464     1.679721081790    -0.447841893452    12.000000000000
         H           -1.006805490536     1.599921081790    -0.895703893452     1.007825032230
         H           -2.260647490536     0.370804081790    -1.203376893452     1.007825032230
         H            1.321243509464     1.432263081790     1.033360106548     1.007825032230
         H            2.503095509464     0.104013081790     0.996638106548     1.007825032230
         H           -3.302385490536     2.516615081790    -0.410253893452     1.007825032230
         H           -3.567682490536     1.207099081790     0.762273106548     1.007825032230
         H           -2.322062490536     2.433420081790     1.074139106548     1.007825032230
         H            3.553263509464     2.252151081790     0.205496106548     1.007825032230
         H            3.492461509464     1.053477081790    -1.107980893452     1.007825032230
         H            2.314173509464     2.377247081790    -1.063297893452     1.007825032230
         H           -0.241428490536    -2.480726918210    -1.275114893452     1.007825032230

  Basis Set: AUG-CC-PVTZ
    Blend: AUG-CC-PVTZ
  Basis Set: (AUG-CC-PVTZ AUX)
    Blend: AUG-CC-PVTZ-JKFIT
	 Reference Energy          =    -798.3891045111929543 [Eh]
	 Singles Energy            =      -0.0000000000000000 [Eh]
	 Same-Spin Energy          =      -0.4896373529648279 [Eh]
	 Opposite-Spin Energy      =      -1.5377120801824913 [Eh]
	 Correlation Energy        =      -2.0273494331473190 [Eh]
	 Total Energy              =    -800.4164539443402191 [Eh]

	 ================> DF-SCS-MP2 Energies <==================
	-----------------------------------------------------------
	 SCS Same-Spin Scale       =       0.3333333333333333 [-]
	 SCS Opposite-Spin Scale   =       1.2000000000000000 [-]
	 SCS Same-Spin Energy      =      -0.1632124509882760 [Eh]
	 SCS Opposite-Spin Energy  =      -1.8452544962189894 [Eh]
	 SCS Correlation Energy    =      -2.0084669472072654 [Eh]
	 SCS Total Energy          =    -800.3975714584001935 [Eh]
	-----------------------------------------------------------

  Dipole Moment: [D]
     X:    -0.1535      Y:     2.6315      Z:    -2.2381     Total:     3.4580

*** Psi4 exiting successfully. Buy a developer a beer!
