                               Psi4 1.3.2 release

  ==> Input File <==

--------------------------------------------------------------------------
#psi4
#
memory 32 gb

molecule  {
0 1
  P       -0.0032580    -0.8671950     0.1253540
  O       -1.1867680     0.1204360     0.5615740
  O        1.1133490     0.0895100    -0.5478160
  O       -0.6066630    -1.5809190    -1.1923580
  O        0.4670770    -1.7625730     1.2055430
  C       -1.7907810     0.9929110    -0.4324270
  C        2.0173998     0.8731139     0.4467401
  C       -2.8068250     1.8392790     0.2947570
  C        2.8879720     1.6796440    -0.4470910
  H       -1.0045510     1.5998440    -0.8949530
  H       -2.2583930     0.3707270    -1.2026260
  H        1.3234980     1.4321860     1.0341110
  H        2.5053500     0.1039360     0.9973890
  H       -3.3001310     2.5165380    -0.4095030
  H       -3.5654280     1.2070220     0.7630240
  H       -2.3198080     2.4333430     1.0748900
  H        3.5555180     2.2520740     0.2062470
  H        3.4947160     1.0534000    -1.1072300
  H        2.3164280     2.3771700    -1.0625470
  H       -0.2391740    -2.4808040    -1.2743640
units angstrom
no_reorient  #important for SAPT in psi4, default
symmetry c1  #important for SAPT in psi4, default
}

set PROPERTIES_ORIGIN ["COM"]
properties('MP2/aug-cc-pvtz', properties = ['dipole'])
--------------------------------------------------------------------------

    Molecular point group: c1
  Charge       = 0
  Multiplicity = 1
  Basis Set: AUG-CC-PVTZ
    Blend: AUG-CC-PVTZ
  Basis Set: (AUG-CC-PVTZ AUX)
    Blend: AUG-CC-PVTZ-JKFIT

    Orbital Energies [Eh]
    ---------------------

    Doubly Occupied:

       1A    -80.096995     2A    -20.599442     3A    -20.586930
       4A    -20.578009     5A    -20.506311     6A    -11.304530
       7A    -11.298629     8A    -11.234976     9A    -11.228382
      10A     -7.612593    11A     -5.511194    12A     -5.510557
      13A     -5.509627    14A     -1.437338    15A     -1.374556
      16A     -1.351649    17A     -1.285689    18A     -1.050248
      19A     -1.035335    20A     -0.871829    21A     -0.863220
      22A     -0.810499    23A     -0.719995    24A     -0.706127
      25A     -0.681426    26A     -0.657008    27A     -0.649412
      28A     -0.608584    29A     -0.601312    30A     -0.575622
      31A     -0.566131    32A     -0.559598    33A     -0.545880
      34A     -0.535818    35A     -0.528116    36A     -0.521586
      37A     -0.506032    38A     -0.488126    39A     -0.476193
      40A     -0.461666    41A     -0.455251

  @DF-RHF Final Energy:  -798.38029394252646

   => Energetics <=

    Nuclear Repulsion Energy =            626.2039108130463774
    One-Electron Energy =               -2344.1635668054323105
    Two-Electron Energy =                 919.5793620498594692
    Total Energy =                       -798.3802939425264640
  Basis Set: (AUG-CC-PVTZ AUX)
    Blend: AUG-CC-PVTZ-RI
    Molecular point group: c1

    Geometry (in Angstrom), charge = 0, multiplicity = 1:

       Center              X                  Y                   Z               Mass
    ------------   -----------------  -----------------  -----------------  -----------------
         P           -0.007784635218    -0.871118610535     0.120373804441    30.973761998420
         O           -1.191294635218     0.116512389465     0.556593804441    15.994914619570
         O            1.108822364782     0.085586389465    -0.552796195559    15.994914619570
         O           -0.611189635218    -1.584842610535    -1.197338195559    15.994914619570
         O            0.462550364782    -1.766496610535     1.200562804441    15.994914619570
         C           -1.795307635218     0.988987389465    -0.437407195559    12.000000000000
         C            2.012873164782     0.869190289465     0.441759904441    12.000000000000
         C           -2.811351635218     1.835355389465     0.289776804441    12.000000000000
         C            2.883445364782     1.675720389465    -0.452071195559    12.000000000000
         H           -1.009077635218     1.595920389465    -0.899933195559     1.007825032230
         H           -2.262919635218     0.366803389465    -1.207606195559     1.007825032230
         H            1.318971364782     1.428262389465     1.029130804441     1.007825032230
         H            2.500823364782     0.100012389465     0.992408804441     1.007825032230
         H           -3.304657635218     2.512614389465    -0.414483195559     1.007825032230
         H           -3.569954635218     1.203098389465     0.758043804441     1.007825032230
         H           -2.324334635218     2.429419389465     1.069909804441     1.007825032230
         H            3.550991364782     2.248150389465     0.201266804441     1.007825032230
         H            3.490189364782     1.049476389465    -1.112210195559     1.007825032230
         H            2.311901364782     2.373246389465    -1.067527195559     1.007825032230
         H           -0.243700635218    -2.484727610535    -1.279344195559     1.007825032230

  Basis Set: AUG-CC-PVTZ
    Blend: AUG-CC-PVTZ
  Basis Set: (AUG-CC-PVTZ AUX)
    Blend: AUG-CC-PVTZ-JKFIT
	 Reference Energy          =    -798.3802939425264640 [Eh]
	 Singles Energy            =      -0.0000000000000000 [Eh]
	 Same-Spin Energy          =      -0.4900508282214143 [Eh]
	 Opposite-Spin Energy      =      -1.5392180834491729 [Eh]
	 Correlation Energy        =      -2.0292689116705871 [Eh]
	 Total Energy              =    -800.4095628541970200 [Eh]

	 ================> DF-SCS-MP2 Energies <==================
	-----------------------------------------------------------
	 SCS Same-Spin Scale       =       0.3333333333333333 [-]
	 SCS Opposite-Spin Scale   =       1.2000000000000000 [-]
	 SCS Same-Spin Energy      =      -0.1633502760738048 [Eh]
	 SCS Opposite-Spin Energy  =      -1.8470617001390073 [Eh]
	 SCS Correlation Energy    =      -2.0104119762128119 [Eh]
	 SCS Total Energy          =    -800.3907059187392861 [Eh]
	-----------------------------------------------------------

  Dipole Moment: [D]
     X:     0.3090      Y:     2.9313      Z:    -2.0821     Total:     3.6087

*** Psi4 exiting successfully. Buy a developer a beer!
