                               Psi4 1.4a3.dev225

  ==> Input File <==

--------------------------------------------------------------------------
#psi4
#
memory 32 gb

molecule  {
0 1
  P       -0.0193980    -0.9573280    -0.1096150
  O        1.2162340    -0.0269160    -0.5415020
  O       -1.1156210     0.0613730     0.5053800
  O        0.5163150    -1.6599550     1.2462920
  O       -0.4960840    -1.8598830    -1.1802340
  C        1.8380650     0.8393470     0.4463000
  C       -1.9139900     0.7949960    -0.4653280
  C        2.8342980     1.7043970    -0.2898420
  C       -2.8451070     1.6924310     0.3153960
  H        1.0624120     1.4376840     0.9337170
  H        2.3223620     0.2121780     1.1993520
  H       -1.2322572     1.3851590    -1.1220697
  H       -2.4582310     0.0769500    -1.0841060
  H        3.3419030     2.3695990     0.4147870
  H        3.5818500     1.0824000    -0.7858930
  H        2.3288000     2.3113610    -1.0437700
  H       -3.4753290     2.2644580    -0.3716610
  H       -3.4879190     1.0956960     0.9656320
  H       -2.2756200     2.3909680     0.9321420
  H        0.1488640    -2.5599310     1.3156750
units angstrom
no_reorient  #important for SAPT in psi4, default
symmetry c1  #important for SAPT in psi4, default
}

set PROPERTIES_ORIGIN ["COM"]
properties('MP2/aug-cc-pvtz', properties = ['dipole'])
--------------------------------------------------------------------------

    Molecular point group: c1
  Charge       = 0
  Multiplicity = 1
  Basis Set: AUG-CC-PVTZ
    Blend: AUG-CC-PVTZ
  Basis Set: (AUG-CC-PVTZ AUX)
    Blend: AUG-CC-PVTZ-JKFIT

    Orbital Energies [Eh]
    ---------------------

    Doubly Occupied:

       1A    -80.105125     2A    -20.605026     3A    -20.591057
       4A    -20.590725     5A    -20.511569     6A    -11.301332
       7A    -11.300701     8A    -11.229972     9A    -11.229630
      10A     -7.620571    11A     -5.519088    12A     -5.518584
      13A     -5.517596    14A     -1.446064    15A     -1.379122
      16A     -1.376662    17A     -1.291992    18A     -1.041263
      19A     -1.033329    20A     -0.872801    21A     -0.863734
      22A     -0.811798    23A     -0.729406    24A     -0.715152
      25A     -0.682208    26A     -0.656739    27A     -0.651438
      28A     -0.618293    29A     -0.605474    30A     -0.576546
      31A     -0.565885    32A     -0.563721    33A     -0.544602
      34A     -0.539301    35A     -0.534971    36A     -0.518264
      37A     -0.503511    38A     -0.480182    39A     -0.478188
      40A     -0.465762    41A     -0.460776

  @DF-RHF Final Energy:  -798.38817561072415

   => Energetics <=

    Nuclear Repulsion Energy =            627.5193845536499566
    One-Electron Energy =               -2346.5188025050238139
    Two-Electron Energy =                 920.6112423406495964
    Total Energy =                       -798.3881756107241472
  Basis Set: (AUG-CC-PVTZ AUX)
    Blend: AUG-CC-PVTZ-RI
    Molecular point group: c1

    Geometry (in Angstrom), charge = 0, multiplicity = 1:

       Center              X                  Y                   Z               Mass
    ------------   -----------------  -----------------  -----------------  -----------------
         P           -0.020352086184    -0.873807691490    -0.100048269861    30.973761998420
         O            1.215279913816     0.056604308510    -0.531935269861    15.994914619570
         O           -1.116575086184     0.144893308510     0.514946730139    15.994914619570
         O            0.515360913816    -1.576434691490     1.255858730139    15.994914619570
         O           -0.497038086184    -1.776362691490    -1.170667269861    15.994914619570
         C            1.837110913816     0.922867308510     0.455866730139    12.000000000000
         C           -1.914944086184     0.878516308510    -0.455761269861    12.000000000000
         C            2.833343913816     1.787917308510    -0.280275269861    12.000000000000
         C           -2.846061086184     1.775951308510     0.324962730139    12.000000000000
         H            1.061457913816     1.521204308510     0.943283730139     1.007825032230
         H            2.321407913816     0.295698308510     1.208918730139     1.007825032230
         H           -1.233211286184     1.468679308510    -1.112502969861     1.007825032230
         H           -2.459185086184     0.160470308510    -1.074539269861     1.007825032230
         H            3.340948913816     2.453119308510     0.424353730139     1.007825032230
         H            3.580895913816     1.165920308510    -0.776326269861     1.007825032230
         H            2.327845913816     2.394881308510    -1.034203269861     1.007825032230
         H           -3.476283086184     2.347978308510    -0.362094269861     1.007825032230
         H           -3.488873086184     1.179216308510     0.975198730139     1.007825032230
         H           -2.276574086184     2.474488308510     0.941708730139     1.007825032230
         H            0.147909913816    -2.476410691490     1.325241730139     1.007825032230

  Basis Set: AUG-CC-PVTZ
    Blend: AUG-CC-PVTZ
  Basis Set: (AUG-CC-PVTZ AUX)
    Blend: AUG-CC-PVTZ-JKFIT
	 Reference Energy          =    -798.3881756107241472 [Eh]
	 Singles Energy            =      -0.0000000000000000 [Eh]
	 Same-Spin Energy          =      -0.4897052641415584 [Eh]
	 Opposite-Spin Energy      =      -1.5381102663662445 [Eh]
	 Correlation Energy        =      -2.0278155305078029 [Eh]
	 Total Energy              =    -800.4159911412319843 [Eh]

	 ================> DF-SCS-MP2 Energies <==================
	-----------------------------------------------------------
	 SCS Same-Spin Scale       =       0.3333333333333333 [-]
	 SCS Opposite-Spin Scale   =       1.2000000000000000 [-]
	 SCS Same-Spin Energy      =      -0.1632350880471861 [Eh]
	 SCS Opposite-Spin Energy  =      -1.8457323196394932 [Eh]
	 SCS Correlation Energy    =      -2.0089674076866793 [Eh]
	 SCS Total Energy          =    -800.3971430184108158 [Eh]
	-----------------------------------------------------------

  Dipole Moment: [D]
     X:     0.1379      Y:     2.6508      Z:     2.1096     Total:     3.3906

*** Psi4 exiting successfully. Buy a developer a beer!
