                               Psi4 1.4a3.dev225

  ==> Input File <==

--------------------------------------------------------------------------
#psi4
#
memory 32 gb

molecule  {
0 1
  P       -0.0193980    -0.9573280    -0.1096150
  O        1.2162340    -0.0269160    -0.5415020
  O       -1.1020700     0.0487803     0.4977777
  O        0.5163150    -1.6599550     1.2462920
  O       -0.4960840    -1.8598830    -1.1802340
  C        1.8380650     0.8393470     0.4463000
  C       -1.9139900     0.7949960    -0.4653280
  C        2.8342980     1.7043970    -0.2898420
  C       -2.8451070     1.6924310     0.3153960
  H        1.0624120     1.4376840     0.9337170
  H        2.3223620     0.2121780     1.1993520
  H       -1.2444800     1.3745780    -1.1102950
  H       -2.4582310     0.0769500    -1.0841060
  H        3.3419030     2.3695990     0.4147870
  H        3.5818500     1.0824000    -0.7858930
  H        2.3288000     2.3113610    -1.0437700
  H       -3.4753290     2.2644580    -0.3716610
  H       -3.4879190     1.0956960     0.9656320
  H       -2.2756200     2.3909680     0.9321420
  H        0.1488640    -2.5599310     1.3156750
units angstrom
no_reorient  #important for SAPT in psi4, default
symmetry c1  #important for SAPT in psi4, default
}

set PROPERTIES_ORIGIN ["COM"]
properties('MP2/aug-cc-pvtz', properties = ['dipole'])
--------------------------------------------------------------------------

    Molecular point group: c1
  Charge       = 0
  Multiplicity = 1
  Basis Set: AUG-CC-PVTZ
    Blend: AUG-CC-PVTZ
  Basis Set: (AUG-CC-PVTZ AUX)
    Blend: AUG-CC-PVTZ-JKFIT

    Orbital Energies [Eh]
    ---------------------

    Doubly Occupied:

       1A    -80.102147     2A    -20.603177     3A    -20.590470
       4A    -20.589305     5A    -20.509425     6A    -11.301697
       7A    -11.300022     8A    -11.231646     9A    -11.229177
      10A     -7.617978    11A     -5.516476    12A     -5.516046
      13A     -5.515005    14A     -1.446988    15A     -1.378540
      16A     -1.376353    17A     -1.290142    18A     -1.042724
      19A     -1.034607    20A     -0.874758    21A     -0.864201
      22A     -0.811468    23A     -0.729718    24A     -0.715206
      25A     -0.682956    26A     -0.657047    27A     -0.651001
      28A     -0.619384    29A     -0.604687    30A     -0.576169
      31A     -0.565604    32A     -0.564350    33A     -0.544492
      34A     -0.540098    35A     -0.534863    36A     -0.519108
      37A     -0.503896    38A     -0.481979    39A     -0.478658
      40A     -0.464310    41A     -0.459673

  @DF-RHF Final Energy:  -798.38980848606911

   => Energetics <=

    Nuclear Repulsion Energy =            628.1905217040637126
    One-Electron Energy =               -2347.8895623729013096
    Two-Electron Energy =                 921.3092321827684827
    Total Energy =                       -798.3898084860691142
  Basis Set: (AUG-CC-PVTZ AUX)
    Blend: AUG-CC-PVTZ-RI
    Molecular point group: c1

    Geometry (in Angstrom), charge = 0, multiplicity = 1:

       Center              X                  Y                   Z               Mass
    ------------   -----------------  -----------------  -----------------  -----------------
         P           -0.021679204551    -0.872430882530    -0.099335911635    30.973761998420
         O            1.213952795449     0.057981117470    -0.531222911635    15.994914619570
         O           -1.104351204551     0.133677417470     0.508056788365    15.994914619570
         O            0.514033795449    -1.575057882530     1.256571088365    15.994914619570
         O           -0.498365204551    -1.774985882530    -1.169954911635    15.994914619570
         C            1.835783795449     0.924244117470     0.456579088365    12.000000000000
         C           -1.916271204551     0.879893117470    -0.455048911635    12.000000000000
         C            2.832016795449     1.789294117470    -0.279562911635    12.000000000000
         C           -2.847388204551     1.777328117470     0.325675088365    12.000000000000
         H            1.060130795449     1.522581117470     0.943996088365     1.007825032230
         H            2.320080795449     0.297075117470     1.209631088365     1.007825032230
         H           -1.246761204551     1.459475117470    -1.100015911635     1.007825032230
         H           -2.460512204551     0.161847117470    -1.073826911635     1.007825032230
         H            3.339621795449     2.454496117470     0.425066088365     1.007825032230
         H            3.579568795449     1.167297117470    -0.775613911635     1.007825032230
         H            2.326518795449     2.396258117470    -1.033490911635     1.007825032230
         H           -3.477610204551     2.349355117470    -0.361381911635     1.007825032230
         H           -3.490200204551     1.180593117470     0.975911088365     1.007825032230
         H           -2.277901204551     2.475865117470     0.942421088365     1.007825032230
         H            0.146582795449    -2.475033882530     1.325954088365     1.007825032230

  Basis Set: AUG-CC-PVTZ
    Blend: AUG-CC-PVTZ
  Basis Set: (AUG-CC-PVTZ AUX)
    Blend: AUG-CC-PVTZ-JKFIT
	 Reference Energy          =    -798.3898084860691142 [Eh]
	 Singles Energy            =      -0.0000000000000000 [Eh]
	 Same-Spin Energy          =      -0.4893995845179853 [Eh]
	 Opposite-Spin Energy      =      -1.5372959968016846 [Eh]
	 Correlation Energy        =      -2.0266955813196699 [Eh]
	 Total Energy              =    -800.4165040673888143 [Eh]

	 ================> DF-SCS-MP2 Energies <==================
	-----------------------------------------------------------
	 SCS Same-Spin Scale       =       0.3333333333333333 [-]
	 SCS Opposite-Spin Scale   =       1.2000000000000000 [-]
	 SCS Same-Spin Energy      =      -0.1631331948393284 [Eh]
	 SCS Opposite-Spin Energy  =      -1.8447551961620214 [Eh]
	 SCS Correlation Energy    =      -2.0078883910013499 [Eh]
	 SCS Total Energy          =    -800.3976968770704161 [Eh]
	-----------------------------------------------------------

  Dipole Moment: [D]
     X:     0.0149      Y:     2.7566      Z:     2.1146     Total:     3.4743

*** Psi4 exiting successfully. Buy a developer a beer!
