                               Psi4 1.4a3.dev225

  ==> Input File <==

--------------------------------------------------------------------------
#psi4
#
memory 32 gb

molecule  {
0 1
  P       -0.0193980    -0.9573280    -0.1096150
  O        1.2162340    -0.0269160    -0.5415020
  O       -1.1156210     0.0613730     0.5053800
  O        0.5163150    -1.6599550     1.2462920
  O       -0.4960840    -1.8598830    -1.1802340
  C        1.8380650     0.8393470     0.4463000
  C       -1.9030180     0.7849138    -0.4519876
  C        2.8342980     1.7043970    -0.2898420
  C       -2.8451070     1.6924310     0.3153960
  H        1.0624120     1.4376840     0.9337170
  H        2.3223620     0.2121780     1.1993520
  H       -1.2444800     1.3745780    -1.1102950
  H       -2.4582310     0.0769500    -1.0841060
  H        3.3419030     2.3695990     0.4147870
  H        3.5818500     1.0824000    -0.7858930
  H        2.3288000     2.3113610    -1.0437700
  H       -3.4753290     2.2644580    -0.3716610
  H       -3.4879190     1.0956960     0.9656320
  H       -2.2756200     2.3909680     0.9321420
  H        0.1488640    -2.5599310     1.3156750
units angstrom
no_reorient  #important for SAPT in psi4, default
symmetry c1  #important for SAPT in psi4, default
}

set PROPERTIES_ORIGIN ["COM"]
properties('MP2/aug-cc-pvtz', properties = ['dipole'])
--------------------------------------------------------------------------

    Molecular point group: c1
  Charge       = 0
  Multiplicity = 1
  Basis Set: AUG-CC-PVTZ
    Blend: AUG-CC-PVTZ
  Basis Set: (AUG-CC-PVTZ AUX)
    Blend: AUG-CC-PVTZ-JKFIT

    Orbital Energies [Eh]
    ---------------------

    Doubly Occupied:

       1A    -80.106452     2A    -20.605975     3A    -20.592682
       4A    -20.591921     5A    -20.512467     6A    -11.301265
       7A    -11.298354     8A    -11.229963     9A    -11.229013
      10A     -7.621905    11A     -5.520412    12A     -5.519931
      13A     -5.518920    14A     -1.448546    15A     -1.382979
      16A     -1.378971    17A     -1.293019    18A     -1.041092
      19A     -1.032169    20A     -0.874219    21A     -0.864468
      22A     -0.812775    23A     -0.732368    24A     -0.716580
      25A     -0.683683    26A     -0.658088    27A     -0.651913
      28A     -0.621278    29A     -0.606192    30A     -0.576751
      31A     -0.566617    32A     -0.564066    33A     -0.544630
      34A     -0.540779    35A     -0.536103    36A     -0.516888
      37A     -0.502099    38A     -0.480274    39A     -0.477387
      40A     -0.466289    41A     -0.461420

  @DF-RHF Final Energy:  -798.38870699285997

   => Energetics <=

    Nuclear Repulsion Energy =            628.0035508268005060
    One-Electron Energy =               -2347.4227052061983159
    Two-Electron Energy =                 921.0304473865377304
    Total Energy =                       -798.3887069928599658
  Basis Set: (AUG-CC-PVTZ AUX)
    Blend: AUG-CC-PVTZ-RI
    Molecular point group: c1

    Geometry (in Angstrom), charge = 0, multiplicity = 1:

       Center              X                  Y                   Z               Mass
    ------------   -----------------  -----------------  -----------------  -----------------
         P           -0.021126858625    -0.872953039273    -0.101164552646    30.973761998420
         O            1.214505141375     0.057458960727    -0.533051552646    15.994914619570
         O           -1.117349858625     0.145747960727     0.513830447354    15.994914619570
         O            0.514586141375    -1.575580039273     1.254742447354    15.994914619570
         O           -0.497812858625    -1.775508039273    -1.171783552646    15.994914619570
         C            1.836336141375     0.923721960727     0.454750447354    12.000000000000
         C           -1.904746858625     0.869288760727    -0.443537152646    12.000000000000
         C            2.832569141375     1.788771960727    -0.281391552646    12.000000000000
         C           -2.846835858625     1.776805960727     0.323846447354    12.000000000000
         H            1.060683141375     1.522058960727     0.942167447354     1.007825032230
         H            2.320633141375     0.296552960727     1.207802447354     1.007825032230
         H           -1.246208858625     1.458952960727    -1.101844552646     1.007825032230
         H           -2.459959858625     0.161324960727    -1.075655552646     1.007825032230
         H            3.340174141375     2.453973960727     0.423237447354     1.007825032230
         H            3.580121141375     1.166774960727    -0.777442552646     1.007825032230
         H            2.327071141375     2.395735960727    -1.035319552646     1.007825032230
         H           -3.477057858625     2.348832960727    -0.363210552646     1.007825032230
         H           -3.489647858625     1.180070960727     0.974082447354     1.007825032230
         H           -2.277348858625     2.475342960727     0.940592447354     1.007825032230
         H            0.147135141375    -2.475556039273     1.324125447354     1.007825032230

  Basis Set: AUG-CC-PVTZ
    Blend: AUG-CC-PVTZ
  Basis Set: (AUG-CC-PVTZ AUX)
    Blend: AUG-CC-PVTZ-JKFIT
	 Reference Energy          =    -798.3887069928599658 [Eh]
	 Singles Energy            =      -0.0000000000000000 [Eh]
	 Same-Spin Energy          =      -0.4896586315399873 [Eh]
	 Opposite-Spin Energy      =      -1.5377805918776462 [Eh]
	 Correlation Energy        =      -2.0274392234176335 [Eh]
	 Total Energy              =    -800.4161462162776388 [Eh]

	 ================> DF-SCS-MP2 Energies <==================
	-----------------------------------------------------------
	 SCS Same-Spin Scale       =       0.3333333333333333 [-]
	 SCS Opposite-Spin Scale   =       1.2000000000000000 [-]
	 SCS Same-Spin Energy      =      -0.1632195438466624 [Eh]
	 SCS Opposite-Spin Energy  =      -1.8453367102531752 [Eh]
	 SCS Correlation Energy    =      -2.0085562540998376 [Eh]
	 SCS Total Energy          =    -800.3972632469598238 [Eh]
	-----------------------------------------------------------

  Dipole Moment: [D]
     X:     0.2148      Y:     2.5982      Z:     2.1328     Total:     3.3683

*** Psi4 exiting successfully. Buy a developer a beer!
