                               Psi4 1.3.2 release

  ==> Input File <==

--------------------------------------------------------------------------
#psi4
#
memory 32 gb

molecule  {
0 1
  P       -0.0032580    -0.8671950     0.1253540
  O       -1.1867680     0.1204360     0.5615740
  O        1.1518920     0.0673179    -0.5130564
  O       -0.6066630    -1.5809190    -1.1923580
  O        0.5146465    -1.7433745     1.1995092
  C       -1.7907810     0.9929110    -0.4324270
  C        1.9592910     0.8227470     0.3828140
  C       -2.8068250     1.8392790     0.2947570
  C        2.8879720     1.6796440    -0.4470910
  H       -1.0045510     1.5998440    -0.8949530
  H       -2.2583930     0.3707270    -1.2026260
  H        1.3234980     1.4321860     1.0341110
  H        2.5053500     0.1039360     0.9973890
  H       -3.3001310     2.5165380    -0.4095030
  H       -3.5654280     1.2070220     0.7630240
  H       -2.3198080     2.4333430     1.0748900
  H        3.5555180     2.2520740     0.2062470
  H        3.4947160     1.0534000    -1.1072300
  H        2.3164280     2.3771700    -1.0625470
  H       -0.2391740    -2.4808040    -1.2743640
units angstrom
no_reorient  #important for SAPT in psi4, default
symmetry c1  #important for SAPT in psi4, default
}

set PROPERTIES_ORIGIN ["COM"]
properties('MP2/aug-cc-pvtz', properties = ['dipole'])
--------------------------------------------------------------------------

    Molecular point group: c1
  Charge       = 0
  Multiplicity = 1
  Basis Set: AUG-CC-PVTZ
    Blend: AUG-CC-PVTZ
  Basis Set: (AUG-CC-PVTZ AUX)
    Blend: AUG-CC-PVTZ-JKFIT

    Orbital Energies [Eh]
    ---------------------

    Doubly Occupied:

       1A    -80.105972     2A    -20.609291     3A    -20.595165
       4A    -20.586397     5A    -20.508942     6A    -11.304037
       7A    -11.293176     8A    -11.231697     9A    -11.227451
      10A     -7.621447    11A     -5.519990    12A     -5.519452
      13A     -5.518462    14A     -1.450013    15A     -1.384669
      16A     -1.382173    17A     -1.290163    18A     -1.042641
      19A     -1.031817    20A     -0.875363    21A     -0.865279
      22A     -0.813465    23A     -0.735394    24A     -0.717130
      25A     -0.684168    26A     -0.660906    27A     -0.653184
      28A     -0.620801    29A     -0.607798    30A     -0.577381
      31A     -0.566733    32A     -0.562586    33A     -0.545669
      34A     -0.540810    35A     -0.536162    36A     -0.518471
      37A     -0.501724    38A     -0.481881    39A     -0.476430
      40A     -0.464048    41A     -0.455844

  @DF-RHF Final Energy:  -798.38883095827418

   => Energetics <=

    Nuclear Repulsion Energy =            628.5277919150246362
    One-Electron Energy =               -2348.4648846203990615
    Two-Electron Energy =                 921.5482617471002413
    Total Energy =                       -798.3888309582741840
  Basis Set: (AUG-CC-PVTZ AUX)
    Blend: AUG-CC-PVTZ-RI
    Molecular point group: c1

    Geometry (in Angstrom), charge = 0, multiplicity = 1:

       Center              X                  Y                   Z               Mass
    ------------   -----------------  -----------------  -----------------  -----------------
         P           -0.012199454168    -0.866884078522     0.122370996654    30.973761998420
         O           -1.195709454168     0.120746921478     0.558590996654    15.994914619570
         O            1.142950545832     0.067628821478    -0.516039403346    15.994914619570
         O           -0.615604454168    -1.580608078522    -1.195341003346    15.994914619570
         O            0.505705045832    -1.743063578522     1.196526196654    15.994914619570
         C           -1.799722454168     0.993221921478    -0.435410003346    12.000000000000
         C            1.950349545832     0.823057921478     0.379830996654    12.000000000000
         C           -2.815766454168     1.839589921478     0.291773996654    12.000000000000
         C            2.879030545832     1.679954921478    -0.450074003346    12.000000000000
         H           -1.013492454168     1.600154921478    -0.897936003346     1.007825032230
         H           -2.267334454168     0.371037921478    -1.205609003346     1.007825032230
         H            1.314556545832     1.432496921478     1.031127996654     1.007825032230
         H            2.496408545832     0.104246921478     0.994405996654     1.007825032230
         H           -3.309072454168     2.516848921478    -0.412486003346     1.007825032230
         H           -3.574369454168     1.207332921478     0.760040996654     1.007825032230
         H           -2.328749454168     2.433653921478     1.071906996654     1.007825032230
         H            3.546576545832     2.252384921478     0.203263996654     1.007825032230
         H            3.485774545832     1.053710921478    -1.110213003346     1.007825032230
         H            2.307486545832     2.377480921478    -1.065530003346     1.007825032230
         H           -0.248115454168    -2.480493078522    -1.277347003346     1.007825032230

  Basis Set: AUG-CC-PVTZ
    Blend: AUG-CC-PVTZ
  Basis Set: (AUG-CC-PVTZ AUX)
    Blend: AUG-CC-PVTZ-JKFIT
	 Reference Energy          =    -798.3888309582741840 [Eh]
	 Singles Energy            =      -0.0000000000000000 [Eh]
	 Same-Spin Energy          =      -0.4894974064739586 [Eh]
	 Opposite-Spin Energy      =      -1.5370922730157155 [Eh]
	 Correlation Energy        =      -2.0265896794896743 [Eh]
	 Total Energy              =    -800.4154206377638729 [Eh]

	 ================> DF-SCS-MP2 Energies <==================
	-----------------------------------------------------------
	 SCS Same-Spin Scale       =       0.3333333333333333 [-]
	 SCS Opposite-Spin Scale   =       1.2000000000000000 [-]
	 SCS Same-Spin Energy      =      -0.1631658021579862 [Eh]
	 SCS Opposite-Spin Energy  =      -1.8445107276188586 [Eh]
	 SCS Correlation Energy    =      -2.0076765297768446 [Eh]
	 SCS Total Energy          =    -800.3965074880510429 [Eh]
	-----------------------------------------------------------

  Dipole Moment: [D]
     X:    -0.4241      Y:     2.5772      Z:    -2.3141     Total:     3.4895

*** Psi4 exiting successfully. Buy a developer a beer!
