                               Psi4 1.3.2 release

  ==> Input File <==

--------------------------------------------------------------------------
#psi4
#
memory 32 gb

molecule  {
0 1
  P       -0.0032580    -0.8671950     0.1253540
  O       -1.1865822     0.1515061     0.4836706
  O        1.1133490     0.0895100    -0.5478160
  O       -0.6066630    -1.5809190    -1.1923580
  O        0.5180979    -1.7926615     1.1556087
  C       -1.7907810     0.9929110    -0.4324270
  C        1.9592910     0.8227470     0.3828140
  C       -2.8068250     1.8392790     0.2947570
  C        2.8879720     1.6796440    -0.4470910
  H       -1.0045510     1.5998440    -0.8949530
  H       -2.2583930     0.3707270    -1.2026260
  H        1.3234980     1.4321860     1.0341110
  H        2.5053500     0.1039360     0.9973890
  H       -3.3001310     2.5165380    -0.4095030
  H       -3.5654280     1.2070220     0.7630240
  H       -2.3198080     2.4333430     1.0748900
  H        3.5555180     2.2520740     0.2062470
  H        3.4947160     1.0534000    -1.1072300
  H        2.3164280     2.3771700    -1.0625470
  H       -0.2391740    -2.4808040    -1.2743640
units angstrom
no_reorient  #important for SAPT in psi4, default
symmetry c1  #important for SAPT in psi4, default
}

set PROPERTIES_ORIGIN ["COM"]
properties('MP2/aug-cc-pvtz', properties = ['dipole'])
--------------------------------------------------------------------------

    Molecular point group: c1
  Charge       = 0
  Multiplicity = 1
  Basis Set: AUG-CC-PVTZ
    Blend: AUG-CC-PVTZ
  Basis Set: (AUG-CC-PVTZ AUX)
    Blend: AUG-CC-PVTZ-JKFIT

    Orbital Energies [Eh]
    ---------------------

    Doubly Occupied:

       1A    -80.109285     2A    -20.602408     3A    -20.592000
       4A    -20.587529     5A    -20.519129     6A    -11.298854
       7A    -11.294646     8A    -11.229843     9A    -11.227599
      10A     -7.624496    11A     -5.523215    12A     -5.522608
      13A     -5.521375    14A     -1.455256    15A     -1.391447
      16A     -1.376737    17A     -1.298025    18A     -1.042232
      19A     -1.032004    20A     -0.880626    21A     -0.865201
      22A     -0.812543    23A     -0.733531    24A     -0.721452
      25A     -0.685443    26A     -0.661193    27A     -0.653262
      28A     -0.620924    29A     -0.614017    30A     -0.575766
      31A     -0.566813    32A     -0.563293    33A     -0.547515
      34A     -0.539481    35A     -0.534212    36A     -0.516975
      37A     -0.498781    38A     -0.480220    39A     -0.471599
      40A     -0.471062    41A     -0.464165

  @DF-RHF Final Energy:  -798.38588113290814

   => Energetics <=

    Nuclear Repulsion Energy =            629.5327256080356619
    One-Electron Energy =               -2350.3836916075802037
    Two-Electron Energy =                 922.4650848666364027
    Total Energy =                       -798.3858811329081391
  Basis Set: (AUG-CC-PVTZ AUX)
    Blend: AUG-CC-PVTZ-RI
    Molecular point group: c1

    Geometry (in Angstrom), charge = 0, multiplicity = 1:

       Center              X                  Y                   Z               Mass
    ------------   -----------------  -----------------  -----------------  -----------------
         P           -0.008574959763    -0.867296849183     0.138627994910    30.973761998420
         O           -1.191899159763     0.151404250817     0.496944594910    15.994914619570
         O            1.108032040237     0.089408150817    -0.534542005090    15.994914619570
         O           -0.611979959763    -1.581020849183    -1.179084005090    15.994914619570
         O            0.512780940237    -1.792763349183     1.168882694910    15.994914619570
         C           -1.796097959763     0.992809150817    -0.419153005090    12.000000000000
         C            1.953974040237     0.822645150817     0.396087994910    12.000000000000
         C           -2.812141959763     1.839177150817     0.308030994910    12.000000000000
         C            2.882655040237     1.679542150817    -0.433817005090    12.000000000000
         H           -1.009867959763     1.599742150817    -0.881679005090     1.007825032230
         H           -2.263709959763     0.370625150817    -1.189352005090     1.007825032230
         H            1.318181040237     1.432084150817     1.047384994910     1.007825032230
         H            2.500033040237     0.103834150817     1.010662994910     1.007825032230
         H           -3.305447959763     2.516436150817    -0.396229005090     1.007825032230
         H           -3.570744959763     1.206920150817     0.776297994910     1.007825032230
         H           -2.325124959763     2.433241150817     1.088163994910     1.007825032230
         H            3.550201040237     2.251972150817     0.219520994910     1.007825032230
         H            3.489399040237     1.053298150817    -1.093956005090     1.007825032230
         H            2.311111040237     2.377068150817    -1.049273005090     1.007825032230
         H           -0.244490959763    -2.480905849183    -1.261090005090     1.007825032230

  Basis Set: AUG-CC-PVTZ
    Blend: AUG-CC-PVTZ
  Basis Set: (AUG-CC-PVTZ AUX)
    Blend: AUG-CC-PVTZ-JKFIT
	 Reference Energy          =    -798.3858811329081391 [Eh]
	 Singles Energy            =      -0.0000000000000000 [Eh]
	 Same-Spin Energy          =      -0.4896303775281856 [Eh]
	 Opposite-Spin Energy      =      -1.5368083418797833 [Eh]
	 Correlation Energy        =      -2.0264387194079689 [Eh]
	 Total Energy              =    -800.4123198523161591 [Eh]

	 ================> DF-SCS-MP2 Energies <==================
	-----------------------------------------------------------
	 SCS Same-Spin Scale       =       0.3333333333333333 [-]
	 SCS Opposite-Spin Scale   =       1.2000000000000000 [-]
	 SCS Same-Spin Energy      =      -0.1632101258427285 [Eh]
	 SCS Opposite-Spin Energy  =      -1.8441700102557399 [Eh]
	 SCS Correlation Energy    =      -2.0073801360984684 [Eh]
	 SCS Total Energy          =    -800.3932612690066435 [Eh]
	-----------------------------------------------------------

  Dipole Moment: [D]
     X:    -0.0656      Y:     2.4772      Z:    -1.8310     Total:     3.0811

*** Psi4 exiting successfully. Buy a developer a beer!
