                               Psi4 1.3.2 release

  ==> Input File <==

--------------------------------------------------------------------------
#psi4
#
memory 32 gb

molecule  {
0 1
  P       -0.0032580    -0.8671950     0.1253540
  O       -1.1867680     0.1204360     0.5615740
  O        1.0526669     0.1222079    -0.5152975
  O       -0.6066630    -1.5809190    -1.1923580
  O        0.4670770    -1.7625730     1.2055430
  C       -1.7907810     0.9929110    -0.4324270
  C        1.9592910     0.8227470     0.3828140
  C       -2.8068250     1.8392790     0.2947570
  C        2.8879720     1.6796440    -0.4470910
  H       -1.0045510     1.5998440    -0.8949530
  H       -2.2583930     0.3707270    -1.2026260
  H        1.2778117     1.4117284     1.0061304
  H        2.5053500     0.1039360     0.9973890
  H       -3.3001310     2.5165380    -0.4095030
  H       -3.5654280     1.2070220     0.7630240
  H       -2.3198080     2.4333430     1.0748900
  H        3.5555180     2.2520740     0.2062470
  H        3.4947160     1.0534000    -1.1072300
  H        2.3164280     2.3771700    -1.0625470
  H       -0.2391740    -2.4808040    -1.2743640
units angstrom
no_reorient  #important for SAPT in psi4, default
symmetry c1  #important for SAPT in psi4, default
}

set PROPERTIES_ORIGIN ["COM"]
properties('MP2/aug-cc-pvtz', properties = ['dipole'])
--------------------------------------------------------------------------

    Molecular point group: c1
  Charge       = 0
  Multiplicity = 1
  Basis Set: AUG-CC-PVTZ
    Blend: AUG-CC-PVTZ
  Basis Set: (AUG-CC-PVTZ AUX)
    Blend: AUG-CC-PVTZ-JKFIT

    Orbital Energies [Eh]
    ---------------------

    Doubly Occupied:

       1A    -80.099863     2A    -20.603738     3A    -20.588255
       4A    -20.584927     5A    -20.509912     6A    -11.302398
       7A    -11.298511     8A    -11.233482     9A    -11.228024
      10A     -7.616131    11A     -5.514593    12A     -5.514299
      13A     -5.513145    14A     -1.450325    15A     -1.382244
      16A     -1.374637    17A     -1.290313    18A     -1.043405
      19A     -1.033459    20A     -0.878025    21A     -0.862637
      22A     -0.809661    23A     -0.732595    24A     -0.715895
      25A     -0.683149    26A     -0.656871    27A     -0.651835
      28A     -0.622108    29A     -0.602403    30A     -0.577104
      31A     -0.565512    32A     -0.563805    33A     -0.544345
      34A     -0.540342    35A     -0.535062    36A     -0.518893
      37A     -0.503266    38A     -0.480560    39A     -0.475514
      40A     -0.464505    41A     -0.460572

  @DF-RHF Final Energy:  -798.38878667761480

   => Energetics <=

    Nuclear Repulsion Energy =            629.8837927153549572
    One-Electron Energy =               -2351.2925202233764139
    Two-Electron Energy =                 923.0199408304066537
    Total Energy =                       -798.3887866776148030
  Basis Set: (AUG-CC-PVTZ AUX)
    Blend: AUG-CC-PVTZ-RI
    Molecular point group: c1

    Geometry (in Angstrom), charge = 0, multiplicity = 1:

       Center              X                  Y                   Z               Mass
    ------------   -----------------  -----------------  -----------------  -----------------
         P            0.003342085211    -0.870456310505     0.122160243150    30.973761998420
         O           -1.180167914789     0.117174689495     0.558380243150    15.994914619570
         O            1.059266985211     0.118946589495    -0.518491256850    15.994914619570
         O           -0.600062914789    -1.584180310505    -1.195551756850    15.994914619570
         O            0.473677085211    -1.765834310505     1.202349243150    15.994914619570
         C           -1.784180914789     0.989649689495    -0.435620756850    12.000000000000
         C            1.965891085211     0.819485689495     0.379620243150    12.000000000000
         C           -2.800224914789     1.836017689495     0.291563243150    12.000000000000
         C            2.894572085211     1.676382689495    -0.450284756850    12.000000000000
         H           -0.997950914789     1.596582689495    -0.898146756850     1.007825032230
         H           -2.251792914789     0.367465689495    -1.205819756850     1.007825032230
         H            1.284411785211     1.408467089495     1.002936643150     1.007825032230
         H            2.511950085211     0.100674689495     0.994195243150     1.007825032230
         H           -3.293530914789     2.513276689495    -0.412696756850     1.007825032230
         H           -3.558827914789     1.203760689495     0.759830243150     1.007825032230
         H           -2.313207914789     2.430081689495     1.071696243150     1.007825032230
         H            3.562118085211     2.248812689495     0.203053243150     1.007825032230
         H            3.501316085211     1.050138689495    -1.110423756850     1.007825032230
         H            2.323028085211     2.373908689495    -1.065740756850     1.007825032230
         H           -0.232573914789    -2.484065310505    -1.277557756850     1.007825032230

  Basis Set: AUG-CC-PVTZ
    Blend: AUG-CC-PVTZ
  Basis Set: (AUG-CC-PVTZ AUX)
    Blend: AUG-CC-PVTZ-JKFIT
	 Reference Energy          =    -798.3887866776148030 [Eh]
	 Singles Energy            =      -0.0000000000000000 [Eh]
	 Same-Spin Energy          =      -0.4893177166154916 [Eh]
	 Opposite-Spin Energy      =      -1.5367339118793679 [Eh]
	 Correlation Energy        =      -2.0260516284948595 [Eh]
	 Total Energy              =    -800.4148383061096865 [Eh]

	 ================> DF-SCS-MP2 Energies <==================
	-----------------------------------------------------------
	 SCS Same-Spin Scale       =       0.3333333333333333 [-]
	 SCS Opposite-Spin Scale   =       1.2000000000000000 [-]
	 SCS Same-Spin Energy      =      -0.1631059055384972 [Eh]
	 SCS Opposite-Spin Energy  =      -1.8440806942552415 [Eh]
	 SCS Correlation Energy    =      -2.0071865997937386 [Eh]
	 SCS Total Energy          =    -800.3959732774085296 [Eh]
	-----------------------------------------------------------

  Dipole Moment: [D]
     X:     0.2404      Y:     2.6405      Z:    -2.2990     Total:     3.5093

*** Psi4 exiting successfully. Buy a developer a beer!
