                               Psi4 1.3.2 release

  ==> Input File <==

--------------------------------------------------------------------------
#psi4
#
memory 32 gb

molecule  {
0 1
  P       -0.0032580    -0.8671950     0.1253540
  O       -1.1867680     0.1204360     0.5615740
  O        1.1133490     0.0895100    -0.5478160
  O       -0.6066630    -1.5809190    -1.1923580
  O        0.4352927    -1.7020652     1.1325460
  C       -1.7907810     0.9929110    -0.4324270
  C        1.9592910     0.8227470     0.3828140
  C       -2.8068250     1.8392790     0.2947570
  C        2.8879720     1.6796440    -0.4470910
  H       -1.0045510     1.5998440    -0.8949530
  H       -2.2583930     0.3707270    -1.2026260
  H        1.3234980     1.4321860     1.0341110
  H        2.5053500     0.1039360     0.9973890
  H       -3.3001310     2.5165380    -0.4095030
  H       -3.5654280     1.2070220     0.7630240
  H       -2.3198080     2.4333430     1.0748900
  H        3.5555180     2.2520740     0.2062470
  H        3.4947160     1.0534000    -1.1072300
  H        2.3164280     2.3771700    -1.0625470
  H       -0.2391740    -2.4808040    -1.2743640
units angstrom
no_reorient  #important for SAPT in psi4, default
symmetry c1  #important for SAPT in psi4, default
}

set PROPERTIES_ORIGIN ["COM"]
properties('MP2/aug-cc-pvtz', properties = ['dipole'])
--------------------------------------------------------------------------

    Molecular point group: c1
  Charge       = 0
  Multiplicity = 1
  Basis Set: AUG-CC-PVTZ
    Blend: AUG-CC-PVTZ
  Basis Set: (AUG-CC-PVTZ AUX)
    Blend: AUG-CC-PVTZ-JKFIT

    Orbital Energies [Eh]
    ---------------------

    Doubly Occupied:

       1A    -80.082399     2A    -20.597387     3A    -20.584774
       4A    -20.583369     5A    -20.507290     6A    -11.297389
       7A    -11.297111     8A    -11.228772     9A    -11.227424
      10A     -7.603970    11A     -5.502365    12A     -5.501539
      13A     -5.501097    14A     -1.448779    15A     -1.373557
      16A     -1.371676    17A     -1.333646    18A     -1.038391
      19A     -1.031028    20A     -0.868918    21A     -0.860834
      22A     -0.807276    23A     -0.727323    24A     -0.713362
      25A     -0.678053    26A     -0.656253    27A     -0.650909
      28A     -0.618222    29A     -0.602635    30A     -0.576749
      31A     -0.573923    32A     -0.561330    33A     -0.545586
      34A     -0.536835    35A     -0.531200    36A     -0.519327
      37A     -0.506188    38A     -0.487658    39A     -0.482352
      40A     -0.475738    41A     -0.468791

  @DF-RHF Final Energy:  -798.38519432527880

   => Energetics <=

    Nuclear Repulsion Energy =            633.1127743168626694
    One-Electron Energy =               -2357.8730810018751072
    Two-Electron Energy =                 926.3751123597336345
    Total Energy =                       -798.3851943252788033
  Basis Set: (AUG-CC-PVTZ AUX)
    Blend: AUG-CC-PVTZ-RI
    Molecular point group: c1

    Geometry (in Angstrom), charge = 0, multiplicity = 1:

       Center              X                  Y                   Z               Mass
    ------------   -----------------  -----------------  -----------------  -----------------
         P            0.000042531173    -0.873477838555     0.132933531231    30.973761998420
         O           -1.183467468827     0.114153161445     0.569153531231    15.994914619570
         O            1.116649531173     0.083227161445    -0.540236468769    15.994914619570
         O           -0.603362468827    -1.587201838555    -1.184778468769    15.994914619570
         O            0.438593231173    -1.708348038555     1.140125531231    15.994914619570
         C           -1.787480468827     0.986628161445    -0.424847468769    12.000000000000
         C            1.962591531173     0.816464161445     0.390393531231    12.000000000000
         C           -2.803524468827     1.832996161445     0.302336531231    12.000000000000
         C            2.891272531173     1.673361161445    -0.439511468769    12.000000000000
         H           -1.001250468827     1.593561161445    -0.887373468769     1.007825032230
         H           -2.255092468827     0.364444161445    -1.195046468769     1.007825032230
         H            1.326798531173     1.425903161445     1.041690531231     1.007825032230
         H            2.508650531173     0.097653161445     1.004968531231     1.007825032230
         H           -3.296830468827     2.510255161445    -0.401923468769     1.007825032230
         H           -3.562127468827     1.200739161445     0.770603531231     1.007825032230
         H           -2.316507468827     2.427060161445     1.082469531231     1.007825032230
         H            3.558818531173     2.245791161445     0.213826531231     1.007825032230
         H            3.498016531173     1.047117161445    -1.099650468769     1.007825032230
         H            2.319728531173     2.370887161445    -1.054967468769     1.007825032230
         H           -0.235873468827    -2.487086838555    -1.266784468769     1.007825032230

  Basis Set: AUG-CC-PVTZ
    Blend: AUG-CC-PVTZ
  Basis Set: (AUG-CC-PVTZ AUX)
    Blend: AUG-CC-PVTZ-JKFIT
	 Reference Energy          =    -798.3851943252788033 [Eh]
	 Singles Energy            =      -0.0000000000000000 [Eh]
	 Same-Spin Energy          =      -0.4873157538340792 [Eh]
	 Opposite-Spin Energy      =      -1.5323967600858008 [Eh]
	 Correlation Energy        =      -2.0197125139198802 [Eh]
	 Total Energy              =    -800.4049068391987021 [Eh]

	 ================> DF-SCS-MP2 Energies <==================
	-----------------------------------------------------------
	 SCS Same-Spin Scale       =       0.3333333333333333 [-]
	 SCS Opposite-Spin Scale   =       1.2000000000000000 [-]
	 SCS Same-Spin Energy      =      -0.1624385846113597 [Eh]
	 SCS Opposite-Spin Energy  =      -1.8388761121029609 [Eh]
	 SCS Correlation Energy    =      -2.0013146967143207 [Eh]
	 SCS Total Energy          =    -800.3865090219931062 [Eh]
	-----------------------------------------------------------

  Dipole Moment: [D]
     X:     0.0892      Y:     2.3019      Z:    -1.8622     Total:     2.9621

*** Psi4 exiting successfully. Buy a developer a beer!
