                               Psi4 1.3.2 release

  ==> Input File <==

--------------------------------------------------------------------------
#psi4
#
memory 32 gb

molecule  {
0 1
  P       -0.0032580    -0.8671950     0.1253540
  O       -1.1794963     0.1312688     0.5565526
  O        1.1051231     0.1007167    -0.5453856
  O       -0.6066630    -1.5809190    -1.1923580
  O        0.4670770    -1.7625730     1.2055430
  C       -1.7907810     0.9929110    -0.4324270
  C        1.9592910     0.8227470     0.3828140
  C       -2.8068250     1.8392790     0.2947570
  C        2.8879720     1.6796440    -0.4470910
  H       -1.0045510     1.5998440    -0.8949530
  H       -2.2583930     0.3707270    -1.2026260
  H        1.3234980     1.4321860     1.0341110
  H        2.5053500     0.1039360     0.9973890
  H       -3.3001310     2.5165380    -0.4095030
  H       -3.5654280     1.2070220     0.7630240
  H       -2.3198080     2.4333430     1.0748900
  H        3.5555180     2.2520740     0.2062470
  H        3.4947160     1.0534000    -1.1072300
  H        2.3164280     2.3771700    -1.0625470
  H       -0.2391740    -2.4808040    -1.2743640
units angstrom
no_reorient  #important for SAPT in psi4, default
symmetry c1  #important for SAPT in psi4, default
}

set PROPERTIES_ORIGIN ["COM"]
properties('MP2/aug-cc-pvtz', properties = ['dipole'])
--------------------------------------------------------------------------

    Molecular point group: c1
  Charge       = 0
  Multiplicity = 1
  Basis Set: AUG-CC-PVTZ
    Blend: AUG-CC-PVTZ
  Basis Set: (AUG-CC-PVTZ AUX)
    Blend: AUG-CC-PVTZ-JKFIT

    Orbital Energies [Eh]
    ---------------------

    Doubly Occupied:

       1A    -80.104755     2A    -20.605623     3A    -20.590328
       4A    -20.589732     5A    -20.512357     6A    -11.300202
       7A    -11.298747     8A    -11.230153     9A    -11.229394
      10A     -7.620335    11A     -5.518876    12A     -5.518390
      13A     -5.517318    14A     -1.447884    15A     -1.380617
      16A     -1.377419    17A     -1.292450    18A     -1.041448
      19A     -1.033116    20A     -0.873508    21A     -0.863937
      22A     -0.812988    23A     -0.731504    24A     -0.715674
      25A     -0.682762    26A     -0.658194    27A     -0.651972
      28A     -0.619109    29A     -0.606006    30A     -0.576951
      31A     -0.565724    32A     -0.562178    33A     -0.545010
      34A     -0.539104    35A     -0.534528    36A     -0.519032
      37A     -0.503151    38A     -0.480074    39A     -0.477890
      40A     -0.466408    41A     -0.461266

  @DF-RHF Final Energy:  -798.38892840611243

   => Energetics <=

    Nuclear Repulsion Energy =            628.4025561248655549
    One-Electron Energy =               -2348.2707439052501286
    Two-Electron Energy =                 921.4792593742722602
    Total Energy =                       -798.3889284061124272
  Basis Set: (AUG-CC-PVTZ AUX)
    Blend: AUG-CC-PVTZ-RI
    Molecular point group: c1

    Geometry (in Angstrom), charge = 0, multiplicity = 1:

       Center              X                  Y                   Z               Mass
    ------------   -----------------  -----------------  -----------------  -----------------
         P           -0.003158757007    -0.869483426793     0.125622822035    30.973761998420
         O           -1.179397057007     0.128980373207     0.556821422035    15.994914619570
         O            1.105222342993     0.098428273207    -0.545116777965    15.994914619570
         O           -0.606563757007    -1.583207426793    -1.192089177965    15.994914619570
         O            0.467176242993    -1.764861426793     1.205811822035    15.994914619570
         C           -1.790681757007     0.990622573207    -0.432158177965    12.000000000000
         C            1.959390242993     0.820458573207     0.383082822035    12.000000000000
         C           -2.806725757007     1.836990573207     0.295025822035    12.000000000000
         C            2.888071242993     1.677355573207    -0.446822177965    12.000000000000
         H           -1.004451757007     1.597555573207    -0.894684177965     1.007825032230
         H           -2.258293757007     0.368438573207    -1.202357177965     1.007825032230
         H            1.323597242993     1.429897573207     1.034379822035     1.007825032230
         H            2.505449242993     0.101647573207     0.997657822035     1.007825032230
         H           -3.300031757007     2.514249573207    -0.409234177965     1.007825032230
         H           -3.565328757007     1.204733573207     0.763292822035     1.007825032230
         H           -2.319708757007     2.431054573207     1.075158822035     1.007825032230
         H            3.555617242993     2.249785573207     0.206515822035     1.007825032230
         H            3.494815242993     1.051111573207    -1.106961177965     1.007825032230
         H            2.316527242993     2.374881573207    -1.062278177965     1.007825032230
         H           -0.239074757007    -2.483092426793    -1.274095177965     1.007825032230

  Basis Set: AUG-CC-PVTZ
    Blend: AUG-CC-PVTZ
  Basis Set: (AUG-CC-PVTZ AUX)
    Blend: AUG-CC-PVTZ-JKFIT
	 Reference Energy          =    -798.3889284061124272 [Eh]
	 Singles Energy            =      -0.0000000000000000 [Eh]
	 Same-Spin Energy          =      -0.4896886373306844 [Eh]
	 Opposite-Spin Energy      =      -1.5377893025803711 [Eh]
	 Correlation Energy        =      -2.0274779399110554 [Eh]
	 Total Energy              =    -800.4164063460234502 [Eh]

	 ================> DF-SCS-MP2 Energies <==================
	-----------------------------------------------------------
	 SCS Same-Spin Scale       =       0.3333333333333333 [-]
	 SCS Opposite-Spin Scale   =       1.2000000000000000 [-]
	 SCS Same-Spin Energy      =      -0.1632295457768948 [Eh]
	 SCS Opposite-Spin Energy  =      -1.8453471630964451 [Eh]
	 SCS Correlation Energy    =      -2.0085767088733397 [Eh]
	 SCS Total Energy          =    -800.3975051149857336 [Eh]
	-----------------------------------------------------------

  Dipole Moment: [D]
     X:    -0.0505      Y:     2.5697      Z:    -2.2002     Total:     3.3833

*** Psi4 exiting successfully. Buy a developer a beer!
