                               Psi4 1.3.2 release

  ==> Input File <==

--------------------------------------------------------------------------
#psi4
#
memory 32 gb

molecule  {
0 1
  P       -0.0032580    -0.8671950     0.1253540
  O       -1.1867680     0.1204360     0.5615740
  O        1.1030697     0.0948224    -0.5425711
  O       -0.6066630    -1.5809190    -1.1923580
  O        0.4670770    -1.7625730     1.2055430
  C       -1.7907810     0.9929110    -0.4324270
  C        1.9592910     0.8227470     0.3828140
  C       -2.8068250     1.8392790     0.2947570
  C        2.8879720     1.6796440    -0.4470910
  H       -1.0045510     1.5998440    -0.8949530
  H       -2.2583930     0.3707270    -1.2026260
  H        1.3157592     1.4288909     1.0295695
  H        2.5053500     0.1039360     0.9973890
  H       -3.3001310     2.5165380    -0.4095030
  H       -3.5654280     1.2070220     0.7630240
  H       -2.3198080     2.4333430     1.0748900
  H        3.5555180     2.2520740     0.2062470
  H        3.4947160     1.0534000    -1.1072300
  H        2.3164280     2.3771700    -1.0625470
  H       -0.2391740    -2.4808040    -1.2743640
units angstrom
no_reorient  #important for SAPT in psi4, default
symmetry c1  #important for SAPT in psi4, default
}

set PROPERTIES_ORIGIN ["COM"]
properties('MP2/aug-cc-pvtz', properties = ['dipole'])
--------------------------------------------------------------------------

    Molecular point group: c1
  Charge       = 0
  Multiplicity = 1
  Basis Set: AUG-CC-PVTZ
    Blend: AUG-CC-PVTZ
  Basis Set: (AUG-CC-PVTZ AUX)
    Blend: AUG-CC-PVTZ-JKFIT

    Orbital Energies [Eh]
    ---------------------

    Doubly Occupied:

       1A    -80.103351     2A    -20.604532     3A    -20.590116
       4A    -20.590028     5A    -20.510761     6A    -11.300875
       7A    -11.299778     8A    -11.230978     9A    -11.229656
      10A     -7.619076    11A     -5.517604    12A     -5.517127
      13A     -5.516074    14A     -1.447485    15A     -1.379536
      16A     -1.377102    17A     -1.291056    18A     -1.041801
      19A     -1.033841    20A     -0.873744    21A     -0.863910
      22A     -0.812470    23A     -0.731259    24A     -0.715187
      25A     -0.682481    26A     -0.657876    27A     -0.651533
      28A     -0.619409    29A     -0.604995    30A     -0.576732
      31A     -0.565493    32A     -0.562522    33A     -0.544706
      34A     -0.539477    35A     -0.534472    36A     -0.519590
      37A     -0.503710    38A     -0.480883    39A     -0.478783
      40A     -0.465089    41A     -0.460395

  @DF-RHF Final Energy:  -798.38916276017085

   => Energetics <=

    Nuclear Repulsion Energy =            628.4140940713093642
    One-Electron Energy =               -2348.3155327719123306
    Two-Electron Energy =                 921.5122759404321187
    Total Energy =                       -798.3891627601708478
  Basis Set: (AUG-CC-PVTZ AUX)
    Blend: AUG-CC-PVTZ-RI
    Molecular point group: c1

    Geometry (in Angstrom), charge = 0, multiplicity = 1:

       Center              X                  Y                   Z               Mass
    ------------   -----------------  -----------------  -----------------  -----------------
         P           -0.002139839528    -0.867724985432     0.124838883387    30.973761998420
         O           -1.185649839528     0.119906014568     0.561058883387    15.994914619570
         O            1.104187860472     0.094292414568    -0.543086216613    15.994914619570
         O           -0.605544839528    -1.581448985432    -1.192873116613    15.994914619570
         O            0.468195160472    -1.763102985432     1.205027883387    15.994914619570
         C           -1.789662839528     0.992381014568    -0.432942116613    12.000000000000
         C            1.960409160472     0.822217014568     0.382298883387    12.000000000000
         C           -2.805706839528     1.838749014568     0.294241883387    12.000000000000
         C            2.889090160472     1.679114014568    -0.447606116613    12.000000000000
         H           -1.003432839528     1.599314014568    -0.895468116613     1.007825032230
         H           -2.257274839528     0.370197014568    -1.203141116613     1.007825032230
         H            1.316877360472     1.428360914568     1.029054383387     1.007825032230
         H            2.506468160472     0.103406014568     0.996873883387     1.007825032230
         H           -3.299012839528     2.516008014568    -0.410018116613     1.007825032230
         H           -3.564309839528     1.206492014568     0.762508883387     1.007825032230
         H           -2.318689839528     2.432813014568     1.074374883387     1.007825032230
         H            3.556636160472     2.251544014568     0.205731883387     1.007825032230
         H            3.495834160472     1.052870014568    -1.107745116613     1.007825032230
         H            2.317546160472     2.376640014568    -1.063062116613     1.007825032230
         H           -0.238055839528    -2.481333985432    -1.274879116613     1.007825032230

  Basis Set: AUG-CC-PVTZ
    Blend: AUG-CC-PVTZ
  Basis Set: (AUG-CC-PVTZ AUX)
    Blend: AUG-CC-PVTZ-JKFIT
	 Reference Energy          =    -798.3891627601708478 [Eh]
	 Singles Energy            =      -0.0000000000000000 [Eh]
	 Same-Spin Energy          =      -0.4896197929176625 [Eh]
	 Opposite-Spin Energy      =      -1.5377144287347051 [Eh]
	 Correlation Energy        =      -2.0273342216523678 [Eh]
	 Total Energy              =    -800.4164969818232294 [Eh]

	 ================> DF-SCS-MP2 Energies <==================
	-----------------------------------------------------------
	 SCS Same-Spin Scale       =       0.3333333333333333 [-]
	 SCS Opposite-Spin Scale   =       1.2000000000000000 [-]
	 SCS Same-Spin Energy      =      -0.1632065976392208 [Eh]
	 SCS Opposite-Spin Energy  =      -1.8452573144816460 [Eh]
	 SCS Correlation Energy    =      -2.0084639121208667 [Eh]
	 SCS Total Energy          =    -800.3976266722917217 [Eh]
	-----------------------------------------------------------

  Dipole Moment: [D]
     X:    -0.0114      Y:     2.6491      Z:    -2.2267     Total:     3.4606

*** Psi4 exiting successfully. Buy a developer a beer!
