                               Psi4 1.3.2 release

  ==> Input File <==

--------------------------------------------------------------------------
#psi4
#
memory 32 gb

molecule  {
0 1
  P       -0.0032580    -0.8671950     0.1253540
  O       -1.2096963     0.1109115     0.5668226
  O        1.1133490     0.0895100    -0.5478160
  O       -0.6066630    -1.5809190    -1.1923580
  O        0.4670770    -1.7625730     1.2055430
  C       -1.7907810     0.9929110    -0.4324270
  C        1.9592910     0.8227470     0.3828140
  C       -2.8068250     1.8392790     0.2947570
  C        2.8879720     1.6796440    -0.4470910
  H       -1.0177452     1.6082613    -0.9059408
  H       -2.2583930     0.3707270    -1.2026260
  H        1.3234980     1.4321860     1.0341110
  H        2.5053500     0.1039360     0.9973890
  H       -3.3001310     2.5165380    -0.4095030
  H       -3.5654280     1.2070220     0.7630240
  H       -2.3198080     2.4333430     1.0748900
  H        3.5555180     2.2520740     0.2062470
  H        3.4947160     1.0534000    -1.1072300
  H        2.3164280     2.3771700    -1.0625470
  H       -0.2391740    -2.4808040    -1.2743640
units angstrom
no_reorient  #important for SAPT in psi4, default
symmetry c1  #important for SAPT in psi4, default
}

set PROPERTIES_ORIGIN ["COM"]
properties('MP2/aug-cc-pvtz', properties = ['dipole'])
--------------------------------------------------------------------------

    Molecular point group: c1
  Charge       = 0
  Multiplicity = 1
  Basis Set: AUG-CC-PVTZ
    Blend: AUG-CC-PVTZ
  Basis Set: (AUG-CC-PVTZ AUX)
    Blend: AUG-CC-PVTZ-JKFIT

    Orbital Energies [Eh]
    ---------------------

    Doubly Occupied:

       1A    -80.105590     2A    -20.604917     3A    -20.592398
       4A    -20.591762     5A    -20.511641     6A    -11.300199
       7A    -11.300150     8A    -11.231096     9A    -11.228917
      10A     -7.620998    11A     -5.519522    12A     -5.518984
      13A     -5.518009    14A     -1.445971    15A     -1.379464
      16A     -1.376566    17A     -1.291815    18A     -1.041159
      19A     -1.033575    20A     -0.872983    21A     -0.862738
      22A     -0.813720    23A     -0.730933    24A     -0.714987
      25A     -0.681616    26A     -0.657908    27A     -0.651653
      28A     -0.619718    29A     -0.604230    30A     -0.576801
      31A     -0.565736    32A     -0.562149    33A     -0.544136
      34A     -0.539481    35A     -0.534379    36A     -0.519375
      37A     -0.504070    38A     -0.481077    39A     -0.479190
      40A     -0.465387    41A     -0.461186

  @DF-RHF Final Energy:  -798.38747889831666

   => Energetics <=

    Nuclear Repulsion Energy =            627.5085282864035889
    One-Electron Energy =               -2346.4796379324275222
    Two-Electron Energy =                 920.5836307477072751
    Total Energy =                       -798.3874788983166582
  Basis Set: (AUG-CC-PVTZ AUX)
    Blend: AUG-CC-PVTZ-RI
    Molecular point group: c1

    Geometry (in Angstrom), charge = 0, multiplicity = 1:

       Center              X                  Y                   Z               Mass
    ------------   -----------------  -----------------  -----------------  -----------------
         P           -0.000790719534    -0.866261004409     0.124880675015    30.973761998420
         O           -1.207229019534     0.111845495591     0.566349275015    15.994914619570
         O            1.115816280466     0.090443995591    -0.548289324985    15.994914619570
         O           -0.604195719534    -1.579985004409    -1.192831324985    15.994914619570
         O            0.469544280466    -1.761639004409     1.205069675015    15.994914619570
         C           -1.788313719534     0.993844995591    -0.432900324985    12.000000000000
         C            1.961758280466     0.823680995591     0.382340675015    12.000000000000
         C           -2.804357719534     1.840212995591     0.294283675015    12.000000000000
         C            2.890439280466     1.680577995591    -0.447564324985    12.000000000000
         H           -1.015277919534     1.609195295591    -0.906414124985     1.007825032230
         H           -2.255925719534     0.371660995591    -1.203099324985     1.007825032230
         H            1.325965280466     1.433119995591     1.033637675015     1.007825032230
         H            2.507817280466     0.104869995591     0.996915675015     1.007825032230
         H           -3.297663719534     2.517471995591    -0.409976324985     1.007825032230
         H           -3.562960719534     1.207955995591     0.762550675015     1.007825032230
         H           -2.317340719534     2.434276995591     1.074416675015     1.007825032230
         H            3.557985280466     2.253007995591     0.205773675015     1.007825032230
         H            3.497183280466     1.054333995591    -1.107703324985     1.007825032230
         H            2.318895280466     2.378103995591    -1.063020324985     1.007825032230
         H           -0.236706719534    -2.479870004409    -1.274837324985     1.007825032230

  Basis Set: AUG-CC-PVTZ
    Blend: AUG-CC-PVTZ
  Basis Set: (AUG-CC-PVTZ AUX)
    Blend: AUG-CC-PVTZ-JKFIT
	 Reference Energy          =    -798.3874788983166582 [Eh]
	 Singles Energy            =      -0.0000000000000000 [Eh]
	 Same-Spin Energy          =      -0.4898887972642447 [Eh]
	 Opposite-Spin Energy      =      -1.5384838683172795 [Eh]
	 Correlation Energy        =      -2.0283726655815242 [Eh]
	 Total Energy              =    -800.4158515638981726 [Eh]

	 ================> DF-SCS-MP2 Energies <==================
	-----------------------------------------------------------
	 SCS Same-Spin Scale       =       0.3333333333333333 [-]
	 SCS Opposite-Spin Scale   =       1.2000000000000000 [-]
	 SCS Same-Spin Energy      =      -0.1632962657547482 [Eh]
	 SCS Opposite-Spin Energy  =      -1.8461806419807352 [Eh]
	 SCS Correlation Energy    =      -2.0094769077354835 [Eh]
	 SCS Total Energy          =    -800.3969558060521194 [Eh]
	-----------------------------------------------------------

  Dipole Moment: [D]
     X:     0.0453      Y:     2.6426      Z:    -2.2248     Total:     3.4547

*** Psi4 exiting successfully. Buy a developer a beer!
