                               Psi4 1.4a3.dev225

  ==> Input File <==

--------------------------------------------------------------------------
#psi4
#
memory 32 gb

molecule  {
0 1
  P       -0.0193980    -0.9573280    -0.1096150
  O        1.2547052     0.0020522    -0.5549487
  O       -1.1156210     0.0613730     0.5053800
  O        0.5163150    -1.6599550     1.2462920
  O       -0.4960840    -1.8598830    -1.1802340
  C        1.8380650     0.8393470     0.4463000
  C       -1.9139900     0.7949960    -0.4653280
  C        2.8342980     1.7043970    -0.2898420
  C       -2.8451070     1.6924310     0.3153960
  H        1.0624120     1.4376840     0.9337170
  H        2.3223620     0.2121780     1.1993520
  H       -1.2444800     1.3745780    -1.1102950
  H       -2.4582310     0.0769500    -1.0841060
  H        3.3419030     2.3695990     0.4147870
  H        3.5818500     1.0824000    -0.7858930
  H        2.3288000     2.3113610    -1.0437700
  H       -3.4753290     2.2644580    -0.3716610
  H       -3.4879190     1.0956960     0.9656320
  H       -2.2756200     2.3909680     0.9321420
  H        0.1488640    -2.5599310     1.3156750
units angstrom
no_reorient  #important for SAPT in psi4, default
symmetry c1  #important for SAPT in psi4, default
}

set PROPERTIES_ORIGIN ["COM"]
properties('MP2/aug-cc-pvtz', properties = ['dipole'])
--------------------------------------------------------------------------

    Molecular point group: c1
  Charge       = 0
  Multiplicity = 1
  Basis Set: AUG-CC-PVTZ
    Blend: AUG-CC-PVTZ
  Basis Set: (AUG-CC-PVTZ AUX)
    Blend: AUG-CC-PVTZ-JKFIT

    Orbital Energies [Eh]
    ---------------------

    Doubly Occupied:

       1A    -80.112045     2A    -20.609002     3A    -20.594737
       4A    -20.590804     5A    -20.516573     6A    -11.300838
       7A    -11.293768     8A    -11.231037     9A    -11.225068
      10A     -7.626666    11A     -5.525147    12A     -5.524588
      13A     -5.523695    14A     -1.444577    15A     -1.381956
      16A     -1.376140    17A     -1.296431    18A     -1.040524
      19A     -1.029486    20A     -0.873894    21A     -0.859874
      22A     -0.815250    23A     -0.730216    24A     -0.714381
      25A     -0.683038    26A     -0.658328    27A     -0.654257
      28A     -0.620723    29A     -0.603089    30A     -0.577268
      31A     -0.567458    32A     -0.562609    33A     -0.543002
      34A     -0.539156    35A     -0.535458    36A     -0.517408
      37A     -0.502699    38A     -0.479690    39A     -0.475060
      40A     -0.468680    41A     -0.464187

  @DF-RHF Final Energy:  -798.38371414166181

   => Energetics <=

    Nuclear Repulsion Energy =            626.2329857101887001
    One-Electron Energy =               -2343.8557863213372912
    Two-Electron Energy =                 919.2390864694868924
    Total Energy =                       -798.3837141416618124
  Basis Set: (AUG-CC-PVTZ AUX)
    Blend: AUG-CC-PVTZ-RI
    Molecular point group: c1

    Geometry (in Angstrom), charge = 0, multiplicity = 1:

       Center              X                  Y                   Z               Mass
    ------------   -----------------  -----------------  -----------------  -----------------
         P           -0.024266829687    -0.876746418903    -0.098729049879    30.973761998420
         O            1.249836370313     0.082633781097    -0.544062749879    15.994914619570
         O           -1.120489829687     0.141954581097     0.516265950121    15.994914619570
         O            0.511446170313    -1.579373418903     1.257177950121    15.994914619570
         O           -0.500952829687    -1.779301418903    -1.169348049879    15.994914619570
         C            1.833196170313     0.919928581097     0.457185950121    12.000000000000
         C           -1.918858829687     0.875577581097    -0.454442049879    12.000000000000
         C            2.829429170313     1.784978581097    -0.278956049879    12.000000000000
         C           -2.849975829687     1.773012581097     0.326281950121    12.000000000000
         H            1.057543170313     1.518265581097     0.944602950121     1.007825032230
         H            2.317493170313     0.292759581097     1.210237950121     1.007825032230
         H           -1.249348829687     1.455159581097    -1.099409049879     1.007825032230
         H           -2.463099829687     0.157531581097    -1.073220049879     1.007825032230
         H            3.337034170313     2.450180581097     0.425672950121     1.007825032230
         H            3.576981170313     1.162981581097    -0.775007049879     1.007825032230
         H            2.323931170313     2.391942581097    -1.032884049879     1.007825032230
         H           -3.480197829687     2.345039581097    -0.360775049879     1.007825032230
         H           -3.492787829687     1.176277581097     0.976517950121     1.007825032230
         H           -2.280488829687     2.471549581097     0.943027950121     1.007825032230
         H            0.143995170313    -2.479349418903     1.326560950121     1.007825032230

  Basis Set: AUG-CC-PVTZ
    Blend: AUG-CC-PVTZ
  Basis Set: (AUG-CC-PVTZ AUX)
    Blend: AUG-CC-PVTZ-JKFIT
	 Reference Energy          =    -798.3837141416618124 [Eh]
	 Singles Energy            =      -0.0000000000000000 [Eh]
	 Same-Spin Energy          =      -0.4903482570637593 [Eh]
	 Opposite-Spin Energy      =      -1.5395232917678401 [Eh]
	 Correlation Energy        =      -2.0298715488315993 [Eh]
	 Total Energy              =    -800.4135856904933917 [Eh]

	 ================> DF-SCS-MP2 Energies <==================
	-----------------------------------------------------------
	 SCS Same-Spin Scale       =       0.3333333333333333 [-]
	 SCS Opposite-Spin Scale   =       1.2000000000000000 [-]
	 SCS Same-Spin Energy      =      -0.1634494190212531 [Eh]
	 SCS Opposite-Spin Energy  =      -1.8474279501214079 [Eh]
	 SCS Correlation Energy    =      -2.0108773691426611 [Eh]
	 SCS Total Energy          =    -800.3945915108045028 [Eh]
	-----------------------------------------------------------

  Dipole Moment: [D]
     X:    -0.1819      Y:     2.4249      Z:     2.1001     Total:     3.2131

*** Psi4 exiting successfully. Buy a developer a beer!
