                               Psi4 1.3.2 release

  ==> Input File <==

--------------------------------------------------------------------------
#psi4
#
memory 32 gb

molecule  {
0 1
  P        0.0042314    -0.8788096     0.1281400
  O       -1.1867680     0.1204360     0.5615740
  O        1.1133490     0.0895100    -0.5478160
  O       -0.6066630    -1.5809190    -1.1923580
  O        0.4670770    -1.7625730     1.2055430
  C       -1.7907810     0.9929110    -0.4324270
  C        1.9592910     0.8227470     0.3828140
  C       -2.8068250     1.8392790     0.2947570
  C        2.8879720     1.6796440    -0.4470910
  H       -1.0045510     1.5998440    -0.8949530
  H       -2.2583930     0.3707270    -1.2026260
  H        1.3234980     1.4321860     1.0341110
  H        2.5053500     0.1039360     0.9973890
  H       -3.3001310     2.5165380    -0.4095030
  H       -3.5654280     1.2070220     0.7630240
  H       -2.3198080     2.4333430     1.0748900
  H        3.5555180     2.2520740     0.2062470
  H        3.4947160     1.0534000    -1.1072300
  H        2.3164280     2.3771700    -1.0625470
  H       -0.2346712    -2.4795736    -1.2672453
units angstrom
no_reorient  #important for SAPT in psi4, default
symmetry c1  #important for SAPT in psi4, default
}

set PROPERTIES_ORIGIN ["COM"]
properties('MP2/aug-cc-pvtz', properties = ['dipole'])
--------------------------------------------------------------------------

    Molecular point group: c1
  Charge       = 0
  Multiplicity = 1
  Basis Set: AUG-CC-PVTZ
    Blend: AUG-CC-PVTZ
  Basis Set: (AUG-CC-PVTZ AUX)
    Blend: AUG-CC-PVTZ-JKFIT

    Orbital Energies [Eh]
    ---------------------

    Doubly Occupied:

       1A    -80.103993     2A    -20.605981     3A    -20.590187
       4A    -20.588138     5A    -20.514034     6A    -11.299334
       7A    -11.299055     8A    -11.230352     9A    -11.228676
      10A     -7.619839    11A     -5.518343    12A     -5.517796
      13A     -5.516917    14A     -1.445804    15A     -1.379266
      16A     -1.373593    17A     -1.298784    18A     -1.040321
      19A     -1.032489    20A     -0.872156    21A     -0.862155
      22A     -0.811860    23A     -0.729742    24A     -0.712784
      25A     -0.681411    26A     -0.657722    27A     -0.652370
      28A     -0.618864    29A     -0.602897    30A     -0.576975
      31A     -0.567514    32A     -0.561727    33A     -0.544536
      34A     -0.538622    35A     -0.534082    36A     -0.519018
      37A     -0.503047    38A     -0.480255    39A     -0.477459
      40A     -0.469917    41A     -0.463966

  @DF-RHF Final Energy:  -798.38837679689368

   => Energetics <=

    Nuclear Repulsion Energy =            627.9142008532544423
    One-Electron Energy =               -2347.3211897123046583
    Two-Electron Energy =                 921.0186120621565351
    Total Energy =                       -798.3883767968936809
  Basis Set: (AUG-CC-PVTZ AUX)
    Blend: AUG-CC-PVTZ-RI
    Molecular point group: c1

    Geometry (in Angstrom), charge = 0, multiplicity = 1:

       Center              X                  Y                   Z               Mass
    ------------   -----------------  -----------------  -----------------  -----------------
         P            0.002696157800    -0.876482147306     0.127533006855    30.973761998420
         O           -1.188303242200     0.122763452694     0.560967006855    15.994914619570
         O            1.111813757800     0.091837452694    -0.548422993145    15.994914619570
         O           -0.608198242200    -1.578591547306    -1.192964993145    15.994914619570
         O            0.465541757800    -1.760245547306     1.204936006855    15.994914619570
         C           -1.792316242200     0.995238452694    -0.433033993145    12.000000000000
         C            1.957755757800     0.825074452694     0.382207006855    12.000000000000
         C           -2.808360242200     1.841606452694     0.294150006855    12.000000000000
         C            2.886436757800     1.681971452694    -0.447697993145    12.000000000000
         H           -1.006086242200     1.602171452694    -0.895559993145     1.007825032230
         H           -2.259928242200     0.373054452694    -1.203232993145     1.007825032230
         H            1.321962757800     1.434513452694     1.033504006855     1.007825032230
         H            2.503814757800     0.106263452694     0.996782006855     1.007825032230
         H           -3.301666242200     2.518865452694    -0.410109993145     1.007825032230
         H           -3.566963242200     1.209349452694     0.762417006855     1.007825032230
         H           -2.321343242200     2.435670452694     1.074283006855     1.007825032230
         H            3.553982757800     2.254401452694     0.205640006855     1.007825032230
         H            3.493180757800     1.055727452694    -1.107836993145     1.007825032230
         H            2.314892757800     2.379497452694    -1.063153993145     1.007825032230
         H           -0.236206442200    -2.477246147306    -1.267852293145     1.007825032230

  Basis Set: AUG-CC-PVTZ
    Blend: AUG-CC-PVTZ
  Basis Set: (AUG-CC-PVTZ AUX)
    Blend: AUG-CC-PVTZ-JKFIT
	 Reference Energy          =    -798.3883767968936809 [Eh]
	 Singles Energy            =      -0.0000000000000000 [Eh]
	 Same-Spin Energy          =      -0.4896604136745359 [Eh]
	 Opposite-Spin Energy      =      -1.5379707034969909 [Eh]
	 Correlation Energy        =      -2.0276311171715267 [Eh]
	 Total Energy              =    -800.4160079140651760 [Eh]

	 ================> DF-SCS-MP2 Energies <==================
	-----------------------------------------------------------
	 SCS Same-Spin Scale       =       0.3333333333333333 [-]
	 SCS Opposite-Spin Scale   =       1.2000000000000000 [-]
	 SCS Same-Spin Energy      =      -0.1632201378915120 [Eh]
	 SCS Opposite-Spin Energy  =      -1.8455648441963890 [Eh]
	 SCS Correlation Energy    =      -2.0087849820879011 [Eh]
	 SCS Total Energy          =    -800.3971617789816264 [Eh]
	-----------------------------------------------------------

  Dipole Moment: [D]
     X:     0.0361      Y:     2.5125      Z:    -2.1648     Total:     3.3167

*** Psi4 exiting successfully. Buy a developer a beer!
