                               Psi4 1.3.2 release

  ==> Input File <==

--------------------------------------------------------------------------
#psi4
#
memory 32 gb

molecule  {
0 1
  P       -0.0032580    -0.8671950     0.1253540
  O       -1.1861088     0.1094733     0.5872866
  O        1.1133490     0.0895100    -0.5478160
  O       -0.6066630    -1.5809190    -1.1923580
  O        0.4497765    -1.7519938     1.2215364
  C       -1.7907810     0.9929110    -0.4324270
  C        1.9592910     0.8227470     0.3828140
  C       -2.8068250     1.8392790     0.2947570
  C        2.8879720     1.6796440    -0.4470910
  H       -1.0045510     1.5998440    -0.8949530
  H       -2.2583930     0.3707270    -1.2026260
  H        1.3234980     1.4321860     1.0341110
  H        2.5053500     0.1039360     0.9973890
  H       -3.3001310     2.5165380    -0.4095030
  H       -3.5654280     1.2070220     0.7630240
  H       -2.3198080     2.4333430     1.0748900
  H        3.5555180     2.2520740     0.2062470
  H        3.4947160     1.0534000    -1.1072300
  H        2.3164280     2.3771700    -1.0625470
  H       -0.2391740    -2.4808040    -1.2743640
units angstrom
no_reorient  #important for SAPT in psi4, default
symmetry c1  #important for SAPT in psi4, default
}

set PROPERTIES_ORIGIN ["COM"]
properties('MP2/aug-cc-pvtz', properties = ['dipole'])
--------------------------------------------------------------------------

    Molecular point group: c1
  Charge       = 0
  Multiplicity = 1
  Basis Set: AUG-CC-PVTZ
    Blend: AUG-CC-PVTZ
  Basis Set: (AUG-CC-PVTZ AUX)
    Blend: AUG-CC-PVTZ-JKFIT

    Orbital Energies [Eh]
    ---------------------

    Doubly Occupied:

       1A    -80.102534     2A    -20.605515     3A    -20.591329
       4A    -20.590555     5A    -20.508236     6A    -11.303531
       7A    -11.299369     8A    -11.230720     9A    -11.230671
      10A     -7.618267    11A     -5.516760    12A     -5.516258
      13A     -5.515290    14A     -1.445188    15A     -1.379319
      16A     -1.373057    17A     -1.288727    18A     -1.041611
      19A     -1.034275    20A     -0.871971    21A     -0.863007
      22A     -0.812931    23A     -0.730434    24A     -0.712697
      25A     -0.681403    26A     -0.657140    27A     -0.650940
      28A     -0.618719    29A     -0.602322    30A     -0.577032
      31A     -0.565519    32A     -0.561470    33A     -0.543659
      34A     -0.539316    35A     -0.533997    36A     -0.520901
      37A     -0.505044    38A     -0.482573    39A     -0.480147
      40A     -0.462804    41A     -0.458453

  @DF-RHF Final Energy:  -798.38728932823994

   => Energetics <=

    Nuclear Repulsion Energy =            627.6710985278343742
    One-Electron Energy =               -2346.8693871481814313
    Two-Electron Energy =                 920.8109992921071125
    Total Energy =                       -798.3872893282399446
  Basis Set: (AUG-CC-PVTZ AUX)
    Blend: AUG-CC-PVTZ-RI
    Molecular point group: c1

    Geometry (in Angstrom), charge = 0, multiplicity = 1:

       Center              X                  Y                   Z               Mass
    ------------   -----------------  -----------------  -----------------  -----------------
         P           -0.001529864210    -0.867155102043     0.121023178748    30.973761998420
         O           -1.184380664210     0.109513197957     0.582955778748    15.994914619570
         O            1.115077135790     0.089549897957    -0.552146821252    15.994914619570
         O           -0.604934864210    -1.580879102043    -1.196688821252    15.994914619570
         O            0.451504635790    -1.751953902043     1.217205578748    15.994914619570
         C           -1.789052864210     0.992950897957    -0.436757821252    12.000000000000
         C            1.961019135790     0.822786897957     0.378483178748    12.000000000000
         C           -2.805096864210     1.839318897957     0.290426178748    12.000000000000
         C            2.889700135790     1.679683897957    -0.451421821252    12.000000000000
         H           -1.002822864210     1.599883897957    -0.899283821252     1.007825032230
         H           -2.256664864210     0.370766897957    -1.206956821252     1.007825032230
         H            1.325226135790     1.432225897957     1.029780178748     1.007825032230
         H            2.507078135790     0.103975897957     0.993058178748     1.007825032230
         H           -3.298402864210     2.516577897957    -0.413833821252     1.007825032230
         H           -3.563699864210     1.207061897957     0.758693178748     1.007825032230
         H           -2.318079864210     2.433382897957     1.070559178748     1.007825032230
         H            3.557246135790     2.252113897957     0.201916178748     1.007825032230
         H            3.496444135790     1.053439897957    -1.111560821252     1.007825032230
         H            2.318156135790     2.377209897957    -1.066877821252     1.007825032230
         H           -0.237445864210    -2.480764102043    -1.278694821252     1.007825032230

  Basis Set: AUG-CC-PVTZ
    Blend: AUG-CC-PVTZ
  Basis Set: (AUG-CC-PVTZ AUX)
    Blend: AUG-CC-PVTZ-JKFIT
	 Reference Energy          =    -798.3872893282399446 [Eh]
	 Singles Energy            =      -0.0000000000000000 [Eh]
	 Same-Spin Energy          =      -0.4898235947747422 [Eh]
	 Opposite-Spin Energy      =      -1.5385368634201657 [Eh]
	 Correlation Energy        =      -2.0283604581949080 [Eh]
	 Total Energy              =    -800.4156497864348694 [Eh]

	 ================> DF-SCS-MP2 Energies <==================
	-----------------------------------------------------------
	 SCS Same-Spin Scale       =       0.3333333333333333 [-]
	 SCS Opposite-Spin Scale   =       1.2000000000000000 [-]
	 SCS Same-Spin Energy      =      -0.1632745315915807 [Eh]
	 SCS Opposite-Spin Energy  =      -1.8462442361041989 [Eh]
	 SCS Correlation Energy    =      -2.0095187676957798 [Eh]
	 SCS Total Energy          =    -800.3968080959357394 [Eh]
	-----------------------------------------------------------

  Dipole Moment: [D]
     X:    -0.0557      Y:     2.6987      Z:    -2.3334     Total:     3.5680

*** Psi4 exiting successfully. Buy a developer a beer!
