                               Psi4 1.3.2 release

  ==> Input File <==

--------------------------------------------------------------------------
#psi4
#
memory 32 gb

molecule  {
0 1
  P        0.0409693    -0.9376667     0.1405574
  O       -1.1867680     0.1204360     0.5615740
  O        1.1133490     0.0895100    -0.5478160
  O       -0.6066630    -1.5809190    -1.1923580
  O        0.4670770    -1.7625730     1.2055430
  C       -1.7907810     0.9929110    -0.4324270
  C        1.9592910     0.8227470     0.3828140
  C       -2.8068250     1.8392790     0.2947570
  C        2.8879720     1.6796440    -0.4470910
  H       -1.0045510     1.5998440    -0.8949530
  H       -2.2583930     0.3707270    -1.2026260
  H        1.3234980     1.4321860     1.0341110
  H        2.5053500     0.1039360     0.9973890
  H       -3.3001310     2.5165380    -0.4095030
  H       -3.5654280     1.2070220     0.7630240
  H       -2.3198080     2.4333430     1.0748900
  H        3.5555180     2.2520740     0.2062470
  H        3.4947160     1.0534000    -1.1072300
  H        2.3164280     2.3771700    -1.0625470
  H       -0.2125887    -2.4723972    -1.2315771
units angstrom
no_reorient  #important for SAPT in psi4, default
symmetry c1  #important for SAPT in psi4, default
}

set PROPERTIES_ORIGIN ["COM"]
properties('MP2/aug-cc-pvtz', properties = ['dipole'])
--------------------------------------------------------------------------

    Molecular point group: c1
  Charge       = 0
  Multiplicity = 1
  Basis Set: AUG-CC-PVTZ
    Blend: AUG-CC-PVTZ
  Basis Set: (AUG-CC-PVTZ AUX)
    Blend: AUG-CC-PVTZ-JKFIT

    Orbital Energies [Eh]
    ---------------------

    Doubly Occupied:

       1A    -80.103287     2A    -20.612802     3A    -20.589243
       4A    -20.572815     5A    -20.529007     6A    -11.298014
       7A    -11.289404     8A    -11.229702     9A    -11.222207
      10A     -7.620991    11A     -5.519247    12A     -5.518567
      13A     -5.518443    14A     -1.445001    15A     -1.379664
      16A     -1.353824    17A     -1.333963    18A     -1.036274
      19A     -1.023721    20A     -0.868661    21A     -0.852027
      22A     -0.806192    23A     -0.725275    24A     -0.701443
      25A     -0.679499    26A     -0.663851    27A     -0.647052
      28A     -0.620076    29A     -0.594326    30A     -0.579293
      31A     -0.577406    32A     -0.558574    33A     -0.541882
      34A     -0.536236    35A     -0.530152    36A     -0.518525
      37A     -0.503984    38A     -0.493911    39A     -0.480293
      40A     -0.471782    41A     -0.461726

  @DF-RHF Final Energy:  -798.37672718470958

   => Energetics <=

    Nuclear Repulsion Energy =            626.9511374034519804
    One-Electron Energy =               -2345.4390423594745698
    Two-Electron Energy =                 920.1111777713131232
    Total Energy =                       -798.3767271847095799
  Basis Set: (AUG-CC-PVTZ AUX)
    Blend: AUG-CC-PVTZ-RI
    Molecular point group: c1

    Geometry (in Angstrom), charge = 0, multiplicity = 1:

       Center              X                  Y                   Z               Mass
    ------------   -----------------  -----------------  -----------------  -----------------
         P            0.031902442217    -0.923551405221     0.137220192147    30.973761998420
         O           -1.195834857783     0.134551294779     0.558236792147    15.994914619570
         O            1.104282142217     0.103625294779    -0.551153207853    15.994914619570
         O           -0.615729857783    -1.566803705221    -1.195695207853    15.994914619570
         O            0.458010142217    -1.748457705221     1.202205792147    15.994914619570
         C           -1.799847857783     1.007026294779    -0.435764207853    12.000000000000
         C            1.950224142217     0.836862294779     0.379476792147    12.000000000000
         C           -2.815891857783     1.853394294779     0.291419792147    12.000000000000
         C            2.878905142217     1.693759294779    -0.450428207853    12.000000000000
         H           -1.013617857783     1.613959294779    -0.898290207853     1.007825032230
         H           -2.267459857783     0.384842294779    -1.205963207853     1.007825032230
         H            1.314431142217     1.446301294779     1.030773792147     1.007825032230
         H            2.496283142217     0.118051294779     0.994051792147     1.007825032230
         H           -3.309197857783     2.530653294779    -0.412840207853     1.007825032230
         H           -3.574494857783     1.221137294779     0.759686792147     1.007825032230
         H           -2.328874857783     2.447458294779     1.071552792147     1.007825032230
         H            3.546451142217     2.266189294779     0.202909792147     1.007825032230
         H            3.485649142217     1.067515294779    -1.110567207853     1.007825032230
         H            2.307361142217     2.391285294779    -1.065884207853     1.007825032230
         H           -0.221655557783    -2.458281905221    -1.234914307853     1.007825032230

  Basis Set: AUG-CC-PVTZ
    Blend: AUG-CC-PVTZ
  Basis Set: (AUG-CC-PVTZ AUX)
    Blend: AUG-CC-PVTZ-JKFIT
	 Reference Energy          =    -798.3767271847095799 [Eh]
	 Singles Energy            =      -0.0000000000000000 [Eh]
	 Same-Spin Energy          =      -0.4895557659410313 [Eh]
	 Opposite-Spin Energy      =      -1.5382866768506944 [Eh]
	 Correlation Energy        =      -2.0278424427917257 [Eh]
	 Total Energy              =    -800.4045696275013597 [Eh]

	 ================> DF-SCS-MP2 Energies <==================
	-----------------------------------------------------------
	 SCS Same-Spin Scale       =       0.3333333333333333 [-]
	 SCS Opposite-Spin Scale   =       1.2000000000000000 [-]
	 SCS Same-Spin Energy      =      -0.1631852553136771 [Eh]
	 SCS Opposite-Spin Energy  =      -1.8459440122208333 [Eh]
	 SCS Correlation Energy    =      -2.0091292675345103 [Eh]
	 SCS Total Energy          =    -800.3858564522440702 [Eh]
	-----------------------------------------------------------

  Dipole Moment: [D]
     X:     0.5208      Y:     1.8251      Z:    -1.9475     Total:     2.7194

*** Psi4 exiting successfully. Buy a developer a beer!
