                               Psi4 1.3.2 release

  ==> Input File <==

--------------------------------------------------------------------------
#psi4
#
memory 32 gb

molecule  {
0 1
  P       -0.0032580    -0.8671950     0.1253540
  O       -1.1867680     0.1204360     0.5615740
  O        1.1133490     0.0895100    -0.5478160
  O       -0.6066630    -1.5809190    -1.1923580
  O        0.4988613    -1.8230808     1.2785400
  C       -1.7907810     0.9929110    -0.4324270
  C        1.9592910     0.8227470     0.3828140
  C       -2.8068250     1.8392790     0.2947570
  C        2.8879720     1.6796440    -0.4470910
  H       -1.0045510     1.5998440    -0.8949530
  H       -2.2583930     0.3707270    -1.2026260
  H        1.3234980     1.4321860     1.0341110
  H        2.5053500     0.1039360     0.9973890
  H       -3.3001310     2.5165380    -0.4095030
  H       -3.5654280     1.2070220     0.7630240
  H       -2.3198080     2.4333430     1.0748900
  H        3.5555180     2.2520740     0.2062470
  H        3.4947160     1.0534000    -1.1072300
  H        2.3164280     2.3771700    -1.0625470
  H       -0.2391740    -2.4808040    -1.2743640
units angstrom
no_reorient  #important for SAPT in psi4, default
symmetry c1  #important for SAPT in psi4, default
}

set PROPERTIES_ORIGIN ["COM"]
properties('MP2/aug-cc-pvtz', properties = ['dipole'])
--------------------------------------------------------------------------

    Molecular point group: c1
  Charge       = 0
  Multiplicity = 1
  Basis Set: AUG-CC-PVTZ
    Blend: AUG-CC-PVTZ
  Basis Set: (AUG-CC-PVTZ AUX)
    Blend: AUG-CC-PVTZ-JKFIT

    Orbital Energies [Eh]
    ---------------------

    Doubly Occupied:

       1A    -80.120086     2A    -20.611380     3A    -20.596858
       4A    -20.596645     5A    -20.513518     6A    -11.304917
       7A    -11.301271     8A    -11.232308     9A    -11.232078
      10A     -7.632610    11A     -5.531404    12A     -5.530903
      13A     -5.528896    14A     -1.449159    15A     -1.384787
      16A     -1.382044    17A     -1.250385    18A     -1.044770
      19A     -1.036153    20A     -0.877073    21A     -0.866947
      22A     -0.818190    23A     -0.735061    24A     -0.717571
      25A     -0.686264    26A     -0.660921    27A     -0.652556
      28A     -0.621074    29A     -0.608737    30A     -0.579212
      31A     -0.564729    32A     -0.559442    33A     -0.543545
      34A     -0.541031    35A     -0.532855    36A     -0.519908
      37A     -0.502985    38A     -0.483429    39A     -0.481046
      40A     -0.446458    41A     -0.444654

  @DF-RHF Final Energy:  -798.36962692796533

   => Energetics <=

    Nuclear Repulsion Energy =            623.5770590318476252
    One-Electron Energy =               -2338.4456517204753254
    Two-Electron Energy =                 916.4989657606624860
    Total Energy =                       -798.3696269279653279
  Basis Set: (AUG-CC-PVTZ AUX)
    Blend: AUG-CC-PVTZ-RI
    Molecular point group: c1

    Geometry (in Angstrom), charge = 0, multiplicity = 1:

       Center              X                  Y                   Z               Mass
    ------------   -----------------  -----------------  -----------------  -----------------
         P           -0.006558206670    -0.860912008090     0.117774032348    30.973761998420
         O           -1.190068206670     0.126718991910     0.553994032348    15.994914619570
         O            1.110048793330     0.095792991910    -0.555395967652    15.994914619570
         O           -0.609963206670    -1.574636008090    -1.199937967652    15.994914619570
         O            0.495561093330    -1.816797808090     1.270960032348    15.994914619570
         C           -1.794081206670     0.999193991910    -0.440006967652    12.000000000000
         C            1.955990793330     0.829029991910     0.375234032348    12.000000000000
         C           -2.810125206670     1.845561991910     0.287177032348    12.000000000000
         C            2.884671793330     1.685926991910    -0.454670967652    12.000000000000
         H           -1.007851206670     1.606126991910    -0.902532967652     1.007825032230
         H           -2.261693206670     0.377009991910    -1.210205967652     1.007825032230
         H            1.320197793330     1.438468991910     1.026531032348     1.007825032230
         H            2.502049793330     0.110218991910     0.989809032348     1.007825032230
         H           -3.303431206670     2.522820991910    -0.417082967652     1.007825032230
         H           -3.568728206670     1.213304991910     0.755444032348     1.007825032230
         H           -2.323108206670     2.439625991910     1.067310032348     1.007825032230
         H            3.552217793330     2.258356991910     0.198667032348     1.007825032230
         H            3.491415793330     1.059682991910    -1.114809967652     1.007825032230
         H            2.313127793330     2.383452991910    -1.070126967652     1.007825032230
         H           -0.242474206670    -2.474521008090    -1.281943967652     1.007825032230

  Basis Set: AUG-CC-PVTZ
    Blend: AUG-CC-PVTZ
  Basis Set: (AUG-CC-PVTZ AUX)
    Blend: AUG-CC-PVTZ-JKFIT
	 Reference Energy          =    -798.3696269279653279 [Eh]
	 Singles Energy            =      -0.0000000000000000 [Eh]
	 Same-Spin Energy          =      -0.4918890786160408 [Eh]
	 Opposite-Spin Energy      =      -1.5432999140331840 [Eh]
	 Correlation Energy        =      -2.0351889926492248 [Eh]
	 Total Energy              =    -800.4048159206145101 [Eh]

	 ================> DF-SCS-MP2 Energies <==================
	-----------------------------------------------------------
	 SCS Same-Spin Scale       =       0.3333333333333333 [-]
	 SCS Opposite-Spin Scale   =       1.2000000000000000 [-]
	 SCS Same-Spin Energy      =      -0.1639630262053469 [Eh]
	 SCS Opposite-Spin Energy  =      -1.8519598968398208 [Eh]
	 SCS Correlation Energy    =      -2.0159229230451676 [Eh]
	 SCS Total Energy          =    -800.3855498510105235 [Eh]
	-----------------------------------------------------------

  Dipole Moment: [D]
     X:    -0.2091      Y:     2.9880      Z:    -2.5536     Total:     3.9361

*** Psi4 exiting successfully. Buy a developer a beer!
