                               Psi4 1.3.2 release

  ==> Input File <==

--------------------------------------------------------------------------
#psi4
#
memory 32 gb

molecule  {
0 1
  P        0.0247570    -0.8426476     0.2013857
  O       -1.1867680     0.1204360     0.5615740
  O        1.1133490     0.0895100    -0.5478160
  O       -0.6066630    -1.5809190    -1.1923580
  O        0.4670770    -1.7625730     1.2055430
  C       -1.7907810     0.9929110    -0.4324270
  C        1.9210399     0.7901742     0.4401271
  C       -2.8068250     1.8392790     0.2947570
  C        2.8879720     1.6796440    -0.4470910
  H       -1.0045510     1.5998440    -0.8949530
  H       -2.2583930     0.3707270    -1.2026260
  H        1.3234980     1.4321860     1.0341110
  H        2.5053500     0.1039360     0.9973890
  H       -3.3001310     2.5165380    -0.4095030
  H       -3.5654280     1.2070220     0.7630240
  H       -2.3198080     2.4333430     1.0748900
  H        3.5555180     2.2520740     0.2062470
  H        3.4947160     1.0534000    -1.1072300
  H        2.3164280     2.3771700    -1.0625470
  H       -0.2391740    -2.4808040    -1.2743640
units angstrom
no_reorient  #important for SAPT in psi4, default
symmetry c1  #important for SAPT in psi4, default
}

set PROPERTIES_ORIGIN ["COM"]
properties('MP2/aug-cc-pvtz', properties = ['dipole'])
--------------------------------------------------------------------------

    Molecular point group: c1
  Charge       = 0
  Multiplicity = 1
  Basis Set: AUG-CC-PVTZ
    Blend: AUG-CC-PVTZ
  Basis Set: (AUG-CC-PVTZ AUX)
    Blend: AUG-CC-PVTZ-JKFIT

    Orbital Energies [Eh]
    ---------------------

    Doubly Occupied:

       1A    -80.101746     2A    -20.597157     3A    -20.594063
       4A    -20.580939     5A    -20.521966     6A    -11.303114
       7A    -11.299895     8A    -11.234222     9A    -11.231028
      10A     -7.618886    11A     -5.517073    12A     -5.516688
      13A     -5.516217    14A     -1.444358    15A     -1.383074
      16A     -1.350785    17A     -1.318983    18A     -1.042009
      19A     -1.024067    20A     -0.874984    21A     -0.869008
      22A     -0.805542    23A     -0.721286    24A     -0.714264
      25A     -0.685617    26A     -0.657732    27A     -0.641047
      28A     -0.619932    29A     -0.605885    30A     -0.568126
      31A     -0.564077    32A     -0.562753    33A     -0.548816
      34A     -0.541530    35A     -0.524216    36A     -0.516641
      37A     -0.501523    38A     -0.491295    39A     -0.480593
      40A     -0.479680    41A     -0.477351

  @DF-RHF Final Energy:  -798.37376018043142

   => Energetics <=

    Nuclear Repulsion Energy =            628.3653578698973661
    One-Electron Energy =               -2348.1818981045662440
    Two-Electron Energy =                 921.4427800542375735
    Total Energy =                       -798.3737601804314181
  Basis Set: (AUG-CC-PVTZ AUX)
    Blend: AUG-CC-PVTZ-RI
    Molecular point group: c1

    Geometry (in Angstrom), charge = 0, multiplicity = 1:

       Center              X                  Y                   Z               Mass
    ------------   -----------------  -----------------  -----------------  -----------------
         P            0.022103837919    -0.845045945385     0.181632463489    30.973761998420
         O           -1.189421162081     0.118037654615     0.541820763489    15.994914619570
         O            1.110695837919     0.087111654615    -0.567569236511    15.994914619570
         O           -0.609316162081    -1.583317345385    -1.212111236511    15.994914619570
         O            0.464423837919    -1.764971345385     1.185789763489    15.994914619570
         C           -1.793434162081     0.990512654615    -0.452180236511    12.000000000000
         C            1.918386737919     0.787775854615     0.420373863489    12.000000000000
         C           -2.809478162081     1.836880654615     0.275003763489    12.000000000000
         C            2.885318837919     1.677245654615    -0.466844236511    12.000000000000
         H           -1.007204162081     1.597445654615    -0.914706236511     1.007825032230
         H           -2.261046162081     0.368328654615    -1.222379236511     1.007825032230
         H            1.320844837919     1.429787654615     1.014357763489     1.007825032230
         H            2.502696837919     0.101537654615     0.977635763489     1.007825032230
         H           -3.302784162081     2.514139654615    -0.429256236511     1.007825032230
         H           -3.568081162081     1.204623654615     0.743270763489     1.007825032230
         H           -2.322461162081     2.430944654615     1.055136763489     1.007825032230
         H            3.552864837919     2.249675654615     0.186493763489     1.007825032230
         H            3.492062837919     1.051001654615    -1.126983236511     1.007825032230
         H            2.313774837919     2.374771654615    -1.082300236511     1.007825032230
         H           -0.241827162081    -2.483202345385    -1.294117236511     1.007825032230

  Basis Set: AUG-CC-PVTZ
    Blend: AUG-CC-PVTZ
  Basis Set: (AUG-CC-PVTZ AUX)
    Blend: AUG-CC-PVTZ-JKFIT
	 Reference Energy          =    -798.3737601804314181 [Eh]
	 Singles Energy            =      -0.0000000000000000 [Eh]
	 Same-Spin Energy          =      -0.4894418554303572 [Eh]
	 Opposite-Spin Energy      =      -1.5385782193322100 [Eh]
	 Correlation Energy        =      -2.0280200747625674 [Eh]
	 Total Energy              =    -800.4017802551940122 [Eh]

	 ================> DF-SCS-MP2 Energies <==================
	-----------------------------------------------------------
	 SCS Same-Spin Scale       =       0.3333333333333333 [-]
	 SCS Opposite-Spin Scale   =       1.2000000000000000 [-]
	 SCS Same-Spin Energy      =      -0.1631472851434524 [Eh]
	 SCS Opposite-Spin Energy  =      -1.8462938631986519 [Eh]
	 SCS Correlation Energy    =      -2.0094411483421042 [Eh]
	 SCS Total Energy          =    -800.3832013287735663 [Eh]
	-----------------------------------------------------------

  Dipole Moment: [D]
     X:     0.1347      Y:     2.9083      Z:    -1.4441     Total:     3.2499

*** Psi4 exiting successfully. Buy a developer a beer!
