                               Psi4 1.3.2 release

  ==> Input File <==

--------------------------------------------------------------------------
#psi4
#
memory 32 gb

molecule  {
0 1
  P       -0.0032580    -0.8671950     0.1253540
  O       -1.0390138    -0.0028639     0.5071145
  O        1.1133490     0.0895100    -0.5478160
  O       -0.6066630    -1.5809190    -1.1923580
  O        0.4670770    -1.7625730     1.2055430
  C       -1.7907810     0.9929110    -0.4324270
  C        1.9592910     0.8227470     0.3828140
  C       -2.8068250     1.8392790     0.2947570
  C        2.8879720     1.6796440    -0.4470910
  H       -1.0045510     1.5998440    -0.8949530
  H       -2.2583930     0.3707270    -1.2026260
  H        1.3234980     1.4321860     1.0341110
  H        2.5053500     0.1039360     0.9973890
  H       -3.3001310     2.5165380    -0.4095030
  H       -3.5654280     1.2070220     0.7630240
  H       -2.3198080     2.4333430     1.0748900
  H        3.5555180     2.2520740     0.2062470
  H        3.4947160     1.0534000    -1.1072300
  H        2.3164280     2.3771700    -1.0625470
  H       -0.2391740    -2.4808040    -1.2743640
units angstrom
no_reorient  #important for SAPT in psi4, default
symmetry c1  #important for SAPT in psi4, default
}

set PROPERTIES_ORIGIN ["COM"]
properties('MP2/aug-cc-pvtz', properties = ['dipole'])
--------------------------------------------------------------------------

    Molecular point group: c1
  Charge       = 0
  Multiplicity = 1
  Basis Set: AUG-CC-PVTZ
    Blend: AUG-CC-PVTZ
  Basis Set: (AUG-CC-PVTZ AUX)
    Blend: AUG-CC-PVTZ-JKFIT

    Orbital Energies [Eh]
    ---------------------

    Doubly Occupied:

       1A    -80.064215     2A    -20.585708     3A    -20.585661
       4A    -20.570580     5A    -20.486268     6A    -11.334406
       7A    -11.290669     8A    -11.251011     9A    -11.224851
      10A     -7.587562    11A     -5.487460    12A     -5.484759
      13A     -5.483625    14A     -1.475034    15A     -1.378021
      16A     -1.362655    17A     -1.269527    18A     -1.066527
      19A     -1.028437    20A     -0.890984    21A     -0.860335
      22A     -0.801539    23A     -0.734622    24A     -0.716641
      25A     -0.681852    26A     -0.657882    27A     -0.642278
      28A     -0.618863    29A     -0.605405    30A     -0.583923
      31A     -0.579652    32A     -0.558472    33A     -0.548893
      34A     -0.535987    35A     -0.533985    36A     -0.525513
      37A     -0.509613    38A     -0.490145    39A     -0.471409
      40A     -0.444977    41A     -0.439426

  @DF-RHF Final Energy:  -798.35752576876121

   => Energetics <=

    Nuclear Repulsion Energy =            634.6745505049672147
    One-Electron Energy =               -2361.1654107413869497
    Two-Electron Energy =                 928.1333344676586421
    Total Energy =                       -798.3575257687612066
  Basis Set: (AUG-CC-PVTZ AUX)
    Blend: AUG-CC-PVTZ-RI
    Molecular point group: c1

    Geometry (in Angstrom), charge = 0, multiplicity = 1:

       Center              X                  Y                   Z               Mass
    ------------   -----------------  -----------------  -----------------  -----------------
         P           -0.018600109553    -0.854391899251     0.131008663013    30.973761998420
         O           -1.054355909553     0.009939200749     0.512769163013    15.994914619570
         O            1.098006890447     0.102313100749    -0.542161336987    15.994914619570
         O           -0.622005109553    -1.568115899251    -1.186703336987    15.994914619570
         O            0.451734890447    -1.749769899251     1.211197663013    15.994914619570
         C           -1.806123109553     1.005714100749    -0.426772336987    12.000000000000
         C            1.943948890447     0.835550100749     0.388468663013    12.000000000000
         C           -2.822167109553     1.852082100749     0.300411663013    12.000000000000
         C            2.872629890447     1.692447100749    -0.441436336987    12.000000000000
         H           -1.019893109553     1.612647100749    -0.889298336987     1.007825032230
         H           -2.273735109553     0.383530100749    -1.196971336987     1.007825032230
         H            1.308155890447     1.444989100749     1.039765663013     1.007825032230
         H            2.490007890447     0.116739100749     1.003043663013     1.007825032230
         H           -3.315473109553     2.529341100749    -0.403848336987     1.007825032230
         H           -3.580770109553     1.219825100749     0.768678663013     1.007825032230
         H           -2.335150109553     2.446146100749     1.080544663013     1.007825032230
         H            3.540175890447     2.264877100749     0.211901663013     1.007825032230
         H            3.479373890447     1.066203100749    -1.101575336987     1.007825032230
         H            2.301085890447     2.389973100749    -1.056892336987     1.007825032230
         H           -0.254516109553    -2.468000899251    -1.268709336987     1.007825032230

  Basis Set: AUG-CC-PVTZ
    Blend: AUG-CC-PVTZ
  Basis Set: (AUG-CC-PVTZ AUX)
    Blend: AUG-CC-PVTZ-JKFIT
	 Reference Energy          =    -798.3575257687612066 [Eh]
	 Singles Energy            =      -0.0000000000000000 [Eh]
	 Same-Spin Energy          =      -0.4872998151407857 [Eh]
	 Opposite-Spin Energy      =      -1.5322362126411826 [Eh]
	 Correlation Energy        =      -2.0195360277819683 [Eh]
	 Total Energy              =    -800.3770617965432166 [Eh]

	 ================> DF-SCS-MP2 Energies <==================
	-----------------------------------------------------------
	 SCS Same-Spin Scale       =       0.3333333333333333 [-]
	 SCS Opposite-Spin Scale   =       1.2000000000000000 [-]
	 SCS Same-Spin Energy      =      -0.1624332717135952 [Eh]
	 SCS Opposite-Spin Energy  =      -1.8386834551694191 [Eh]
	 SCS Correlation Energy    =      -2.0011167268830143 [Eh]
	 SCS Total Energy          =    -800.3586424956441761 [Eh]
	-----------------------------------------------------------

  Dipole Moment: [D]
     X:    -1.4846      Y:     3.7738      Z:    -2.2006     Total:     4.6140

*** Psi4 exiting successfully. Buy a developer a beer!
