                               Psi4 1.4a3.dev225

  ==> Input File <==

--------------------------------------------------------------------------
#psi4
#
memory 32 gb

molecule  {
0 1
  P       -0.0193980    -0.9573280    -0.1096150
  O        1.2162340    -0.0269160    -0.5415020
  O       -1.1156210     0.0613730     0.5053800
  O        0.5163150    -1.6599550     1.2462920
  O       -0.4960840    -1.8598830    -1.1802340
  C        1.8380650     0.8393470     0.4463000
  C       -1.9139900     0.7949960    -0.4653280
  C        2.8342980     1.7043970    -0.2898420
  C       -2.8451070     1.6924310     0.3153960
  H        1.0624120     1.4376840     0.9337170
  H        2.3223620     0.2121780     1.1993520
  H       -1.2139230     1.4010306    -1.1397318
  H       -2.4582310     0.0769500    -1.0841060
  H        3.3419030     2.3695990     0.4147870
  H        3.5818500     1.0824000    -0.7858930
  H        2.3288000     2.3113610    -1.0437700
  H       -3.4753290     2.2644580    -0.3716610
  H       -3.4879190     1.0956960     0.9656320
  H       -2.2756200     2.3909680     0.9321420
  H        0.1488640    -2.5599310     1.3156750
units angstrom
no_reorient  #important for SAPT in psi4, default
symmetry c1  #important for SAPT in psi4, default
}

set PROPERTIES_ORIGIN ["COM"]
properties('MP2/aug-cc-pvtz', properties = ['dipole'])
--------------------------------------------------------------------------

    Molecular point group: c1
  Charge       = 0
  Multiplicity = 1
  Basis Set: AUG-CC-PVTZ
    Blend: AUG-CC-PVTZ
  Basis Set: (AUG-CC-PVTZ AUX)
    Blend: AUG-CC-PVTZ-JKFIT

    Orbital Energies [Eh]
    ---------------------

    Doubly Occupied:

       1A    -80.105243     2A    -20.605130     3A    -20.591227
       4A    -20.591022     5A    -20.511615     6A    -11.304870
       7A    -11.300662     8A    -11.230282     9A    -11.229584
      10A     -7.620685    11A     -5.519200    12A     -5.518701
      13A     -5.517710    14A     -1.446173    15A     -1.379225
      16A     -1.376786    17A     -1.292039    18A     -1.040938
      19A     -1.032789    20A     -0.872271    21A     -0.863025
      22A     -0.810603    23A     -0.729189    24A     -0.715227
      25A     -0.681295    26A     -0.656119    27A     -0.650377
      28A     -0.618458    29A     -0.605376    30A     -0.576647
      31A     -0.565931    32A     -0.563797    33A     -0.544540
      34A     -0.539199    35A     -0.534975    36A     -0.517715
      37A     -0.503627    38A     -0.479901    39A     -0.476544
      40A     -0.465714    41A     -0.460727

  @DF-RHF Final Energy:  -798.38652291183212

   => Energetics <=

    Nuclear Repulsion Energy =            627.3884589400312279
    One-Electron Energy =               -2346.2596888160205708
    Two-Electron Energy =                 920.4847069641571125
    Total Energy =                       -798.3865229118321167
  Basis Set: (AUG-CC-PVTZ AUX)
    Blend: AUG-CC-PVTZ-RI
    Molecular point group: c1

    Geometry (in Angstrom), charge = 0, multiplicity = 1:

       Center              X                  Y                   Z               Mass
    ------------   -----------------  -----------------  -----------------  -----------------
         P           -0.020472040262    -0.873911533662    -0.099932713092    30.973761998420
         O            1.215159959738     0.056500466338    -0.531819713092    15.994914619570
         O           -1.116695040262     0.144789466338     0.515062286908    15.994914619570
         O            0.515240959738    -1.576538533662     1.255974286908    15.994914619570
         O           -0.497158040262    -1.776466533662    -1.170551713092    15.994914619570
         C            1.836990959738     0.922763466338     0.455982286908    12.000000000000
         C           -1.915064040262     0.878412466338    -0.455645713092    12.000000000000
         C            2.833223959738     1.787813466338    -0.280159713092    12.000000000000
         C           -2.846181040262     1.775847466338     0.325078286908    12.000000000000
         H            1.061337959738     1.521100466338     0.943399286908     1.007825032230
         H            2.321287959738     0.295594466338     1.209034286908     1.007825032230
         H           -1.214997040262     1.484447066338    -1.130049513092     1.007825032230
         H           -2.459305040262     0.160366466338    -1.074423713092     1.007825032230
         H            3.340828959738     2.453015466338     0.424469286908     1.007825032230
         H            3.580775959738     1.165816466338    -0.776210713092     1.007825032230
         H            2.327725959738     2.394777466338    -1.034087713092     1.007825032230
         H           -3.476403040262     2.347874466338    -0.361978713092     1.007825032230
         H           -3.488993040262     1.179112466338     0.975314286908     1.007825032230
         H           -2.276694040262     2.474384466338     0.941824286908     1.007825032230
         H            0.147789959738    -2.476514533662     1.325357286908     1.007825032230

  Basis Set: AUG-CC-PVTZ
    Blend: AUG-CC-PVTZ
  Basis Set: (AUG-CC-PVTZ AUX)
    Blend: AUG-CC-PVTZ-JKFIT
	 Reference Energy          =    -798.3865229118321167 [Eh]
	 Singles Energy            =      -0.0000000000000000 [Eh]
	 Same-Spin Energy          =      -0.4897537144604096 [Eh]
	 Opposite-Spin Energy      =      -1.5383643243943983 [Eh]
	 Correlation Energy        =      -2.0281180388548079 [Eh]
	 Total Energy              =    -800.4146409506869304 [Eh]

	 ================> DF-SCS-MP2 Energies <==================
	-----------------------------------------------------------
	 SCS Same-Spin Scale       =       0.3333333333333333 [-]
	 SCS Opposite-Spin Scale   =       1.2000000000000000 [-]
	 SCS Same-Spin Energy      =      -0.1632512381534699 [Eh]
	 SCS Opposite-Spin Energy  =      -1.8460371892732779 [Eh]
	 SCS Correlation Energy    =      -2.0092884274267475 [Eh]
	 SCS Total Energy          =    -800.3958113392588984 [Eh]
	-----------------------------------------------------------

  Dipole Moment: [D]
     X:     0.1318      Y:     2.6402      Z:     2.1239     Total:     3.3911

*** Psi4 exiting successfully. Buy a developer a beer!
