                               Psi4 1.4a3.dev225

  ==> Input File <==

--------------------------------------------------------------------------
#psi4
#
memory 32 gb

molecule  {
0 1
  P       -0.0193980    -0.9573280    -0.1096150
  O        1.1777628    -0.0558842    -0.5280553
  O       -1.1156210     0.0613730     0.5053800
  O        0.5163150    -1.6599550     1.2462920
  O       -0.4960840    -1.8598830    -1.1802340
  C        1.8380650     0.8393470     0.4463000
  C       -1.9139900     0.7949960    -0.4653280
  C        2.8342980     1.7043970    -0.2898420
  C       -2.8451070     1.6924310     0.3153960
  H        1.0624120     1.4376840     0.9337170
  H        2.3223620     0.2121780     1.1993520
  H       -1.2444800     1.3745780    -1.1102950
  H       -2.4582310     0.0769500    -1.0841060
  H        3.3419030     2.3695990     0.4147870
  H        3.5818500     1.0824000    -0.7858930
  H        2.3288000     2.3113610    -1.0437700
  H       -3.4753290     2.2644580    -0.3716610
  H       -3.4879190     1.0956960     0.9656320
  H       -2.2756200     2.3909680     0.9321420
  H        0.1488640    -2.5599310     1.3156750
units angstrom
no_reorient  #important for SAPT in psi4, default
symmetry c1  #important for SAPT in psi4, default
}

set PROPERTIES_ORIGIN ["COM"]
properties('MP2/aug-cc-pvtz', properties = ['dipole'])
--------------------------------------------------------------------------

    Molecular point group: c1
  Charge       = 0
  Multiplicity = 1
  Basis Set: AUG-CC-PVTZ
    Blend: AUG-CC-PVTZ
  Basis Set: (AUG-CC-PVTZ AUX)
    Blend: AUG-CC-PVTZ-JKFIT

    Orbital Energies [Eh]
    ---------------------

    Doubly Occupied:

       1A    -80.096977     2A    -20.600615     3A    -20.590868
       4A    -20.585821     5A    -20.506039     6A    -11.308253
       7A    -11.296932     8A    -11.234546     9A    -11.228451
      10A     -7.613578    11A     -5.512177    12A     -5.511623
      13A     -5.510551    14A     -1.449135    15A     -1.378684
      16A     -1.374359    17A     -1.287095    18A     -1.046503
      19A     -1.033914    20A     -0.875512    21A     -0.865720
      22A     -0.809927    23A     -0.729400    24A     -0.715666
      25A     -0.682756    26A     -0.656778    27A     -0.649252
      28A     -0.615869    29A     -0.607970    30A     -0.576619
      31A     -0.567436    32A     -0.562860    33A     -0.546052
      34A     -0.539131    35A     -0.533628    36A     -0.521517
      37A     -0.503993    38A     -0.485081    39A     -0.478472
      40A     -0.461509    41A     -0.456415

  @DF-RHF Final Energy:  -798.38985153928093

   => Energetics <=

    Nuclear Repulsion Energy =            629.0779247784822701
    One-Electron Energy =               -2349.7201799481235867
    Two-Electron Energy =                 922.2524036303605044
    Total Energy =                       -798.3898515392809259
  Basis Set: (AUG-CC-PVTZ AUX)
    Blend: AUG-CC-PVTZ-RI
    Molecular point group: c1

    Geometry (in Angstrom), charge = 0, multiplicity = 1:

       Center              X                  Y                   Z               Mass
    ------------   -----------------  -----------------  -----------------  -----------------
         P           -0.016277403910    -0.870730508721    -0.101521565100    30.973761998420
         O            1.180883396090     0.030713291279    -0.519961865100    15.994914619570
         O           -1.112500403910     0.147970491279     0.513473434900    15.994914619570
         O            0.519435596090    -1.573357508721     1.254385434900    15.994914619570
         O           -0.492963403910    -1.773285508721    -1.172140565100    15.994914619570
         C            1.841185596090     0.925944491279     0.454393434900    12.000000000000
         C           -1.910869403910     0.881593491279    -0.457234565100    12.000000000000
         C            2.837418596090     1.790994491279    -0.281748565100    12.000000000000
         C           -2.841986403910     1.779028491279     0.323489434900    12.000000000000
         H            1.065532596090     1.524281491279     0.941810434900     1.007825032230
         H            2.325482596090     0.298775491279     1.207445434900     1.007825032230
         H           -1.241359403910     1.461175491279    -1.102201565100     1.007825032230
         H           -2.455110403910     0.163547491279    -1.076012565100     1.007825032230
         H            3.345023596090     2.456196491279     0.422880434900     1.007825032230
         H            3.584970596090     1.168997491279    -0.777799565100     1.007825032230
         H            2.331920596090     2.397958491279    -1.035676565100     1.007825032230
         H           -3.472208403910     2.351055491279    -0.363567565100     1.007825032230
         H           -3.484798403910     1.182293491279     0.973725434900     1.007825032230
         H           -2.272499403910     2.477565491279     0.940235434900     1.007825032230
         H            0.151984596090    -2.473333508721     1.323768434900     1.007825032230

  Basis Set: AUG-CC-PVTZ
    Blend: AUG-CC-PVTZ
  Basis Set: (AUG-CC-PVTZ AUX)
    Blend: AUG-CC-PVTZ-JKFIT
	 Reference Energy          =    -798.3898515392809259 [Eh]
	 Singles Energy            =      -0.0000000000000000 [Eh]
	 Same-Spin Energy          =      -0.4890424442479824 [Eh]
	 Opposite-Spin Energy      =      -1.5364553599524937 [Eh]
	 Correlation Energy        =      -2.0254978042004761 [Eh]
	 Total Energy              =    -800.4153493434813527 [Eh]

	 ================> DF-SCS-MP2 Energies <==================
	-----------------------------------------------------------
	 SCS Same-Spin Scale       =       0.3333333333333333 [-]
	 SCS Opposite-Spin Scale   =       1.2000000000000000 [-]
	 SCS Same-Spin Energy      =      -0.1630141480826608 [Eh]
	 SCS Opposite-Spin Energy  =      -1.8437464319429924 [Eh]
	 SCS Correlation Energy    =      -2.0067605800256532 [Eh]
	 SCS Total Energy          =    -800.3966121193066101 [Eh]
	-----------------------------------------------------------

  Dipole Moment: [D]
     X:     0.4838      Y:     2.9053      Z:     2.1004     Total:     3.6175

*** Psi4 exiting successfully. Buy a developer a beer!
