                               Psi4 1.4a3.dev225

  ==> Input File <==

--------------------------------------------------------------------------
#psi4
#
memory 32 gb

molecule  {
0 1
  P       -0.0193980    -0.9573280    -0.1096150
  O        1.2162340    -0.0269160    -0.5415020
  O       -1.1156210     0.0613730     0.5053800
  O        0.4997641    -1.6382473     1.2044012
  O       -0.4960840    -1.8598830    -1.1802340
  C        1.8380650     0.8393470     0.4463000
  C       -1.9139900     0.7949960    -0.4653280
  C        2.8342980     1.7043970    -0.2898420
  C       -2.8451070     1.6924310     0.3153960
  H        1.0624120     1.4376840     0.9337170
  H        2.3223620     0.2121780     1.1993520
  H       -1.2444800     1.3745780    -1.1102950
  H       -2.4582310     0.0769500    -1.0841060
  H        3.3419030     2.3695990     0.4147870
  H        3.5818500     1.0824000    -0.7858930
  H        2.3288000     2.3113610    -1.0437700
  H       -3.4753290     2.2644580    -0.3716610
  H       -3.4879190     1.0956960     0.9656320
  H       -2.2756200     2.3909680     0.9321420
  H        0.1488640    -2.5599310     1.3156750
units angstrom
no_reorient  #important for SAPT in psi4, default
symmetry c1  #important for SAPT in psi4, default
}

set PROPERTIES_ORIGIN ["COM"]
properties('MP2/aug-cc-pvtz', properties = ['dipole'])
--------------------------------------------------------------------------

    Molecular point group: c1
  Charge       = 0
  Multiplicity = 1
  Basis Set: AUG-CC-PVTZ
    Blend: AUG-CC-PVTZ
  Basis Set: (AUG-CC-PVTZ AUX)
    Blend: AUG-CC-PVTZ-JKFIT

    Orbital Energies [Eh]
    ---------------------

    Doubly Occupied:

       1A    -80.098715     2A    -20.608099     3A    -20.587860
       4A    -20.587352     5A    -20.507064     6A    -11.299601
       7A    -11.296917     8A    -11.228783     9A    -11.228514
      10A     -7.615295    11A     -5.513999    12A     -5.513214
      13A     -5.512269    14A     -1.452424    15A     -1.383160
      16A     -1.374147    17A     -1.288343    18A     -1.040123
      19A     -1.032357    20A     -0.873182    21A     -0.862982
      22A     -0.817129    23A     -0.731885    24A     -0.715731
      25A     -0.681908    26A     -0.660184    27A     -0.652929
      28A     -0.616989    29A     -0.603816    30A     -0.580265
      31A     -0.565141    32A     -0.562633    33A     -0.542895
      34A     -0.538823    35A     -0.534791    36A     -0.516942
      37A     -0.501614    38A     -0.479175    39A     -0.476781
      40A     -0.462863    41A     -0.457624

  @DF-RHF Final Energy:  -798.38909693527773

   => Energetics <=

    Nuclear Repulsion Energy =            629.6872442404323920
    One-Electron Energy =               -2350.9436520181225205
    Two-Electron Energy =                 922.8673108424123939
    Total Energy =                       -798.3890969352777347
  Basis Set: (AUG-CC-PVTZ AUX)
    Blend: AUG-CC-PVTZ-RI
    Molecular point group: c1

    Geometry (in Angstrom), charge = 0, multiplicity = 1:

       Center              X                  Y                   Z               Mass
    ------------   -----------------  -----------------  -----------------  -----------------
         P           -0.018553530075    -0.875992514347    -0.095775515472    30.973761998420
         O            1.217078469925     0.054419485653    -0.527662515472    15.994914619570
         O           -1.114776530075     0.142708485653     0.519219484528    15.994914619570
         O            0.500608569925    -1.556911814347     1.218240684528    15.994914619570
         O           -0.495239530075    -1.778547514347    -1.166394515472    15.994914619570
         C            1.838909469925     0.920682485653     0.460139484528    12.000000000000
         C           -1.913145530075     0.876331485653    -0.451488515472    12.000000000000
         C            2.835142469925     1.785732485653    -0.276002515472    12.000000000000
         C           -2.844262530075     1.773766485653     0.329235484528    12.000000000000
         H            1.063256469925     1.519019485653     0.947556484528     1.007825032230
         H            2.323206469925     0.293513485653     1.213191484528     1.007825032230
         H           -1.243635530075     1.455913485653    -1.096455515472     1.007825032230
         H           -2.457386530075     0.158285485653    -1.070266515472     1.007825032230
         H            3.342747469925     2.450934485653     0.428626484528     1.007825032230
         H            3.582694469925     1.163735485653    -0.772053515472     1.007825032230
         H            2.329644469925     2.392696485653    -1.029930515472     1.007825032230
         H           -3.474484530075     2.345793485653    -0.357821515472     1.007825032230
         H           -3.487074530075     1.177031485653     0.979471484528     1.007825032230
         H           -2.274775530075     2.472303485653     0.945981484528     1.007825032230
         H            0.149708469925    -2.478595514347     1.329514484528     1.007825032230

  Basis Set: AUG-CC-PVTZ
    Blend: AUG-CC-PVTZ
  Basis Set: (AUG-CC-PVTZ AUX)
    Blend: AUG-CC-PVTZ-JKFIT
	 Reference Energy          =    -798.3890969352777347 [Eh]
	 Singles Energy            =      -0.0000000000000000 [Eh]
	 Same-Spin Energy          =      -0.4894557244141668 [Eh]
	 Opposite-Spin Energy      =      -1.5368208041158944 [Eh]
	 Correlation Energy        =      -2.0262765285300612 [Eh]
	 Total Energy              =    -800.4153734638077822 [Eh]

	 ================> DF-SCS-MP2 Energies <==================
	-----------------------------------------------------------
	 SCS Same-Spin Scale       =       0.3333333333333333 [-]
	 SCS Opposite-Spin Scale   =       1.2000000000000000 [-]
	 SCS Same-Spin Energy      =      -0.1631519081380556 [Eh]
	 SCS Opposite-Spin Energy  =      -1.8441849649390731 [Eh]
	 SCS Correlation Energy    =      -2.0073368730771288 [Eh]
	 SCS Total Energy          =    -800.3964338083549137 [Eh]
	-----------------------------------------------------------

  Dipole Moment: [D]
     X:     0.2302      Y:     2.4570      Z:     2.3488     Total:     3.4068

*** Psi4 exiting successfully. Buy a developer a beer!
