                               Psi4 1.4a3.dev225

  ==> Input File <==

--------------------------------------------------------------------------
#psi4
#
memory 32 gb

molecule  {
0 1
  P       -0.0193980    -0.9573280    -0.1096150
  O        1.2162340    -0.0269160    -0.5415020
  O       -1.1156210     0.0613730     0.5053800
  O        0.5163150    -1.6599550     1.2462920
  O       -0.4960840    -1.8598830    -1.1802340
  C        1.8380650     0.8393470     0.4463000
  C       -1.9139900     0.7949960    -0.4653280
  C        2.8342980     1.7043970    -0.2898420
  C       -2.8451070     1.6924310     0.3153960
  H        1.0624120     1.4376840     0.9337170
  H        2.3223620     0.2121780     1.1993520
  H       -1.2444800     1.3745780    -1.1102950
  H       -2.4582310     0.0769500    -1.0841060
  H        3.3419030     2.3695990     0.4147870
  H        3.5818500     1.0824000    -0.7858930
  H        2.3288000     2.3113610    -1.0437700
  H       -3.4753290     2.2644580    -0.3716610
  H       -3.4879190     1.0956960     0.9656320
  H       -2.2756200     2.3909680     0.9321420
  H        0.1677159    -2.5137581     1.3121153
units angstrom
no_reorient  #important for SAPT in psi4, default
symmetry c1  #important for SAPT in psi4, default
}

set PROPERTIES_ORIGIN ["COM"]
properties('MP2/aug-cc-pvtz', properties = ['dipole'])
--------------------------------------------------------------------------

    Molecular point group: c1
  Charge       = 0
  Multiplicity = 1
  Basis Set: AUG-CC-PVTZ
    Blend: AUG-CC-PVTZ
  Basis Set: (AUG-CC-PVTZ AUX)
    Blend: AUG-CC-PVTZ-JKFIT

    Orbital Energies [Eh]
    ---------------------

    Doubly Occupied:

       1A    -80.106024     2A    -20.601526     3A    -20.591551
       4A    -20.590998     5A    -20.512382     6A    -11.301092
       7A    -11.299328     8A    -11.230049     9A    -11.229935
      10A     -7.621469    11A     -5.520006    12A     -5.519473
      13A     -5.518487    14A     -1.450534    15A     -1.387993
      16A     -1.377114    17A     -1.293051    18A     -1.042060
      19A     -1.034079    20A     -0.875432    21A     -0.864742
      22A     -0.819128    23A     -0.735185    24A     -0.716248
      25A     -0.684465    26A     -0.658031    27A     -0.654007
      28A     -0.619382    29A     -0.606637    30A     -0.577798
      31A     -0.566526    32A     -0.564214    33A     -0.545202
      34A     -0.539989    35A     -0.535976    36A     -0.519093
      37A     -0.504045    38A     -0.481201    39A     -0.479371
      40A     -0.466665    41A     -0.461439

  @DF-RHF Final Energy:  -798.38918631626825

   => Energetics <=

    Nuclear Repulsion Energy =            627.9756705372033139
    One-Electron Energy =               -2347.3258585144549215
    Two-Electron Energy =                 920.9610016609833565
    Total Energy =                       -798.3891863162682512
  Basis Set: (AUG-CC-PVTZ AUX)
    Blend: AUG-CC-PVTZ-RI
    Molecular point group: c1

    Geometry (in Angstrom), charge = 0, multiplicity = 1:

       Center              X                  Y                   Z               Mass
    ------------   -----------------  -----------------  -----------------  -----------------
         P           -0.020395458001    -0.874040556494    -0.100102017653    30.973761998420
         O            1.215236541999     0.056371443506    -0.531989017653    15.994914619570
         O           -1.116618458001     0.144660443506     0.514892982347    15.994914619570
         O            0.515317541999    -1.576667556494     1.255804982347    15.994914619570
         O           -0.497081458001    -1.776595556494    -1.170721017653    15.994914619570
         C            1.837067541999     0.922634443506     0.455812982347    12.000000000000
         C           -1.914987458001     0.878283443506    -0.455815017653    12.000000000000
         C            2.833300541999     1.787684443506    -0.280329017653    12.000000000000
         C           -2.846104458001     1.775718443506     0.324908982347    12.000000000000
         H            1.061414541999     1.520971443506     0.943229982347     1.007825032230
         H            2.321364541999     0.295465443506     1.208864982347     1.007825032230
         H           -1.245477458001     1.457865443506    -1.100782017653     1.007825032230
         H           -2.459228458001     0.160237443506    -1.074593017653     1.007825032230
         H            3.340905541999     2.452886443506     0.424299982347     1.007825032230
         H            3.580852541999     1.165687443506    -0.776380017653     1.007825032230
         H            2.327802541999     2.394648443506    -1.034257017653     1.007825032230
         H           -3.476326458001     2.347745443506    -0.362148017653     1.007825032230
         H           -3.488916458001     1.178983443506     0.975144982347     1.007825032230
         H           -2.276617458001     2.474255443506     0.941654982347     1.007825032230
         H            0.166718441999    -2.430470656494     1.321628282347     1.007825032230

  Basis Set: AUG-CC-PVTZ
    Blend: AUG-CC-PVTZ
  Basis Set: (AUG-CC-PVTZ AUX)
    Blend: AUG-CC-PVTZ-JKFIT
	 Reference Energy          =    -798.3891863162682512 [Eh]
	 Singles Energy            =      -0.0000000000000000 [Eh]
	 Same-Spin Energy          =      -0.4891166513091119 [Eh]
	 Opposite-Spin Energy      =      -1.5366694695745942 [Eh]
	 Correlation Energy        =      -2.0257861208837062 [Eh]
	 Total Energy              =    -800.4149724371519596 [Eh]

	 ================> DF-SCS-MP2 Energies <==================
	-----------------------------------------------------------
	 SCS Same-Spin Scale       =       0.3333333333333333 [-]
	 SCS Opposite-Spin Scale   =       1.2000000000000000 [-]
	 SCS Same-Spin Energy      =      -0.1630388837697040 [Eh]
	 SCS Opposite-Spin Energy  =      -1.8440033634895130 [Eh]
	 SCS Correlation Energy    =      -2.0070422472592169 [Eh]
	 SCS Total Energy          =    -800.3962285635274156 [Eh]
	-----------------------------------------------------------

  Dipole Moment: [D]
     X:     0.1534      Y:     2.7366      Z:     2.0711     Total:     3.4354

*** Psi4 exiting successfully. Buy a developer a beer!
