                               Psi4 1.3.2 release

  ==> Input File <==

--------------------------------------------------------------------------
#psi4
#
memory 32 gb

molecule  {
0 1
  P        0.0012006    -0.8632841     0.1381598
  O       -1.1867680     0.1204360     0.5615740
  O        1.1133490     0.0895100    -0.5478160
  O       -0.6066630    -1.5809190    -1.1923580
  O        0.4670770    -1.7625730     1.2055430
  C       -1.7907810     0.9929110    -0.4324270
  C        1.9530741     0.8174554     0.3925477
  C       -2.8068250     1.8392790     0.2947570
  C        2.8879720     1.6796440    -0.4470910
  H       -1.0045510     1.5998440    -0.8949530
  H       -2.2583930     0.3707270    -1.2026260
  H        1.3234980     1.4321860     1.0341110
  H        2.5053500     0.1039360     0.9973890
  H       -3.3001310     2.5165380    -0.4095030
  H       -3.5654280     1.2070220     0.7630240
  H       -2.3198080     2.4333430     1.0748900
  H        3.5555180     2.2520740     0.2062470
  H        3.4947160     1.0534000    -1.1072300
  H        2.3164280     2.3771700    -1.0625470
  H       -0.2391740    -2.4808040    -1.2743640
units angstrom
no_reorient  #important for SAPT in psi4, default
symmetry c1  #important for SAPT in psi4, default
}

set PROPERTIES_ORIGIN ["COM"]
properties('MP2/aug-cc-pvtz', properties = ['dipole'])
--------------------------------------------------------------------------

    Molecular point group: c1
  Charge       = 0
  Multiplicity = 1
  Basis Set: AUG-CC-PVTZ
    Blend: AUG-CC-PVTZ
  Basis Set: (AUG-CC-PVTZ AUX)
    Blend: AUG-CC-PVTZ-JKFIT

    Orbital Energies [Eh]
    ---------------------

    Doubly Occupied:

       1A    -80.103633     2A    -20.600828     3A    -20.591655
       4A    -20.591418     5A    -20.512802     6A    -11.301673
       7A    -11.299189     8A    -11.231043     9A    -11.230177
      10A     -7.619440    11A     -5.517920    12A     -5.517446
      13A     -5.516489    14A     -1.445596    15A     -1.378133
      16A     -1.374929    17A     -1.296346    18A     -1.041287
      19A     -1.032308    20A     -0.873084    21A     -0.864803
      22A     -0.811503    23A     -0.729003    24A     -0.715259
      25A     -0.682672    26A     -0.657537    27A     -0.649583
      28A     -0.618849    29A     -0.605733    30A     -0.574075
      31A     -0.565640    32A     -0.562343    33A     -0.545661
      34A     -0.539175    35A     -0.533040    36A     -0.519481
      37A     -0.503540    38A     -0.483183    39A     -0.480087
      40A     -0.468151    41A     -0.463457

  @DF-RHF Final Energy:  -798.38834299611290

   => Energetics <=

    Nuclear Repulsion Energy =            628.1463968032620642
    One-Electron Energy =               -2347.7731370779542885
    Two-Electron Energy =                 921.2383972785792139
    Total Energy =                       -798.3883429961128968
  Basis Set: (AUG-CC-PVTZ AUX)
    Blend: AUG-CC-PVTZ-RI
    Molecular point group: c1

    Geometry (in Angstrom), charge = 0, multiplicity = 1:

       Center              X                  Y                   Z               Mass
    ------------   -----------------  -----------------  -----------------  -----------------
         P            0.000788550988    -0.863658187659     0.134826357420    30.973761998420
         O           -1.187180049012     0.120061912341     0.558240557420    15.994914619570
         O            1.112936950988     0.089135912341    -0.551149442580    15.994914619570
         O           -0.607075049012    -1.581293087659    -1.195691442580    15.994914619570
         O            0.466664950988    -1.762947087659     1.202209557420    15.994914619570
         C           -1.791193049012     0.992536912341    -0.435760442580    12.000000000000
         C            1.952662050988     0.817081312341     0.389214257420    12.000000000000
         C           -2.807237049012     1.838904912341     0.291423557420    12.000000000000
         C            2.887559950988     1.679269912341    -0.450424442580    12.000000000000
         H           -1.004963049012     1.599469912341    -0.898286442580     1.007825032230
         H           -2.258805049012     0.370352912341    -1.205959442580     1.007825032230
         H            1.323085950988     1.431811912341     1.030777557420     1.007825032230
         H            2.504937950988     0.103561912341     0.994055557420     1.007825032230
         H           -3.300543049012     2.516163912341    -0.412836442580     1.007825032230
         H           -3.565840049012     1.206647912341     0.759690557420     1.007825032230
         H           -2.320220049012     2.432968912341     1.071556557420     1.007825032230
         H            3.555105950988     2.251699912341     0.202913557420     1.007825032230
         H            3.494303950988     1.053025912341    -1.110563442580     1.007825032230
         H            2.316015950988     2.376795912341    -1.065880442580     1.007825032230
         H           -0.239586049012    -2.481178087659    -1.277697442580     1.007825032230

  Basis Set: AUG-CC-PVTZ
    Blend: AUG-CC-PVTZ
  Basis Set: (AUG-CC-PVTZ AUX)
    Blend: AUG-CC-PVTZ-JKFIT
	 Reference Energy          =    -798.3883429961128968 [Eh]
	 Singles Energy            =      -0.0000000000000000 [Eh]
	 Same-Spin Energy          =      -0.4895951854982880 [Eh]
	 Opposite-Spin Energy      =      -1.5379399949989903 [Eh]
	 Correlation Energy        =      -2.0275351804972783 [Eh]
	 Total Energy              =    -800.4158781766101356 [Eh]

	 ================> DF-SCS-MP2 Energies <==================
	-----------------------------------------------------------
	 SCS Same-Spin Scale       =       0.3333333333333333 [-]
	 SCS Opposite-Spin Scale   =       1.2000000000000000 [-]
	 SCS Same-Spin Energy      =      -0.1631983951660960 [Eh]
	 SCS Opposite-Spin Energy  =      -1.8455279939987883 [Eh]
	 SCS Correlation Energy    =      -2.0087263891648841 [Eh]
	 SCS Total Energy          =    -800.3970693852777458 [Eh]
	-----------------------------------------------------------

  Dipole Moment: [D]
     X:    -0.0342      Y:     2.6889      Z:    -2.0830     Total:     3.4016

*** Psi4 exiting successfully. Buy a developer a beer!
