                               Psi4 1.3.2 release

  ==> Input File <==

--------------------------------------------------------------------------
#psi4
#
memory 32 gb

molecule  {
0 1
  P       -0.0032580    -0.8671950     0.1253540
  O       -1.1867680     0.1204360     0.5615740
  O        1.0726262     0.1110907    -0.5264151
  O       -0.6066630    -1.5809190    -1.1923580
  O        0.4670770    -1.7625730     1.2055430
  C       -1.7907810     0.9929110    -0.4324270
  C        1.9592910     0.8227470     0.3828140
  C       -2.8068250     1.8392790     0.2947570
  C        2.8879720     1.6796440    -0.4470910
  H       -1.0045510     1.5998440    -0.8949530
  H       -2.2583930     0.3707270    -1.2026260
  H        1.2928390     1.4187298     1.0156509
  H        2.5053500     0.1039360     0.9973890
  H       -3.3001310     2.5165380    -0.4095030
  H       -3.5654280     1.2070220     0.7630240
  H       -2.3198080     2.4333430     1.0748900
  H        3.5555180     2.2520740     0.2062470
  H        3.4947160     1.0534000    -1.1072300
  H        2.3164280     2.3771700    -1.0625470
  H       -0.2391740    -2.4808040    -1.2743640
units angstrom
no_reorient  #important for SAPT in psi4, default
symmetry c1  #important for SAPT in psi4, default
}

set PROPERTIES_ORIGIN ["COM"]
properties('MP2/aug-cc-pvtz', properties = ['dipole'])
--------------------------------------------------------------------------

    Molecular point group: c1
  Charge       = 0
  Multiplicity = 1
  Basis Set: AUG-CC-PVTZ
    Blend: AUG-CC-PVTZ
  Basis Set: (AUG-CC-PVTZ AUX)
    Blend: AUG-CC-PVTZ-JKFIT

    Orbital Energies [Eh]
    ---------------------

    Doubly Occupied:

       1A    -80.101229     2A    -20.604026     3A    -20.588980
       4A    -20.587004     5A    -20.510217     6A    -11.301383
       7A    -11.299453     8A    -11.232501     9A    -11.228675
      10A     -7.617277    11A     -5.515767    12A     -5.515398
      13A     -5.514285    14A     -1.449093    15A     -1.381075
      16A     -1.375803    17A     -1.290583    18A     -1.042604
      19A     -1.033799    20A     -0.876203    21A     -0.863247
      22A     -0.810784    23A     -0.732060    24A     -0.715506
      25A     -0.682986    26A     -0.657252    27A     -0.651730
      28A     -0.621052    29A     -0.603421    30A     -0.576895
      31A     -0.565481    32A     -0.563316    33A     -0.544369
      34A     -0.540036    35A     -0.534950    36A     -0.519185
      37A     -0.503482    38A     -0.480807    39A     -0.476882
      40A     -0.464722    41A     -0.460533

  @DF-RHF Final Energy:  -798.38942280229026

   => Energetics <=

    Nuclear Repulsion Energy =            629.3027956337562046
    One-Electron Energy =               -2350.1163316992538057
    Two-Electron Energy =                 922.4241132632073459
    Total Energy =                       -798.3894228022902553
  Basis Set: (AUG-CC-PVTZ AUX)
    Blend: AUG-CC-PVTZ-RI
    Molecular point group: c1

    Geometry (in Angstrom), charge = 0, multiplicity = 1:

       Center              X                  Y                   Z               Mass
    ------------   -----------------  -----------------  -----------------  -----------------
         P            0.001171264106    -0.869347747551     0.123252366074    30.973761998420
         O           -1.182338735894     0.118283252449     0.559472366074    15.994914619570
         O            1.077055464106     0.108937952449    -0.528516733926    15.994914619570
         O           -0.602233735894    -1.583071747551    -1.194459633926    15.994914619570
         O            0.471506264106    -1.764725747551     1.203441366074    15.994914619570
         C           -1.786351735894     0.990758252449    -0.434528633926    12.000000000000
         C            1.963720264106     0.820594252449     0.380712366074    12.000000000000
         C           -2.802395735894     1.837126252449     0.292655366074    12.000000000000
         C            2.892401264106     1.677491252449    -0.449192633926    12.000000000000
         H           -1.000121735894     1.597691252449    -0.897054633926     1.007825032230
         H           -2.253963735894     0.368574252449    -1.204727633926     1.007825032230
         H            1.297268264106     1.416577052449     1.013549266074     1.007825032230
         H            2.509779264106     0.101783252449     0.995287366074     1.007825032230
         H           -3.295701735894     2.514385252449    -0.411604633926     1.007825032230
         H           -3.560998735894     1.204869252449     0.760922366074     1.007825032230
         H           -2.315378735894     2.431190252449     1.072788366074     1.007825032230
         H            3.559947264106     2.249921252449     0.204145366074     1.007825032230
         H            3.499145264106     1.051247252449    -1.109331633926     1.007825032230
         H            2.320857264106     2.375017252449    -1.064648633926     1.007825032230
         H           -0.234744735894    -2.482956747551    -1.276465633926     1.007825032230

  Basis Set: AUG-CC-PVTZ
    Blend: AUG-CC-PVTZ
  Basis Set: (AUG-CC-PVTZ AUX)
    Blend: AUG-CC-PVTZ-JKFIT
	 Reference Energy          =    -798.3894228022902553 [Eh]
	 Singles Energy            =      -0.0000000000000000 [Eh]
	 Same-Spin Energy          =      -0.4894155438840557 [Eh]
	 Opposite-Spin Energy      =      -1.5370797045464215 [Eh]
	 Correlation Energy        =      -2.0264952484304772 [Eh]
	 Total Energy              =    -800.4159180507207338 [Eh]

	 ================> DF-SCS-MP2 Energies <==================
	-----------------------------------------------------------
	 SCS Same-Spin Scale       =       0.3333333333333333 [-]
	 SCS Opposite-Spin Scale   =       1.2000000000000000 [-]
	 SCS Same-Spin Energy      =      -0.1631385146280185 [Eh]
	 SCS Opposite-Spin Energy  =      -1.8444956454557058 [Eh]
	 SCS Correlation Energy    =      -2.0076341600837244 [Eh]
	 SCS Total Energy          =    -800.3970569623739948 [Eh]
	-----------------------------------------------------------

  Dipole Moment: [D]
     X:     0.1411      Y:     2.6456      Z:    -2.2695     Total:     3.4885

*** Psi4 exiting successfully. Buy a developer a beer!
