                               Psi4 1.3.2 release

  ==> Input File <==

--------------------------------------------------------------------------
#psi4
#
memory 32 gb

molecule  {
0 1
  P       -0.0032580    -0.8671950     0.1253540
  O       -1.1867680     0.1204360     0.5615740
  O        1.1374945     0.1122635    -0.5863043
  O       -0.6066630    -1.5809190    -1.1923580
  O        0.4670770    -1.7625730     1.2055430
  C       -1.7907810     0.9929110    -0.4324270
  C        1.9592910     0.8227470     0.3828140
  C       -2.8068250     1.8392790     0.2947570
  C        2.8652332     1.6604555    -0.4906712
  H       -1.0045510     1.5998440    -0.8949530
  H       -2.2583930     0.3707270    -1.2026260
  H        1.3234980     1.4321860     1.0341110
  H        2.5053500     0.1039360     0.9973890
  H       -3.3001310     2.5165380    -0.4095030
  H       -3.5654280     1.2070220     0.7630240
  H       -2.3198080     2.4333430     1.0748900
  H        3.5555180     2.2520740     0.2062470
  H        3.4947160     1.0534000    -1.1072300
  H        2.3164280     2.3771700    -1.0625470
  H       -0.2391740    -2.4808040    -1.2743640
units angstrom
no_reorient  #important for SAPT in psi4, default
symmetry c1  #important for SAPT in psi4, default
}

set PROPERTIES_ORIGIN ["COM"]
properties('MP2/aug-cc-pvtz', properties = ['dipole'])
--------------------------------------------------------------------------

    Molecular point group: c1
  Charge       = 0
  Multiplicity = 1
  Basis Set: AUG-CC-PVTZ
    Blend: AUG-CC-PVTZ
  Basis Set: (AUG-CC-PVTZ AUX)
    Blend: AUG-CC-PVTZ-JKFIT

    Orbital Energies [Eh]
    ---------------------

    Doubly Occupied:

       1A    -80.108764     2A    -20.606456     3A    -20.594615
       4A    -20.589465     5A    -20.515859     6A    -11.302521
       7A    -11.295974     8A    -11.230886     9A    -11.227730
      10A     -7.623771    11A     -5.522341    12A     -5.521698
      13A     -5.520702    14A     -1.444153    15A     -1.381131
      16A     -1.370829    17A     -1.295156    18A     -1.041191
      19A     -1.029718    20A     -0.870269    21A     -0.862421
      22A     -0.816069    23A     -0.727930    24A     -0.713781
      25A     -0.681734    26A     -0.657799    27A     -0.653628
      28A     -0.614638    29A     -0.607101    30A     -0.573270
      31A     -0.566419    32A     -0.564550    33A     -0.545778
      34A     -0.539723    35A     -0.525466    36A     -0.519346
      37A     -0.501955    38A     -0.481742    39A     -0.479290
      40A     -0.468662    41A     -0.462685

  @DF-RHF Final Energy:  -798.37974424475908

   => Energetics <=

    Nuclear Repulsion Energy =            626.8691807655364983
    One-Electron Energy =               -2345.1834187926633604
    Two-Electron Energy =                 919.9344937823678947
    Total Energy =                       -798.3797442447590811
  Basis Set: (AUG-CC-PVTZ AUX)
    Blend: AUG-CC-PVTZ-RI
    Molecular point group: c1

    Geometry (in Angstrom), charge = 0, multiplicity = 1:

       Center              X                  Y                   Z               Mass
    ------------   -----------------  -----------------  -----------------  -----------------
         P           -0.003993620545    -0.868062741599     0.132745259321    30.973761998420
         O           -1.187503620545     0.119568258401     0.568965259321    15.994914619570
         O            1.136758879455     0.111395758401    -0.578913040679    15.994914619570
         O           -0.607398620545    -1.581786741599    -1.184966740679    15.994914619570
         O            0.466341379455    -1.763440741599     1.212934259321    15.994914619570
         C           -1.791516620545     0.992043258401    -0.425035740679    12.000000000000
         C            1.958555379455     0.821879258401     0.390205259321    12.000000000000
         C           -2.807560620545     1.838411258401     0.302148259321    12.000000000000
         C            2.864497579455     1.659587758401    -0.483279940679    12.000000000000
         H           -1.005286620545     1.598976258401    -0.887561740679     1.007825032230
         H           -2.259128620545     0.369859258401    -1.195234740679     1.007825032230
         H            1.322762379455     1.431318258401     1.041502259321     1.007825032230
         H            2.504614379455     0.103068258401     1.004780259321     1.007825032230
         H           -3.300866620545     2.515670258401    -0.402111740679     1.007825032230
         H           -3.566163620545     1.206154258401     0.770415259321     1.007825032230
         H           -2.320543620545     2.432475258401     1.082281259321     1.007825032230
         H            3.554782379455     2.251206258401     0.213638259321     1.007825032230
         H            3.493980379455     1.052532258401    -1.099838740679     1.007825032230
         H            2.315692379455     2.376302258401    -1.055155740679     1.007825032230
         H           -0.239909620545    -2.481671741599    -1.266972740679     1.007825032230

  Basis Set: AUG-CC-PVTZ
    Blend: AUG-CC-PVTZ
  Basis Set: (AUG-CC-PVTZ AUX)
    Blend: AUG-CC-PVTZ-JKFIT
	 Reference Energy          =    -798.3797442447590811 [Eh]
	 Singles Energy            =      -0.0000000000000000 [Eh]
	 Same-Spin Energy          =      -0.4906393843211998 [Eh]
	 Opposite-Spin Energy      =      -1.5403425459756386 [Eh]
	 Correlation Energy        =      -2.0309819302968384 [Eh]
	 Total Energy              =    -800.4107261750559701 [Eh]

	 ================> DF-SCS-MP2 Energies <==================
	-----------------------------------------------------------
	 SCS Same-Spin Scale       =       0.3333333333333333 [-]
	 SCS Opposite-Spin Scale   =       1.2000000000000000 [-]
	 SCS Same-Spin Energy      =      -0.1635464614403999 [Eh]
	 SCS Opposite-Spin Energy  =      -1.8484110551707662 [Eh]
	 SCS Correlation Energy    =      -2.0119575166111661 [Eh]
	 SCS Total Energy          =    -800.3917017613702001 [Eh]
	-----------------------------------------------------------

  Dipole Moment: [D]
     X:    -0.2924      Y:     2.4764      Z:    -2.1263     Total:     3.2771

*** Psi4 exiting successfully. Buy a developer a beer!
