                               Psi4 1.3.2 release

  ==> Input File <==

--------------------------------------------------------------------------
#psi4
#
memory 32 gb

molecule  {
0 1
  P       -0.0032580    -0.8671950     0.1253540
  O       -1.1867680     0.1204360     0.5615740
  O        0.9752554    -0.0288081    -0.4645634
  O       -0.6066630    -1.5809190    -1.1923580
  O        0.4670770    -1.7625730     1.2055430
  C       -1.7907810     0.9929110    -0.4324270
  C        1.9592910     0.8227470     0.3828140
  C       -2.8068250     1.8392790     0.2947570
  C        2.8879720     1.6796440    -0.4470910
  H       -1.0045510     1.5998440    -0.8949530
  H       -2.2583930     0.3707270    -1.2026260
  H        1.3234980     1.4321860     1.0341110
  H        2.5053500     0.1039360     0.9973890
  H       -3.3001310     2.5165380    -0.4095030
  H       -3.5654280     1.2070220     0.7630240
  H       -2.3198080     2.4333430     1.0748900
  H        3.5555180     2.2520740     0.2062470
  H        3.4947160     1.0534000    -1.1072300
  H        2.3164280     2.3771700    -1.0625470
  H       -0.2391740    -2.4808040    -1.2743640
units angstrom
no_reorient  #important for SAPT in psi4, default
symmetry c1  #important for SAPT in psi4, default
}

set PROPERTIES_ORIGIN ["COM"]
properties('MP2/aug-cc-pvtz', properties = ['dipole'])
--------------------------------------------------------------------------

    Molecular point group: c1
  Charge       = 0
  Multiplicity = 1
  Basis Set: AUG-CC-PVTZ
    Blend: AUG-CC-PVTZ
  Basis Set: (AUG-CC-PVTZ AUX)
    Blend: AUG-CC-PVTZ-JKFIT

    Orbital Energies [Eh]
    ---------------------

    Doubly Occupied:

       1A    -80.066908     2A    -20.586090     3A    -20.583863
       4A    -20.571553     5A    -20.487682     6A    -11.330558
       7A    -11.293784     8A    -11.250857     9A    -11.224697
      10A     -7.589555    11A     -5.489027    12A     -5.487154
      13A     -5.485763    14A     -1.473903    15A     -1.378895
      16A     -1.362785    17A     -1.271185    18A     -1.064664
      19A     -1.030512    20A     -0.893772    21A     -0.857902
      22A     -0.800447    23A     -0.732462    24A     -0.719395
      25A     -0.684485    26A     -0.655423    27A     -0.641926
      28A     -0.632324    29A     -0.598855    30A     -0.583363
      31A     -0.575682    32A     -0.560771    33A     -0.545823
      34A     -0.541963    35A     -0.532030    36A     -0.518269
      37A     -0.509803    38A     -0.490745    39A     -0.469887
      40A     -0.447597    41A     -0.443601

  @DF-RHF Final Energy:  -798.36169714665675

   => Energetics <=

    Nuclear Repulsion Energy =            634.6677776643750803
    One-Electron Energy =               -2361.1270295470644669
    Two-Electron Energy =                 928.0975547360326345
    Total Energy =                       -798.3616971466567520
  Basis Set: (AUG-CC-PVTZ AUX)
    Blend: AUG-CC-PVTZ-RI
    Molecular point group: c1

    Geometry (in Angstrom), charge = 0, multiplicity = 1:

       Center              X                  Y                   Z               Mass
    ------------   -----------------  -----------------  -----------------  -----------------
         P            0.011081311634    -0.854909191684     0.116709127237    30.973761998420
         O           -1.172428688366     0.132721808316     0.552929127237    15.994914619570
         O            0.989594711634    -0.016522291684    -0.473208272763    15.994914619570
         O           -0.592323688366    -1.568633191684    -1.201002872763    15.994914619570
         O            0.481416311634    -1.750287191684     1.196898127237    15.994914619570
         C           -1.776441688366     1.005196808316    -0.441071872763    12.000000000000
         C            1.973630311634     0.835032808316     0.374169127237    12.000000000000
         C           -2.792485688366     1.851564808316     0.286112127237    12.000000000000
         C            2.902311311634     1.691929808316    -0.455735872763    12.000000000000
         H           -0.990211688366     1.612129808316    -0.903597872763     1.007825032230
         H           -2.244053688366     0.383012808316    -1.211270872763     1.007825032230
         H            1.337837311634     1.444471808316     1.025466127237     1.007825032230
         H            2.519689311634     0.116221808316     0.988744127237     1.007825032230
         H           -3.285791688366     2.528823808316    -0.418147872763     1.007825032230
         H           -3.551088688366     1.219307808316     0.754379127237     1.007825032230
         H           -2.305468688366     2.445628808316     1.066245127237     1.007825032230
         H            3.569857311634     2.264359808316     0.197602127237     1.007825032230
         H            3.509055311634     1.065685808316    -1.115874872763     1.007825032230
         H            2.330767311634     2.389455808316    -1.071191872763     1.007825032230
         H           -0.224834688366    -2.468518191684    -1.283008872763     1.007825032230

  Basis Set: AUG-CC-PVTZ
    Blend: AUG-CC-PVTZ
  Basis Set: (AUG-CC-PVTZ AUX)
    Blend: AUG-CC-PVTZ-JKFIT
	 Reference Energy          =    -798.3616971466567520 [Eh]
	 Singles Energy            =      -0.0000000000000000 [Eh]
	 Same-Spin Energy          =      -0.4871679884359602 [Eh]
	 Opposite-Spin Energy      =      -1.5318588744100921 [Eh]
	 Correlation Energy        =      -2.0190268628460522 [Eh]
	 Total Energy              =    -800.3807240095028419 [Eh]

	 ================> DF-SCS-MP2 Energies <==================
	-----------------------------------------------------------
	 SCS Same-Spin Scale       =       0.3333333333333333 [-]
	 SCS Opposite-Spin Scale   =       1.2000000000000000 [-]
	 SCS Same-Spin Energy      =      -0.1623893294786534 [Eh]
	 SCS Opposite-Spin Energy  =      -1.8382306492921103 [Eh]
	 SCS Correlation Energy    =      -2.0006199787707639 [Eh]
	 SCS Total Energy          =    -800.3623171254274666 [Eh]
	-----------------------------------------------------------

  Dipole Moment: [D]
     X:     1.3502      Y:     3.6822      Z:    -2.4173     Total:     4.6070

*** Psi4 exiting successfully. Buy a developer a beer!
