                               Psi4 1.4a3.dev225

  ==> Input File <==

--------------------------------------------------------------------------
#psi4
#
memory 32 gb

molecule  {
0 1
  P       -0.0193980    -0.9573280    -0.1096150
  O        1.2162340    -0.0269160    -0.5415020
  O       -1.1156210     0.0613730     0.5053800
  O        0.5163150    -1.6599550     1.2462920
  O       -0.4799711    -1.8293750    -1.1440451
  C        1.8380650     0.8393470     0.4463000
  C       -1.9139900     0.7949960    -0.4653280
  C        2.8342980     1.7043970    -0.2898420
  C       -2.8451070     1.6924310     0.3153960
  H        1.0624120     1.4376840     0.9337170
  H        2.3223620     0.2121780     1.1993520
  H       -1.2444800     1.3745780    -1.1102950
  H       -2.4582310     0.0769500    -1.0841060
  H        3.3419030     2.3695990     0.4147870
  H        3.5818500     1.0824000    -0.7858930
  H        2.3288000     2.3113610    -1.0437700
  H       -3.4753290     2.2644580    -0.3716610
  H       -3.4879190     1.0956960     0.9656320
  H       -2.2756200     2.3909680     0.9321420
  H        0.1488640    -2.5599310     1.3156750
units angstrom
no_reorient  #important for SAPT in psi4, default
symmetry c1  #important for SAPT in psi4, default
}

set PROPERTIES_ORIGIN ["COM"]
properties('MP2/aug-cc-pvtz', properties = ['dipole'])
--------------------------------------------------------------------------

    Molecular point group: c1
  Charge       = 0
  Multiplicity = 1
  Basis Set: AUG-CC-PVTZ
    Blend: AUG-CC-PVTZ
  Basis Set: (AUG-CC-PVTZ AUX)
    Blend: AUG-CC-PVTZ-JKFIT

    Orbital Energies [Eh]
    ---------------------

    Doubly Occupied:

       1A    -80.094908     2A    -20.601361     3A    -20.587953
       4A    -20.586976     5A    -20.509901     6A    -11.298780
       7A    -11.297893     8A    -11.228946     9A    -11.228397
      10A     -7.612913    11A     -5.511119    12A     -5.510575
      13A     -5.510463    14A     -1.446127    15A     -1.376175
      16A     -1.373917    17A     -1.313385    18A     -1.039927
      19A     -1.032394    20A     -0.871177    21A     -0.862666
      22A     -0.809833    23A     -0.727643    24A     -0.714101
      25A     -0.680771    26A     -0.655988    27A     -0.651893
      28A     -0.617620    29A     -0.603987    30A     -0.575697
      31A     -0.570298    32A     -0.563252    33A     -0.545408
      34A     -0.538275    35A     -0.533590    36A     -0.518277
      37A     -0.503936    38A     -0.481953    39A     -0.478254
      40A     -0.474663    41A     -0.466564

  @DF-RHF Final Energy:  -798.39073051274386

   => Energetics <=

    Nuclear Repulsion Energy =            630.0446428348503787
    One-Electron Energy =               -2351.6548318204136194
    Two-Electron Energy =                 923.2194584728192694
    Total Energy =                       -798.3907305127438576
  Basis Set: (AUG-CC-PVTZ AUX)
    Blend: AUG-CC-PVTZ-RI
    Molecular point group: c1

    Geometry (in Angstrom), charge = 0, multiplicity = 1:

       Center              X                  Y                   Z               Mass
    ------------   -----------------  -----------------  -----------------  -----------------
         P           -0.021945223156    -0.876906306270    -0.103883034445    30.973761998420
         O            1.213686776844     0.053505693730    -0.535770034445    15.994914619570
         O           -1.118168223156     0.141794693730     0.511111965555    15.994914619570
         O            0.513767776844    -1.579533306270     1.252023965555    15.994914619570
         O           -0.482518323156    -1.748953306270    -1.138313134445    15.994914619570
         C            1.835517776844     0.919768693730     0.452031965555    12.000000000000
         C           -1.916537223156     0.875417693730    -0.459596034445    12.000000000000
         C            2.831750776844     1.784818693730    -0.284110034445    12.000000000000
         C           -2.847654223156     1.772852693730     0.321127965555    12.000000000000
         H            1.059864776844     1.518105693730     0.939448965555     1.007825032230
         H            2.319814776844     0.292599693730     1.205083965555     1.007825032230
         H           -1.247027223156     1.454999693730    -1.104563034445     1.007825032230
         H           -2.460778223156     0.157371693730    -1.078374034445     1.007825032230
         H            3.339355776844     2.450020693730     0.420518965555     1.007825032230
         H            3.579302776844     1.162821693730    -0.780161034445     1.007825032230
         H            2.326252776844     2.391782693730    -1.038038034445     1.007825032230
         H           -3.477876223156     2.344879693730    -0.365929034445     1.007825032230
         H           -3.490466223156     1.176117693730     0.971363965555     1.007825032230
         H           -2.278167223156     2.471389693730     0.937873965555     1.007825032230
         H            0.146316776844    -2.479509306270     1.321406965555     1.007825032230

  Basis Set: AUG-CC-PVTZ
    Blend: AUG-CC-PVTZ
  Basis Set: (AUG-CC-PVTZ AUX)
    Blend: AUG-CC-PVTZ-JKFIT
	 Reference Energy          =    -798.3907305127438576 [Eh]
	 Singles Energy            =      -0.0000000000000000 [Eh]
	 Same-Spin Energy          =      -0.4884846580786512 [Eh]
	 Opposite-Spin Energy      =      -1.5351639121443774 [Eh]
	 Correlation Energy        =      -2.0236485702230285 [Eh]
	 Total Energy              =    -800.4143790829668887 [Eh]

	 ================> DF-SCS-MP2 Energies <==================
	-----------------------------------------------------------
	 SCS Same-Spin Scale       =       0.3333333333333333 [-]
	 SCS Opposite-Spin Scale   =       1.2000000000000000 [-]
	 SCS Same-Spin Energy      =      -0.1628282193595504 [Eh]
	 SCS Opposite-Spin Energy  =      -1.8421966945732529 [Eh]
	 SCS Correlation Energy    =      -2.0050249139328034 [Eh]
	 SCS Total Energy          =    -800.3957554266767147 [Eh]
	-----------------------------------------------------------

  Dipole Moment: [D]
     X:     0.0646      Y:     2.4833      Z:     1.9296     Total:     3.1456

*** Psi4 exiting successfully. Buy a developer a beer!
