                               Psi4 1.3.2 release

  ==> Input File <==

--------------------------------------------------------------------------
#psi4
#
memory 32 gb

molecule  {
0 1
  P       -0.0032580    -0.8671950     0.1253540
  O       -1.1867680     0.1204360     0.5615740
  O        1.1133490     0.0895100    -0.5478160
  O       -0.6066630    -1.5809190    -1.1923580
  O        0.5306456    -1.8835887     1.3515370
  C       -1.7907810     0.9929110    -0.4324270
  C        1.9592910     0.8227470     0.3828140
  C       -2.8068250     1.8392790     0.2947570
  C        2.8879720     1.6796440    -0.4470910
  H       -1.0045510     1.5998440    -0.8949530
  H       -2.2583930     0.3707270    -1.2026260
  H        1.3234980     1.4321860     1.0341110
  H        2.5053500     0.1039360     0.9973890
  H       -3.3001310     2.5165380    -0.4095030
  H       -3.5654280     1.2070220     0.7630240
  H       -2.3198080     2.4333430     1.0748900
  H        3.5555180     2.2520740     0.2062470
  H        3.4947160     1.0534000    -1.1072300
  H        2.3164280     2.3771700    -1.0625470
  H       -0.2391740    -2.4808040    -1.2743640
units angstrom
no_reorient  #important for SAPT in psi4, default
symmetry c1  #important for SAPT in psi4, default
}

set PROPERTIES_ORIGIN ["COM"]
properties('MP2/aug-cc-pvtz', properties = ['dipole'])
--------------------------------------------------------------------------

    Molecular point group: c1
  Charge       = 0
  Multiplicity = 1
  Basis Set: AUG-CC-PVTZ
    Blend: AUG-CC-PVTZ
  Basis Set: (AUG-CC-PVTZ AUX)
    Blend: AUG-CC-PVTZ-JKFIT

    Orbital Energies [Eh]
    ---------------------

    Doubly Occupied:

       1A    -80.130273     2A    -20.616890     3A    -20.601742
       4A    -20.601498     5A    -20.516000     6A    -11.307815
       7A    -11.303094     8A    -11.234223     9A    -11.233505
      10A     -7.641671    11A     -5.540347    12A     -5.539849
      13A     -5.537529    14A     -1.452055    15A     -1.389256
      16A     -1.386141    17A     -1.215255    18A     -1.047426
      19A     -1.038227    20A     -0.880649    21A     -0.869415
      22A     -0.822488    23A     -0.738742    24A     -0.719890
      25A     -0.689791    26A     -0.663509    27A     -0.654099
      28A     -0.623511    29A     -0.611590    30A     -0.581766
      31A     -0.566430    32A     -0.558879    33A     -0.545045
      34A     -0.543042    35A     -0.529423    36A     -0.517138
      37A     -0.498308    38A     -0.486077    39A     -0.480998
      40A     -0.431605    41A     -0.431068

  @DF-RHF Final Energy:  -798.33970003314676

   => Energetics <=

    Nuclear Repulsion Energy =            619.4305435327970599
    One-Electron Energy =               -2329.9879701078480139
    Two-Electron Energy =                 912.2177265419043124
    Total Energy =                       -798.3397000331467552
  Basis Set: (AUG-CC-PVTZ AUX)
    Blend: AUG-CC-PVTZ-RI
    Molecular point group: c1

    Geometry (in Angstrom), charge = 0, multiplicity = 1:

       Center              X                  Y                   Z               Mass
    ------------   -----------------  -----------------  -----------------  -----------------
         P           -0.009858575592    -0.854629082473     0.110194282907    30.973761998420
         O           -1.193368575592     0.133001917527     0.546414282907    15.994914619570
         O            1.106748424408     0.102075917527    -0.562975717093    15.994914619570
         O           -0.613263575592    -1.568353082473    -1.207517717093    15.994914619570
         O            0.524045024408    -1.871022782473     1.336377282907    15.994914619570
         C           -1.797381575592     1.005476917527    -0.447586717093    12.000000000000
         C            1.952690424408     0.835312917527     0.367654282907    12.000000000000
         C           -2.813425575592     1.851844917527     0.279597282907    12.000000000000
         C            2.881371424408     1.692209917527    -0.462250717093    12.000000000000
         H           -1.011151575592     1.612409917527    -0.910112717093     1.007825032230
         H           -2.264993575592     0.383292917527    -1.217785717093     1.007825032230
         H            1.316897424408     1.444751917527     1.018951282907     1.007825032230
         H            2.498749424408     0.116501917527     0.982229282907     1.007825032230
         H           -3.306731575592     2.529103917527    -0.424662717093     1.007825032230
         H           -3.572028575592     1.219587917527     0.747864282907     1.007825032230
         H           -2.326408575592     2.445908917527     1.059730282907     1.007825032230
         H            3.548917424408     2.264639917527     0.191087282907     1.007825032230
         H            3.488115424408     1.065965917527    -1.122389717093     1.007825032230
         H            2.309827424408     2.389735917527    -1.077706717093     1.007825032230
         H           -0.245774575592    -2.468238082473    -1.289523717093     1.007825032230

  Basis Set: AUG-CC-PVTZ
    Blend: AUG-CC-PVTZ
  Basis Set: (AUG-CC-PVTZ AUX)
    Blend: AUG-CC-PVTZ-JKFIT
	 Reference Energy          =    -798.3397000331467552 [Eh]
	 Singles Energy            =      -0.0000000000000000 [Eh]
	 Same-Spin Energy          =      -0.4934799869269591 [Eh]
	 Opposite-Spin Energy      =      -1.5477973887265468 [Eh]
	 Correlation Energy        =      -2.0412773756535061 [Eh]
	 Total Energy              =    -800.3809774088002769 [Eh]

	 ================> DF-SCS-MP2 Energies <==================
	-----------------------------------------------------------
	 SCS Same-Spin Scale       =       0.3333333333333333 [-]
	 SCS Opposite-Spin Scale   =       1.2000000000000000 [-]
	 SCS Same-Spin Energy      =      -0.1644933289756530 [Eh]
	 SCS Opposite-Spin Energy  =      -1.8573568664718560 [Eh]
	 SCS Correlation Energy    =      -2.0218501954475090 [Eh]
	 SCS Total Energy          =    -800.3615502285942966 [Eh]
	-----------------------------------------------------------

  Dipole Moment: [D]
     X:    -0.3536      Y:     3.3283      Z:    -2.8970     Total:     4.4267

*** Psi4 exiting successfully. Buy a developer a beer!
