                               Psi4 1.3.2 release

  ==> Input File <==

--------------------------------------------------------------------------
#psi4
#
memory 32 gb

molecule  {
0 1
  P       -0.0032580    -0.8671950     0.1253540
  O       -1.1753724     0.1252981     0.5588361
  O        1.1133490     0.0895100    -0.5478160
  O       -0.6066630    -1.5809190    -1.1923580
  O        0.4670770    -1.7625730     1.2055430
  C       -1.7907810     0.9929110    -0.4324270
  C        1.9592910     0.8227470     0.3828140
  C       -2.8068250     1.8392790     0.2947570
  C        2.8879720     1.6796440    -0.4470910
  H       -0.9980434     1.5955659    -0.8894061
  H       -2.2583930     0.3707270    -1.2026260
  H        1.3234980     1.4321860     1.0341110
  H        2.5053500     0.1039360     0.9973890
  H       -3.3001310     2.5165380    -0.4095030
  H       -3.5654280     1.2070220     0.7630240
  H       -2.3198080     2.4333430     1.0748900
  H        3.5555180     2.2520740     0.2062470
  H        3.4947160     1.0534000    -1.1072300
  H        2.3164280     2.3771700    -1.0625470
  H       -0.2391740    -2.4808040    -1.2743640
units angstrom
no_reorient  #important for SAPT in psi4, default
symmetry c1  #important for SAPT in psi4, default
}

set PROPERTIES_ORIGIN ["COM"]
properties('MP2/aug-cc-pvtz', properties = ['dipole'])
--------------------------------------------------------------------------

    Molecular point group: c1
  Charge       = 0
  Multiplicity = 1
  Basis Set: AUG-CC-PVTZ
    Blend: AUG-CC-PVTZ
  Basis Set: (AUG-CC-PVTZ AUX)
    Blend: AUG-CC-PVTZ-JKFIT

    Orbital Energies [Eh]
    ---------------------

    Doubly Occupied:

       1A    -80.103326     2A    -20.604633     3A    -20.590832
       4A    -20.589342     5A    -20.510641     6A    -11.301915
       7A    -11.298761     8A    -11.230509     9A    -11.230138
      10A     -7.619056    11A     -5.517604    12A     -5.517101
      13A     -5.516039    14A     -1.447592    15A     -1.379877
      16A     -1.376789    17A     -1.290950    18A     -1.042049
      19A     -1.033629    20A     -0.873260    21A     -0.864486
      22A     -0.812687    23A     -0.731041    24A     -0.715193
      25A     -0.682626    26A     -0.658112    27A     -0.651353
      28A     -0.618458    29A     -0.606133    30A     -0.576693
      31A     -0.565430    32A     -0.562306    33A     -0.545260
      34A     -0.539159    35A     -0.534157    36A     -0.519840
      37A     -0.503656    38A     -0.480890    39A     -0.479181
      40A     -0.465102    41A     -0.459885

  @DF-RHF Final Energy:  -798.38915150755986

   => Energetics <=

    Nuclear Repulsion Energy =            628.4138620572323362
    One-Electron Energy =               -2348.3146400376072052
    Two-Electron Energy =                 921.5116264728150099
    Total Energy =                       -798.3891515075598591
  Basis Set: (AUG-CC-PVTZ AUX)
    Blend: AUG-CC-PVTZ-RI
    Molecular point group: c1

    Geometry (in Angstrom), charge = 0, multiplicity = 1:

       Center              X                  Y                   Z               Mass
    ------------   -----------------  -----------------  -----------------  -----------------
         P           -0.004483693301    -0.867671796463     0.125601784238    30.973761998420
         O           -1.176598093301     0.124821303537     0.559083884238    15.994914619570
         O            1.112123306699     0.089033203537    -0.547568215762    15.994914619570
         O           -0.607888693301    -1.581395796463    -1.192110215762    15.994914619570
         O            0.465851306699    -1.763049796463     1.205790784238    15.994914619570
         C           -1.792006693301     0.992434203537    -0.432179215762    12.000000000000
         C            1.958065306699     0.822270203537     0.383061784238    12.000000000000
         C           -2.808050693301     1.838802203537     0.295004784238    12.000000000000
         C            2.886746306699     1.679167203537    -0.446843215762    12.000000000000
         H           -0.999269093301     1.595089103537    -0.889158315762     1.007825032230
         H           -2.259618693301     0.370250203537    -1.202378215762     1.007825032230
         H            1.322272306699     1.431709203537     1.034358784238     1.007825032230
         H            2.504124306699     0.103459203537     0.997636784238     1.007825032230
         H           -3.301356693301     2.516061203537    -0.409255215762     1.007825032230
         H           -3.566653693301     1.206545203537     0.763271784238     1.007825032230
         H           -2.321033693301     2.432866203537     1.075137784238     1.007825032230
         H            3.554292306699     2.251597203537     0.206494784238     1.007825032230
         H            3.493490306699     1.052923203537    -1.106982215762     1.007825032230
         H            2.315202306699     2.376693203537    -1.062299215762     1.007825032230
         H           -0.240399693301    -2.481280796463    -1.274116215762     1.007825032230

  Basis Set: AUG-CC-PVTZ
    Blend: AUG-CC-PVTZ
  Basis Set: (AUG-CC-PVTZ AUX)
    Blend: AUG-CC-PVTZ-JKFIT
	 Reference Energy          =    -798.3891515075598591 [Eh]
	 Singles Energy            =      -0.0000000000000000 [Eh]
	 Same-Spin Energy          =      -0.4896203950835942 [Eh]
	 Opposite-Spin Energy      =      -1.5377135694602779 [Eh]
	 Correlation Energy        =      -2.0273339645438719 [Eh]
	 Total Energy              =    -800.4164854721037727 [Eh]

	 ================> DF-SCS-MP2 Energies <==================
	-----------------------------------------------------------
	 SCS Same-Spin Scale       =       0.3333333333333333 [-]
	 SCS Opposite-Spin Scale   =       1.2000000000000000 [-]
	 SCS Same-Spin Energy      =      -0.1632067983611981 [Eh]
	 SCS Opposite-Spin Energy  =      -1.8452562833523334 [Eh]
	 SCS Correlation Energy    =      -2.0084630817135314 [Eh]
	 SCS Total Energy          =    -800.3976145892734166 [Eh]
	-----------------------------------------------------------

  Dipole Moment: [D]
     X:    -0.1169      Y:     2.6518      Z:    -2.2063     Total:     3.4516

*** Psi4 exiting successfully. Buy a developer a beer!
