                               Psi4 1.3.2 release

  ==> Input File <==

--------------------------------------------------------------------------
#psi4
#
memory 32 gb

molecule  {
0 1
  P       -0.0032580    -0.8671950     0.1253540
  O       -1.1867680     0.1204360     0.5615740
  O        1.1133490     0.0895100    -0.5478160
  O       -0.6066630    -1.5809190    -1.1923580
  O        0.4670770    -1.7625730     1.2055430
  C       -1.7907810     0.9929110    -0.4324270
  C        1.9592910     0.8227470     0.3828140
  C       -2.8068250     1.8392790     0.2947570
  C        2.8879720     1.6796440    -0.4470910
  H       -0.9327920     1.6552386    -0.9371676
  H       -2.2583930     0.3707270    -1.2026260
  H        1.3234980     1.4321860     1.0341110
  H        2.5053500     0.1039360     0.9973890
  H       -3.3001310     2.5165380    -0.4095030
  H       -3.5654280     1.2070220     0.7630240
  H       -2.3198080     2.4333430     1.0748900
  H        3.5555180     2.2520740     0.2062470
  H        3.4947160     1.0534000    -1.1072300
  H        2.3164280     2.3771700    -1.0625470
  H       -0.2391740    -2.4808040    -1.2743640
units angstrom
no_reorient  #important for SAPT in psi4, default
symmetry c1  #important for SAPT in psi4, default
}

set PROPERTIES_ORIGIN ["COM"]
properties('MP2/aug-cc-pvtz', properties = ['dipole'])
--------------------------------------------------------------------------

    Molecular point group: c1
  Charge       = 0
  Multiplicity = 1
  Basis Set: AUG-CC-PVTZ
    Blend: AUG-CC-PVTZ
  Basis Set: (AUG-CC-PVTZ AUX)
    Blend: AUG-CC-PVTZ-JKFIT

    Orbital Energies [Eh]
    ---------------------

    Doubly Occupied:

       1A    -80.104494     2A    -20.604931     3A    -20.592873
       4A    -20.590118     5A    -20.511327     6A    -11.312715
       7A    -11.299043     8A    -11.230920     9A    -11.230290
      10A     -7.620109    11A     -5.518650    12A     -5.518137
      13A     -5.517099    14A     -1.447357    15A     -1.379810
      16A     -1.377323    17A     -1.291547    18A     -1.040257
      19A     -1.032309    20A     -0.872555    21A     -0.859493
      22A     -0.811472    23A     -0.729681    24A     -0.712519
      25A     -0.682343    26A     -0.653726    27A     -0.649163
      28A     -0.618770    29A     -0.606205    30A     -0.576739
      31A     -0.565790    32A     -0.562447    33A     -0.545205
      34A     -0.538503    35A     -0.534209    36A     -0.517514
      37A     -0.503718    38A     -0.480344    39A     -0.473064
      40A     -0.465174    41A     -0.460561

  @DF-RHF Final Energy:  -798.38168801529162

   => Energetics <=

    Nuclear Repulsion Energy =            627.7011054537952077
    One-Electron Energy =               -2346.8885816680085554
    Two-Electron Energy =                 920.8057881989217321
    Total Energy =                       -798.3816880152916156
  Basis Set: (AUG-CC-PVTZ AUX)
    Blend: AUG-CC-PVTZ-RI
    Molecular point group: c1

    Geometry (in Angstrom), charge = 0, multiplicity = 1:

       Center              X                  Y                   Z               Mass
    ------------   -----------------  -----------------  -----------------  -----------------
         P           -0.003727331083    -0.867557350272     0.125629976738    30.973761998420
         O           -1.187237331083     0.120073649728     0.561849976738    15.994914619570
         O            1.112879668917     0.089147649728    -0.547540023262    15.994914619570
         O           -0.607132331083    -1.581281350272    -1.192082023262    15.994914619570
         O            0.466607668917    -1.762935350272     1.205818976738    15.994914619570
         C           -1.791250331083     0.992548649728    -0.432151023262    12.000000000000
         C            1.958821668917     0.822384649728     0.383089976738    12.000000000000
         C           -2.807294331083     1.838916649728     0.295032976738    12.000000000000
         C            2.887502668917     1.679281649728    -0.446815023262    12.000000000000
         H           -0.933261331083     1.654876249728    -0.936891623262     1.007825032230
         H           -2.258862331083     0.370364649728    -1.202350023262     1.007825032230
         H            1.323028668917     1.431823649728     1.034386976738     1.007825032230
         H            2.504880668917     0.103573649728     0.997664976738     1.007825032230
         H           -3.300600331083     2.516175649728    -0.409227023262     1.007825032230
         H           -3.565897331083     1.206659649728     0.763299976738     1.007825032230
         H           -2.320277331083     2.432980649728     1.075165976738     1.007825032230
         H            3.555048668917     2.251711649728     0.206522976738     1.007825032230
         H            3.494246668917     1.053037649728    -1.106954023262     1.007825032230
         H            2.315958668917     2.376807649728    -1.062271023262     1.007825032230
         H           -0.239643331083    -2.481166350272    -1.274088023262     1.007825032230

  Basis Set: AUG-CC-PVTZ
    Blend: AUG-CC-PVTZ
  Basis Set: (AUG-CC-PVTZ AUX)
    Blend: AUG-CC-PVTZ-JKFIT
	 Reference Energy          =    -798.3816880152916156 [Eh]
	 Singles Energy            =      -0.0000000000000000 [Eh]
	 Same-Spin Energy          =      -0.4899302451883442 [Eh]
	 Opposite-Spin Energy      =      -1.5389178488645558 [Eh]
	 Correlation Energy        =      -2.0288480940529001 [Eh]
	 Total Energy              =    -800.4105361093445481 [Eh]

	 ================> DF-SCS-MP2 Energies <==================
	-----------------------------------------------------------
	 SCS Same-Spin Scale       =       0.3333333333333333 [-]
	 SCS Opposite-Spin Scale   =       1.2000000000000000 [-]
	 SCS Same-Spin Energy      =      -0.1633100817294481 [Eh]
	 SCS Opposite-Spin Energy  =      -1.8467014186374668 [Eh]
	 SCS Correlation Energy    =      -2.0100115003669150 [Eh]
	 SCS Total Energy          =    -800.3916995156585017 [Eh]
	-----------------------------------------------------------

  Dipole Moment: [D]
     X:    -0.0853      Y:     2.6069      Z:    -2.1738     Total:     3.3954

*** Psi4 exiting successfully. Buy a developer a beer!
