                               Psi4 1.3.2 release

  ==> Input File <==

--------------------------------------------------------------------------
#psi4
#
memory 32 gb

molecule  {
0 1
  P       -0.0032580    -0.8671950     0.1253540
  O       -1.1867680     0.1204360     0.5615740
  O        1.1133490     0.0895100    -0.5478160
  O       -0.6066630    -1.5809190    -1.1923580
  O        0.4670770    -1.7625730     1.2055430
  C       -1.7907810     0.9929110    -0.4324270
  C        1.9592910     0.8227470     0.3828140
  C       -2.8068250     1.8392790     0.2947570
  C        2.8879720     1.6796440    -0.4470910
  H       -1.0045510     1.5998440    -0.8949530
  H       -2.2583930     0.3707270    -1.2026260
  H        1.3234980     1.4321860     1.0341110
  H        2.5053500     0.1039360     0.9973890
  H       -3.3001310     2.5165380    -0.4095030
  H       -3.5654280     1.2070220     0.7630240
  H       -2.3198080     2.4333430     1.0748900
  H        3.5555180     2.2520740     0.2062470
  H        3.4947160     1.0534000    -1.1072300
  H        2.3164280     2.3771700    -1.0625470
  H       -0.3145191    -2.2963035    -1.2575506
units angstrom
no_reorient  #important for SAPT in psi4, default
symmetry c1  #important for SAPT in psi4, default
}

set PROPERTIES_ORIGIN ["COM"]
properties('MP2/aug-cc-pvtz', properties = ['dipole'])
--------------------------------------------------------------------------

    Molecular point group: c1
  Charge       = 0
  Multiplicity = 1
  Basis Set: AUG-CC-PVTZ
    Blend: AUG-CC-PVTZ
  Basis Set: (AUG-CC-PVTZ AUX)
    Blend: AUG-CC-PVTZ-JKFIT

    Orbital Energies [Eh]
    ---------------------

    Doubly Occupied:

       1A    -80.107975     2A    -20.593039     3A    -20.592700
       4A    -20.587503     5A    -20.514319     6A    -11.302785
       7A    -11.300769     8A    -11.231513     9A    -11.231061
      10A     -7.623577    11A     -5.522194    12A     -5.521573
      13A     -5.520537    14A     -1.481080    15A     -1.412447
      16A     -1.379200    17A     -1.295398    18A     -1.043919
      19A     -1.035129    20A     -0.888131    21A     -0.865926
      22A     -0.840422    23A     -0.750243    24A     -0.718864
      25A     -0.687529    26A     -0.662545    27A     -0.657390
      28A     -0.623240    29A     -0.609251    30A     -0.582623
      31A     -0.568447    32A     -0.564093    33A     -0.547052
      34A     -0.542064    35A     -0.537763    36A     -0.521419
      37A     -0.506020    38A     -0.482831    39A     -0.481292
      40A     -0.468671    41A     -0.462896

  @DF-RHF Final Energy:  -798.34251788052075

   => Energetics <=

    Nuclear Repulsion Energy =            629.7689858065564295
    One-Electron Energy =               -2350.4921475133946842
    Two-Electron Energy =                 922.3806438263175096
    Total Energy =                       -798.3425178805207452
  Basis Set: (AUG-CC-PVTZ AUX)
    Blend: AUG-CC-PVTZ-RI
    Molecular point group: c1

    Geometry (in Angstrom), charge = 0, multiplicity = 1:

       Center              X                  Y                   Z               Mass
    ------------   -----------------  -----------------  -----------------  -----------------
         P           -0.002764881852    -0.868402043752     0.125243777759    30.973761998420
         O           -1.186274881852     0.119228956248     0.561463777759    15.994914619570
         O            1.113842118148     0.088302956248    -0.547926222241    15.994914619570
         O           -0.606169881852    -1.582126043752    -1.192468222241    15.994914619570
         O            0.467570118148    -1.763780043752     1.205432777759    15.994914619570
         C           -1.790287881852     0.991703956248    -0.432537222241    12.000000000000
         C            1.959784118148     0.821539956248     0.382703777759    12.000000000000
         C           -2.806331881852     1.838071956248     0.294646777759    12.000000000000
         C            2.888465118148     1.678436956248    -0.447201222241    12.000000000000
         H           -1.004057881852     1.598636956248    -0.895063222241     1.007825032230
         H           -2.257899881852     0.369519956248    -1.202736222241     1.007825032230
         H            1.323991118148     1.430978956248     1.034000777759     1.007825032230
         H            2.505843118148     0.102728956248     0.997278777759     1.007825032230
         H           -3.299637881852     2.515330956248    -0.409613222241     1.007825032230
         H           -3.564934881852     1.205814956248     0.762913777759     1.007825032230
         H           -2.319314881852     2.432135956248     1.074779777759     1.007825032230
         H            3.556011118148     2.250866956248     0.206136777759     1.007825032230
         H            3.495209118148     1.052192956248    -1.107340222241     1.007825032230
         H            2.316921118148     2.375962956248    -1.062657222241     1.007825032230
         H           -0.314025981852    -2.297510543752    -1.257660822241     1.007825032230

  Basis Set: AUG-CC-PVTZ
    Blend: AUG-CC-PVTZ
  Basis Set: (AUG-CC-PVTZ AUX)
    Blend: AUG-CC-PVTZ-JKFIT
	 Reference Energy          =    -798.3425178805207452 [Eh]
	 Singles Energy            =      -0.0000000000000000 [Eh]
	 Same-Spin Energy          =      -0.4875394755044519 [Eh]
	 Opposite-Spin Energy      =      -1.5333178630430691 [Eh]
	 Correlation Energy        =      -2.0208573385475210 [Eh]
	 Total Energy              =    -800.3633752190683026 [Eh]

	 ================> DF-SCS-MP2 Energies <==================
	-----------------------------------------------------------
	 SCS Same-Spin Scale       =       0.3333333333333333 [-]
	 SCS Opposite-Spin Scale   =       1.2000000000000000 [-]
	 SCS Same-Spin Energy      =      -0.1625131585014840 [Eh]
	 SCS Opposite-Spin Energy  =      -1.8399814356516828 [Eh]
	 SCS Correlation Energy    =      -2.0024945941531667 [Eh]
	 SCS Total Energy          =    -800.3450124746739220 [Eh]
	-----------------------------------------------------------

  Dipole Moment: [D]
     X:    -0.0954      Y:     2.9556      Z:    -2.0878     Total:     3.6199

*** Psi4 exiting successfully. Buy a developer a beer!
