                               Psi4 1.4a3.dev225

  ==> Input File <==

--------------------------------------------------------------------------
#psi4
#
memory 32 gb

molecule  {
0 1
  P       -0.0193980    -0.9573280    -0.1096150
  O        1.2162340    -0.0269160    -0.5415020
  O       -1.0817435     0.0298913     0.4863743
  O        0.5163150    -1.6599550     1.2462920
  O       -0.4960840    -1.8598830    -1.1802340
  C        1.8380650     0.8393470     0.4463000
  C       -1.9139900     0.7949960    -0.4653280
  C        2.8342980     1.7043970    -0.2898420
  C       -2.8451070     1.6924310     0.3153960
  H        1.0624120     1.4376840     0.9337170
  H        2.3223620     0.2121780     1.1993520
  H       -1.2444800     1.3745780    -1.1102950
  H       -2.4582310     0.0769500    -1.0841060
  H        3.3419030     2.3695990     0.4147870
  H        3.5818500     1.0824000    -0.7858930
  H        2.3288000     2.3113610    -1.0437700
  H       -3.4753290     2.2644580    -0.3716610
  H       -3.4879190     1.0956960     0.9656320
  H       -2.2756200     2.3909680     0.9321420
  H        0.1488640    -2.5599310     1.3156750
units angstrom
no_reorient  #important for SAPT in psi4, default
symmetry c1  #important for SAPT in psi4, default
}

set PROPERTIES_ORIGIN ["COM"]
properties('MP2/aug-cc-pvtz', properties = ['dipole'])
--------------------------------------------------------------------------

    Molecular point group: c1
  Charge       = 0
  Multiplicity = 1
  Basis Set: AUG-CC-PVTZ
    Blend: AUG-CC-PVTZ
  Basis Set: (AUG-CC-PVTZ AUX)
    Blend: AUG-CC-PVTZ-JKFIT

    Orbital Energies [Eh]
    ---------------------

    Doubly Occupied:

       1A    -80.097477     2A    -20.600373     3A    -20.590394
       4A    -20.586561     5A    -20.506158     6A    -11.306005
       7A    -11.298941     8A    -11.234527     9A    -11.228437
      10A     -7.613986    11A     -5.512436    12A     -5.512159
      13A     -5.510990    14A     -1.449063    15A     -1.378964
      16A     -1.374586    17A     -1.287330    18A     -1.045645
      19A     -1.034774    20A     -0.877509    21A     -0.863678
      22A     -0.809668    23A     -0.729959    24A     -0.715410
      25A     -0.683104    26A     -0.656723    27A     -0.649447
      28A     -0.621267    29A     -0.603415    30A     -0.576022
      31A     -0.567136    32A     -0.563658    33A     -0.544705
      34A     -0.540716    35A     -0.534591    36A     -0.519842
      37A     -0.504349    38A     -0.484462    39A     -0.477621
      40A     -0.461952    41A     -0.457661

  @DF-RHF Final Energy:  -798.39017839343433

   => Energetics <=

    Nuclear Repulsion Energy =            629.0897395914506660
    One-Electron Energy =               -2349.7364356001776287
    Two-Electron Energy =                 922.2565176152925233
    Total Energy =                       -798.3901783934343257
  Basis Set: (AUG-CC-PVTZ AUX)
    Blend: AUG-CC-PVTZ-RI
    Molecular point group: c1

    Geometry (in Angstrom), charge = 0, multiplicity = 1:

       Center              X                  Y                   Z               Mass
    ------------   -----------------  -----------------  -----------------  -----------------
         P           -0.023789836180    -0.870469515800    -0.098151823046    30.973761998420
         O            1.211842163820     0.059942484200    -0.530038823046    15.994914619570
         O           -1.086135336180     0.116749784200     0.497837476954    15.994914619570
         O            0.511923163820    -1.573096515800     1.257755176954    15.994914619570
         O           -0.500475836180    -1.773024515800    -1.168770823046    15.994914619570
         C            1.833673163820     0.926205484200     0.457763176954    12.000000000000
         C           -1.918381836180     0.881854484200    -0.453864823046    12.000000000000
         C            2.829906163820     1.791255484200    -0.278378823046    12.000000000000
         C           -2.849498836180     1.779289484200     0.326859176954    12.000000000000
         H            1.058020163820     1.524542484200     0.945180176954     1.007825032230
         H            2.317970163820     0.299036484200     1.210815176954     1.007825032230
         H           -1.248871836180     1.461436484200    -1.098831823046     1.007825032230
         H           -2.462622836180     0.163808484200    -1.072642823046     1.007825032230
         H            3.337511163820     2.456457484200     0.426250176954     1.007825032230
         H            3.577458163820     1.169258484200    -0.774429823046     1.007825032230
         H            2.324408163820     2.398219484200    -1.032306823046     1.007825032230
         H           -3.479720836180     2.351316484200    -0.360197823046     1.007825032230
         H           -3.492310836180     1.182554484200     0.977095176954     1.007825032230
         H           -2.280011836180     2.477826484200     0.943605176954     1.007825032230
         H            0.144472163820    -2.473072515800     1.327138176954     1.007825032230

  Basis Set: AUG-CC-PVTZ
    Blend: AUG-CC-PVTZ
  Basis Set: (AUG-CC-PVTZ AUX)
    Blend: AUG-CC-PVTZ-JKFIT
	 Reference Energy          =    -798.3901783934343257 [Eh]
	 Singles Energy            =      -0.0000000000000000 [Eh]
	 Same-Spin Energy          =      -0.4889983763589819 [Eh]
	 Opposite-Spin Energy      =      -1.5363343723257601 [Eh]
	 Correlation Energy        =      -2.0253327486847419 [Eh]
	 Total Energy              =    -800.4155111421190441 [Eh]

	 ================> DF-SCS-MP2 Energies <==================
	-----------------------------------------------------------
	 SCS Same-Spin Scale       =       0.3333333333333333 [-]
	 SCS Opposite-Spin Scale   =       1.2000000000000000 [-]
	 SCS Same-Spin Energy      =      -0.1629994587863273 [Eh]
	 SCS Opposite-Spin Energy  =      -1.8436012467909120 [Eh]
	 SCS Correlation Energy    =      -2.0066007055772395 [Eh]
	 SCS Total Energy          =    -800.3967790990116100 [Eh]
	-----------------------------------------------------------

  Dipole Moment: [D]
     X:    -0.1803      Y:     2.9097      Z:     2.1355     Total:     3.6138

*** Psi4 exiting successfully. Buy a developer a beer!
