                               Psi4 1.3.2 release

  ==> Input File <==

--------------------------------------------------------------------------
#psi4
#
memory 32 gb

molecule  {
0 1
  P       -0.0032580    -0.8671950     0.1253540
  O       -1.1870047     0.1414556     0.5097581
  O        1.1133490     0.0895100    -0.5478160
  O       -0.6066630    -1.5809190    -1.1923580
  O        0.5012429    -1.7829099     1.1725742
  C       -1.7907810     0.9929110    -0.4324270
  C        1.9592910     0.8227470     0.3828140
  C       -2.8068250     1.8392790     0.2947570
  C        2.8879720     1.6796440    -0.4470910
  H       -1.0045510     1.5998440    -0.8949530
  H       -2.2583930     0.3707270    -1.2026260
  H        1.3234980     1.4321860     1.0341110
  H        2.5053500     0.1039360     0.9973890
  H       -3.3001310     2.5165380    -0.4095030
  H       -3.5654280     1.2070220     0.7630240
  H       -2.3198080     2.4333430     1.0748900
  H        3.5555180     2.2520740     0.2062470
  H        3.4947160     1.0534000    -1.1072300
  H        2.3164280     2.3771700    -1.0625470
  H       -0.2391740    -2.4808040    -1.2743640
units angstrom
no_reorient  #important for SAPT in psi4, default
symmetry c1  #important for SAPT in psi4, default
}

set PROPERTIES_ORIGIN ["COM"]
properties('MP2/aug-cc-pvtz', properties = ['dipole'])
--------------------------------------------------------------------------

    Molecular point group: c1
  Charge       = 0
  Multiplicity = 1
  Basis Set: AUG-CC-PVTZ
    Blend: AUG-CC-PVTZ
  Basis Set: (AUG-CC-PVTZ AUX)
    Blend: AUG-CC-PVTZ-JKFIT

    Orbital Energies [Eh]
    ---------------------

    Doubly Occupied:

       1A    -80.107452     2A    -20.603165     3A    -20.591867
       4A    -20.588463     5A    -20.516413     6A    -11.298967
       7A    -11.296891     8A    -11.230044     9A    -11.228423
      10A     -7.622811    11A     -5.521464    12A     -5.520900
      13A     -5.519731    14A     -1.451987    15A     -1.387231
      16A     -1.377242    17A     -1.295867    18A     -1.041983
      19A     -1.032555    20A     -0.877426    21A     -0.865076
      22A     -0.812840    23A     -0.732524    24A     -0.719540
      25A     -0.684262    26A     -0.660137    27A     -0.652605
      28A     -0.619738    29A     -0.611629    30A     -0.576080
      31A     -0.566124    32A     -0.563207    33A     -0.546802
      34A     -0.539381    35A     -0.534334    36A     -0.517728
      37A     -0.500527    38A     -0.480363    39A     -0.474224
      40A     -0.469539    41A     -0.463228

  @DF-RHF Final Energy:  -798.38810510663643

   => Energetics <=

    Nuclear Repulsion Energy =            629.0453792664267212
    One-Electron Energy =               -2349.4654290594444319
    Two-Electron Energy =                 922.0319446863813937
    Total Energy =                       -798.3881051066364307
  Basis Set: (AUG-CC-PVTZ AUX)
    Blend: AUG-CC-PVTZ-RI
    Molecular point group: c1

    Geometry (in Angstrom), charge = 0, multiplicity = 1:

       Center              X                  Y                   Z               Mass
    ------------   -----------------  -----------------  -----------------  -----------------
         P           -0.006780925475    -0.867265812468     0.134157524169    30.973761998420
         O           -1.190527625475     0.141384787532     0.518561624169    15.994914619570
         O            1.109826074525     0.089439187532    -0.539012475831    15.994914619570
         O           -0.610185925475    -1.580989812468    -1.183554475831    15.994914619570
         O            0.497719974525    -1.782980712468     1.181377724169    15.994914619570
         C           -1.794303925475     0.992840187532    -0.423623475831    12.000000000000
         C            1.955768074525     0.822676187532     0.391617524169    12.000000000000
         C           -2.810347925475     1.839208187532     0.303560524169    12.000000000000
         C            2.884449074525     1.679573187532    -0.438287475831    12.000000000000
         H           -1.008073925475     1.599773187532    -0.886149475831     1.007825032230
         H           -2.261915925475     0.370656187532    -1.193822475831     1.007825032230
         H            1.319975074525     1.432115187532     1.042914524169     1.007825032230
         H            2.501827074525     0.103865187532     1.006192524169     1.007825032230
         H           -3.303653925475     2.516467187532    -0.400699475831     1.007825032230
         H           -3.568950925475     1.206951187532     0.771827524169     1.007825032230
         H           -2.323330925475     2.433272187532     1.083693524169     1.007825032230
         H            3.551995074525     2.252003187532     0.215050524169     1.007825032230
         H            3.491193074525     1.053329187532    -1.098426475831     1.007825032230
         H            2.312905074525     2.377099187532    -1.053743475831     1.007825032230
         H           -0.242696925475    -2.480874812468    -1.265560475831     1.007825032230

  Basis Set: AUG-CC-PVTZ
    Blend: AUG-CC-PVTZ
  Basis Set: (AUG-CC-PVTZ AUX)
    Blend: AUG-CC-PVTZ-JKFIT
	 Reference Energy          =    -798.3881051066364307 [Eh]
	 Singles Energy            =      -0.0000000000000000 [Eh]
	 Same-Spin Energy          =      -0.4896068433066412 [Eh]
	 Opposite-Spin Energy      =      -1.5370926196259402 [Eh]
	 Correlation Energy        =      -2.0266994629325814 [Eh]
	 Total Energy              =    -800.4148045695690143 [Eh]

	 ================> DF-SCS-MP2 Energies <==================
	-----------------------------------------------------------
	 SCS Same-Spin Scale       =       0.3333333333333333 [-]
	 SCS Opposite-Spin Scale   =       1.2000000000000000 [-]
	 SCS Same-Spin Energy      =      -0.1632022811022137 [Eh]
	 SCS Opposite-Spin Energy  =      -1.8445111435511281 [Eh]
	 SCS Correlation Energy    =      -2.0077134246533417 [Eh]
	 SCS Total Energy          =    -800.3958185312898195 [Eh]
	-----------------------------------------------------------

  Dipole Moment: [D]
     X:    -0.0679      Y:     2.5384      Z:    -1.9612     Total:     3.2085

*** Psi4 exiting successfully. Buy a developer a beer!
