                               Psi4 1.3.2 release

  ==> Input File <==

--------------------------------------------------------------------------
#psi4
#
memory 32 gb

molecule  {
0 1
  P       -0.0032580    -0.8671950     0.1253540
  O       -1.1712607     0.1290835     0.5831724
  O        1.1133490     0.0895100    -0.5478160
  O       -0.5828676    -1.5958332    -1.1948746
  O        0.4670770    -1.7625730     1.2055430
  C       -1.7907810     0.9929110    -0.4324270
  C        1.9592910     0.8227470     0.3828140
  C       -2.8068250     1.8392790     0.2947570
  C        2.8879720     1.6796440    -0.4470910
  H       -1.0045510     1.5998440    -0.8949530
  H       -2.2583930     0.3707270    -1.2026260
  H        1.3234980     1.4321860     1.0341110
  H        2.5053500     0.1039360     0.9973890
  H       -3.3001310     2.5165380    -0.4095030
  H       -3.5654280     1.2070220     0.7630240
  H       -2.3198080     2.4333430     1.0748900
  H        3.5555180     2.2520740     0.2062470
  H        3.4947160     1.0534000    -1.1072300
  H        2.3164280     2.3771700    -1.0625470
  H       -0.2391740    -2.4808040    -1.2743640
units angstrom
no_reorient  #important for SAPT in psi4, default
symmetry c1  #important for SAPT in psi4, default
}

set PROPERTIES_ORIGIN ["COM"]
properties('MP2/aug-cc-pvtz', properties = ['dipole'])
--------------------------------------------------------------------------

    Molecular point group: c1
  Charge       = 0
  Multiplicity = 1
  Basis Set: AUG-CC-PVTZ
    Blend: AUG-CC-PVTZ
  Basis Set: (AUG-CC-PVTZ AUX)
    Blend: AUG-CC-PVTZ-JKFIT

    Orbital Energies [Eh]
    ---------------------

    Doubly Occupied:

       1A    -80.103624     2A    -20.602917     3A    -20.593332
       4A    -20.589120     5A    -20.508388     6A    -11.304247
       7A    -11.298384     8A    -11.231425     9A    -11.229945
      10A     -7.619224    11A     -5.517704    12A     -5.517255
      13A     -5.516253    14A     -1.446997    15A     -1.382689
      16A     -1.374887    17A     -1.289179    18A     -1.042314
      19A     -1.033896    20A     -0.873030    21A     -0.864255
      22A     -0.816372    23A     -0.732652    24A     -0.714894
      25A     -0.682700    26A     -0.657734    27A     -0.650905
      28A     -0.617959    29A     -0.605418    30A     -0.577015
      31A     -0.565463    32A     -0.561658    33A     -0.544717
      34A     -0.539191    35A     -0.534125    36A     -0.520904
      37A     -0.505345    38A     -0.482857    39A     -0.479203
      40A     -0.463169    41A     -0.458330

  @DF-RHF Final Energy:  -798.38898012373204

   => Energetics <=

    Nuclear Repulsion Energy =            627.8642108050817114
    One-Electron Energy =               -2347.2070292195589900
    Two-Electron Energy =                 920.9538382907452387
    Total Energy =                       -798.3889801237320398
  Basis Set: (AUG-CC-PVTZ AUX)
    Blend: AUG-CC-PVTZ-RI
    Molecular point group: c1

    Geometry (in Angstrom), charge = 0, multiplicity = 1:

       Center              X                  Y                   Z               Mass
    ------------   -----------------  -----------------  -----------------  -----------------
         P           -0.007338890646    -0.866544211433     0.123372395391    30.973761998420
         O           -1.175341590646     0.129734288567     0.581190795391    15.994914619570
         O            1.109268109354     0.090160788567    -0.549797604609    15.994914619570
         O           -0.586948490646    -1.595182411433    -1.196856204609    15.994914619570
         O            0.462996109354    -1.761922211433     1.203561395391    15.994914619570
         C           -1.794861890646     0.993561788567    -0.434408604609    12.000000000000
         C            1.955210109354     0.823397788567     0.380832395391    12.000000000000
         C           -2.810905890646     1.839929788567     0.292775395391    12.000000000000
         C            2.883891109354     1.680294788567    -0.449072604609    12.000000000000
         H           -1.008631890646     1.600494788567    -0.896934604609     1.007825032230
         H           -2.262473890646     0.371377788567    -1.204607604609     1.007825032230
         H            1.319417109354     1.432836788567     1.032129395391     1.007825032230
         H            2.501269109354     0.104586788567     0.995407395391     1.007825032230
         H           -3.304211890646     2.517188788567    -0.411484604609     1.007825032230
         H           -3.569508890646     1.207672788567     0.761042395391     1.007825032230
         H           -2.323888890646     2.433993788567     1.072908395391     1.007825032230
         H            3.551437109354     2.252724788567     0.204265395391     1.007825032230
         H            3.490635109354     1.054050788567    -1.109211604609     1.007825032230
         H            2.312347109354     2.377820788567    -1.064528604609     1.007825032230
         H           -0.243254890646    -2.480153211433    -1.276345604609     1.007825032230

  Basis Set: AUG-CC-PVTZ
    Blend: AUG-CC-PVTZ
  Basis Set: (AUG-CC-PVTZ AUX)
    Blend: AUG-CC-PVTZ-JKFIT
	 Reference Energy          =    -798.3889801237320398 [Eh]
	 Singles Energy            =      -0.0000000000000000 [Eh]
	 Same-Spin Energy          =      -0.4894098580103617 [Eh]
	 Opposite-Spin Energy      =      -1.5375105614579887 [Eh]
	 Correlation Energy        =      -2.0269204194683503 [Eh]
	 Total Energy              =    -800.4159005432003369 [Eh]

	 ================> DF-SCS-MP2 Energies <==================
	-----------------------------------------------------------
	 SCS Same-Spin Scale       =       0.3333333333333333 [-]
	 SCS Opposite-Spin Scale   =       1.2000000000000000 [-]
	 SCS Same-Spin Energy      =      -0.1631366193367872 [Eh]
	 SCS Opposite-Spin Energy  =      -1.8450126737495864 [Eh]
	 SCS Correlation Energy    =      -2.0081492930863738 [Eh]
	 SCS Total Energy          =    -800.3971294168184158 [Eh]
	-----------------------------------------------------------

  Dipole Moment: [D]
     X:    -0.2062      Y:     2.7176      Z:    -2.2620     Total:     3.5418

*** Psi4 exiting successfully. Buy a developer a beer!
