                               Psi4 1.3.2 release

  ==> Input File <==

--------------------------------------------------------------------------
#psi4
#
memory 32 gb

molecule  {
0 1
  P       -0.0032580    -0.8671950     0.1253540
  O       -1.1435804     0.0907535     0.5063623
  O        1.1133490     0.0895100    -0.5478160
  O       -0.6066630    -1.5809190    -1.1923580
  O        0.4670770    -1.7625730     1.2055430
  C       -1.7907810     0.9929110    -0.4324270
  C        1.9592910     0.8227470     0.3828140
  C       -2.8237622     1.8743299     0.2260039
  C        2.8879720     1.6796440    -0.4470910
  H       -1.0045510     1.5998440    -0.8949530
  H       -2.2583930     0.3707270    -1.2026260
  H        1.3234980     1.4321860     1.0341110
  H        2.5053500     0.1039360     0.9973890
  H       -3.3001310     2.5165380    -0.4095030
  H       -3.5654280     1.2070220     0.7630240
  H       -2.3198080     2.4333430     1.0748900
  H        3.5555180     2.2520740     0.2062470
  H        3.4947160     1.0534000    -1.1072300
  H        2.3164280     2.3771700    -1.0625470
  H       -0.2391740    -2.4808040    -1.2743640
units angstrom
no_reorient  #important for SAPT in psi4, default
symmetry c1  #important for SAPT in psi4, default
}

set PROPERTIES_ORIGIN ["COM"]
properties('MP2/aug-cc-pvtz', properties = ['dipole'])
--------------------------------------------------------------------------

    Molecular point group: c1
  Charge       = 0
  Multiplicity = 1
  Basis Set: AUG-CC-PVTZ
    Blend: AUG-CC-PVTZ
  Basis Set: (AUG-CC-PVTZ AUX)
    Blend: AUG-CC-PVTZ-JKFIT

    Orbital Energies [Eh]
    ---------------------

    Doubly Occupied:

       1A    -80.096495     2A    -20.598988     3A    -20.592172
       4A    -20.584564     5A    -20.507977     6A    -11.307779
       7A    -11.297035     8A    -11.236074     9A    -11.228866
      10A     -7.613444    11A     -5.512238    12A     -5.511501
      13A     -5.510317    14A     -1.455941    15A     -1.383703
      16A     -1.373902    17A     -1.288596    18A     -1.049181
      19A     -1.033489    20A     -0.882121    21A     -0.865277
      22A     -0.809483    23A     -0.732652    24A     -0.718899
      25A     -0.682674    26A     -0.656128    27A     -0.649931
      28A     -0.621416    29A     -0.611357    30A     -0.585962
      31A     -0.573876    32A     -0.560309    33A     -0.550088
      34A     -0.536985    35A     -0.529696    36A     -0.516933
      37A     -0.499230    38A     -0.480122    39A     -0.477306
      40A     -0.463053    41A     -0.457546

  @DF-RHF Final Energy:  -798.38173573595827

   => Energetics <=

    Nuclear Repulsion Energy =            630.2499192057734945
    One-Electron Energy =               -2351.9767006741958539
    Two-Electron Energy =                 923.3450457324640865
    Total Energy =                       -798.3817357359582729
  Basis Set: (AUG-CC-PVTZ AUX)
    Blend: AUG-CC-PVTZ-RI
    Molecular point group: c1

    Geometry (in Angstrom), charge = 0, multiplicity = 1:

       Center              X                  Y                   Z               Mass
    ------------   -----------------  -----------------  -----------------  -----------------
         P           -0.006422841451    -0.866843336524     0.136442779571    30.973761998420
         O           -1.146745241451     0.091105163476     0.517451079571    15.994914619570
         O            1.110184158549     0.089861663476    -0.536727220429    15.994914619570
         O           -0.609827841451    -1.580567336524    -1.181269220429    15.994914619570
         O            0.463912158549    -1.762221336524     1.216631779571    15.994914619570
         C           -1.793945841451     0.993262663476    -0.421338220429    12.000000000000
         C            1.956126158549     0.823098663476     0.393902779571    12.000000000000
         C           -2.826927041451     1.874681563476     0.237092679571    12.000000000000
         C            2.884807158549     1.679995663476    -0.436002220429    12.000000000000
         H           -1.007715841451     1.600195663476    -0.883864220429     1.007825032230
         H           -2.261557841451     0.371078663476    -1.191537220429     1.007825032230
         H            1.320333158549     1.432537663476     1.045199779571     1.007825032230
         H            2.502185158549     0.104287663476     1.008477779571     1.007825032230
         H           -3.303295841451     2.516889663476    -0.398414220429     1.007825032230
         H           -3.568592841451     1.207373663476     0.774112779571     1.007825032230
         H           -2.322972841451     2.433694663476     1.085978779571     1.007825032230
         H            3.552353158549     2.252425663476     0.217335779571     1.007825032230
         H            3.491551158549     1.053751663476    -1.096141220429     1.007825032230
         H            2.313263158549     2.377521663476    -1.051458220429     1.007825032230
         H           -0.242338841451    -2.480452336524    -1.263275220429     1.007825032230

  Basis Set: AUG-CC-PVTZ
    Blend: AUG-CC-PVTZ
  Basis Set: (AUG-CC-PVTZ AUX)
    Blend: AUG-CC-PVTZ-JKFIT
	 Reference Energy          =    -798.3817357359582729 [Eh]
	 Singles Energy            =      -0.0000000000000000 [Eh]
	 Same-Spin Energy          =      -0.4889148724688260 [Eh]
	 Opposite-Spin Energy      =      -1.5358392530936424 [Eh]
	 Correlation Energy        =      -2.0247541255624686 [Eh]
	 Total Energy              =    -800.4064898615207539 [Eh]

	 ================> DF-SCS-MP2 Energies <==================
	-----------------------------------------------------------
	 SCS Same-Spin Scale       =       0.3333333333333333 [-]
	 SCS Opposite-Spin Scale   =       1.2000000000000000 [-]
	 SCS Same-Spin Energy      =      -0.1629716241562753 [Eh]
	 SCS Opposite-Spin Energy  =      -1.8430071037123708 [Eh]
	 SCS Correlation Energy    =      -2.0059787278686461 [Eh]
	 SCS Total Energy          =    -800.3877144638269101 [Eh]
	-----------------------------------------------------------

  Dipole Moment: [D]
     X:    -0.3959      Y:     2.8754      Z:    -2.1164     Total:     3.5922

*** Psi4 exiting successfully. Buy a developer a beer!
