                               Psi4 1.3.2 release

  ==> Input File <==

--------------------------------------------------------------------------
#psi4
#
memory 32 gb

molecule  {
0 1
  P       -0.0032580    -0.8671950     0.1253540
  O       -1.1571462     0.1633077     0.5412928
  O        1.0799417     0.1338912    -0.5377888
  O       -0.6066630    -1.5809190    -1.1923580
  O        0.4670770    -1.7625730     1.2055430
  C       -1.7907810     0.9929110    -0.4324270
  C        1.9592910     0.8227470     0.3828140
  C       -2.8068250     1.8392790     0.2947570
  C        2.8879720     1.6796440    -0.4470910
  H       -1.0045510     1.5998440    -0.8949530
  H       -2.2583930     0.3707270    -1.2026260
  H        1.3234980     1.4321860     1.0341110
  H        2.5053500     0.1039360     0.9973890
  H       -3.3001310     2.5165380    -0.4095030
  H       -3.5654280     1.2070220     0.7630240
  H       -2.3198080     2.4333430     1.0748900
  H        3.5555180     2.2520740     0.2062470
  H        3.4947160     1.0534000    -1.1072300
  H        2.3164280     2.3771700    -1.0625470
  H       -0.2391740    -2.4808040    -1.2743640
units angstrom
no_reorient  #important for SAPT in psi4, default
symmetry c1  #important for SAPT in psi4, default
}

set PROPERTIES_ORIGIN ["COM"]
properties('MP2/aug-cc-pvtz', properties = ['dipole'])
--------------------------------------------------------------------------

    Molecular point group: c1
  Charge       = 0
  Multiplicity = 1
  Basis Set: AUG-CC-PVTZ
    Blend: AUG-CC-PVTZ
  Basis Set: (AUG-CC-PVTZ AUX)
    Blend: AUG-CC-PVTZ-JKFIT

    Orbital Energies [Eh]
    ---------------------

    Doubly Occupied:

       1A    -80.106751     2A    -20.608251     3A    -20.587710
       4A    -20.587678     5A    -20.516449     6A    -11.297402
       7A    -11.296825     8A    -11.229288     9A    -11.227656
      10A     -7.622219    11A     -5.520775    12A     -5.520347
      13A     -5.519167    14A     -1.450440    15A     -1.384194
      16A     -1.377960    17A     -1.296011    18A     -1.040848
      19A     -1.031339    20A     -0.874952    21A     -0.863679
      22A     -0.812731    23A     -0.732917    24A     -0.717003
      25A     -0.684261    26A     -0.659103    27A     -0.652559
      28A     -0.619975    29A     -0.607058    30A     -0.577819
      31A     -0.566959    32A     -0.561480    33A     -0.545322
      34A     -0.538703    35A     -0.534914    36A     -0.517182
      37A     -0.501390    38A     -0.477755    39A     -0.473793
      40A     -0.469670    41A     -0.463258

  @DF-RHF Final Energy:  -798.38797134242020

   => Energetics <=

    Nuclear Repulsion Energy =            629.2597428793262679
    One-Electron Energy =               -2349.9478403844259446
    Two-Electron Energy =                 922.3001261626794758
    Total Energy =                       -798.3879713424202009
  Basis Set: (AUG-CC-PVTZ AUX)
    Blend: AUG-CC-PVTZ-RI
    Molecular point group: c1

    Geometry (in Angstrom), charge = 0, multiplicity = 1:

       Center              X                  Y                   Z               Mass
    ------------   -----------------  -----------------  -----------------  -----------------
         P           -0.002864764862    -0.876254954831     0.126418520762    30.973761998420
         O           -1.156752964862     0.154247745169     0.542357320762    15.994914619570
         O            1.080334935138     0.124831245169    -0.536724279238    15.994914619570
         O           -0.606269764862    -1.589978954831    -1.191293479238    15.994914619570
         O            0.467470235138    -1.771632954831     1.206607520762    15.994914619570
         C           -1.790387764862     0.983851045169    -0.431362479238    12.000000000000
         C            1.959684235138     0.813687045169     0.383878520762    12.000000000000
         C           -2.806431764862     1.830219045169     0.295821520762    12.000000000000
         C            2.888365235138     1.670584045169    -0.446026479238    12.000000000000
         H           -1.004157764862     1.590784045169    -0.893888479238     1.007825032230
         H           -2.257999764862     0.361667045169    -1.201561479238     1.007825032230
         H            1.323891235138     1.423126045169     1.035175520762     1.007825032230
         H            2.505743235138     0.094876045169     0.998453520762     1.007825032230
         H           -3.299737764862     2.507478045169    -0.408438479238     1.007825032230
         H           -3.565034764862     1.197962045169     0.764088520762     1.007825032230
         H           -2.319414764862     2.424283045169     1.075954520762     1.007825032230
         H            3.555911235138     2.243014045169     0.207311520762     1.007825032230
         H            3.495109235138     1.044340045169    -1.106165479238     1.007825032230
         H            2.316821235138     2.368110045169    -1.061482479238     1.007825032230
         H           -0.238780764862    -2.489863954831    -1.273299479238     1.007825032230

  Basis Set: AUG-CC-PVTZ
    Blend: AUG-CC-PVTZ
  Basis Set: (AUG-CC-PVTZ AUX)
    Blend: AUG-CC-PVTZ-JKFIT
	 Reference Energy          =    -798.3879713424202009 [Eh]
	 Singles Energy            =      -0.0000000000000000 [Eh]
	 Same-Spin Energy          =      -0.4897128295025431 [Eh]
	 Opposite-Spin Energy      =      -1.5374359199804526 [Eh]
	 Correlation Energy        =      -2.0271487494829956 [Eh]
	 Total Energy              =    -800.4151200919031908 [Eh]

	 ================> DF-SCS-MP2 Energies <==================
	-----------------------------------------------------------
	 SCS Same-Spin Scale       =       0.3333333333333333 [-]
	 SCS Opposite-Spin Scale   =       1.2000000000000000 [-]
	 SCS Same-Spin Energy      =      -0.1632376098341810 [Eh]
	 SCS Opposite-Spin Energy  =      -1.8449231039765430 [Eh]
	 SCS Correlation Energy    =      -2.0081607138107240 [Eh]
	 SCS Total Energy          =    -800.3961320562309538 [Eh]
	-----------------------------------------------------------

  Dipole Moment: [D]
     X:    -0.0114      Y:     2.3333      Z:    -2.1618     Total:     3.1809

*** Psi4 exiting successfully. Buy a developer a beer!
