                               Psi4 1.4a3.dev225

  ==> Input File <==

--------------------------------------------------------------------------
#psi4
#
memory 32 gb

molecule  {
0 1
  P       -0.0193980    -0.9573280    -0.1096150
  O        1.2162340    -0.0269160    -0.5415020
  O       -1.1156210     0.0613730     0.5053800
  O        0.5163150    -1.6599550     1.2462920
  O       -0.4960840    -1.8598830    -1.1802340
  C        1.8380650     0.8393470     0.4463000
  C       -1.9249620     0.8050782    -0.4786684
  C        2.8342980     1.7043970    -0.2898420
  C       -2.8451070     1.6924310     0.3153960
  H        1.0624120     1.4376840     0.9337170
  H        2.3223620     0.2121780     1.1993520
  H       -1.2444800     1.3745780    -1.1102950
  H       -2.4582310     0.0769500    -1.0841060
  H        3.3419030     2.3695990     0.4147870
  H        3.5818500     1.0824000    -0.7858930
  H        2.3288000     2.3113610    -1.0437700
  H       -3.4753290     2.2644580    -0.3716610
  H       -3.4879190     1.0956960     0.9656320
  H       -2.2756200     2.3909680     0.9321420
  H        0.1488640    -2.5599310     1.3156750
units angstrom
no_reorient  #important for SAPT in psi4, default
symmetry c1  #important for SAPT in psi4, default
}

set PROPERTIES_ORIGIN ["COM"]
properties('MP2/aug-cc-pvtz', properties = ['dipole'])
--------------------------------------------------------------------------

    Molecular point group: c1
  Charge       = 0
  Multiplicity = 1
  Basis Set: AUG-CC-PVTZ
    Blend: AUG-CC-PVTZ
  Basis Set: (AUG-CC-PVTZ AUX)
    Blend: AUG-CC-PVTZ-JKFIT

    Orbital Energies [Eh]
    ---------------------

    Doubly Occupied:

       1A    -80.103650     2A    -20.603937     3A    -20.590237
       4A    -20.588082     5A    -20.510618     6A    -11.300181
       7A    -11.299685     8A    -11.230587     9A    -11.229351
      10A     -7.619091    11A     -5.517622    12A     -5.517089
      13A     -5.516128    14A     -1.443714    15A     -1.377741
      16A     -1.371665    17A     -1.290894    18A     -1.042516
      19A     -1.034765    20A     -0.872525    21A     -0.864052
      22A     -0.812381    23A     -0.726974    24A     -0.713527
      25A     -0.682257    26A     -0.656783    27A     -0.651871
      28A     -0.615420    29A     -0.604813    30A     -0.576235
      31A     -0.565326    32A     -0.563214    33A     -0.544782
      34A     -0.538175    35A     -0.533547    36A     -0.520542
      37A     -0.504278    38A     -0.482590    39A     -0.478651
      40A     -0.465192    41A     -0.459956

  @DF-RHF Final Energy:  -798.38815019749745

   => Energetics <=

    Nuclear Repulsion Energy =            627.2194147499777728
    One-Electron Energy =               -2345.9738458563833774
    Two-Electron Energy =                 920.3662809089082657
    Total Energy =                       -798.3881501974974526
  Basis Set: (AUG-CC-PVTZ AUX)
    Blend: AUG-CC-PVTZ-RI
    Molecular point group: c1

    Geometry (in Angstrom), charge = 0, multiplicity = 1:

       Center              X                  Y                   Z               Mass
    ------------   -----------------  -----------------  -----------------  -----------------
         P           -0.019417374972    -0.874523888351    -0.099086062333    30.973761998420
         O            1.216214625028     0.055888111649    -0.530973062333    15.994914619570
         O           -1.115640374972     0.144177111649     0.515908937667    15.994914619570
         O            0.516295625028    -1.577150888351     1.256820937667    15.994914619570
         O           -0.496103374972    -1.777078888351    -1.169705062333    15.994914619570
         C            1.838045625028     0.922151111649     0.456828937667    12.000000000000
         C           -1.924981374972     0.887882311649    -0.468139462333    12.000000000000
         C            2.834278625028     1.787201111649    -0.279313062333    12.000000000000
         C           -2.845126374972     1.775235111649     0.325924937667    12.000000000000
         H            1.062392625028     1.520488111649     0.944245937667     1.007825032230
         H            2.322342625028     0.294982111649     1.209880937667     1.007825032230
         H           -1.244499374972     1.457382111649    -1.099766062333     1.007825032230
         H           -2.458250374972     0.159754111649    -1.073577062333     1.007825032230
         H            3.341883625028     2.452403111649     0.425315937667     1.007825032230
         H            3.581830625028     1.165204111649    -0.775364062333     1.007825032230
         H            2.328780625028     2.394165111649    -1.033241062333     1.007825032230
         H           -3.475348374972     2.347262111649    -0.361132062333     1.007825032230
         H           -3.487938374972     1.178500111649     0.976160937667     1.007825032230
         H           -2.275639374972     2.473772111649     0.942670937667     1.007825032230
         H            0.148844625028    -2.477126888351     1.326203937667     1.007825032230

  Basis Set: AUG-CC-PVTZ
    Blend: AUG-CC-PVTZ
  Basis Set: (AUG-CC-PVTZ AUX)
    Blend: AUG-CC-PVTZ-JKFIT
	 Reference Energy          =    -798.3881501974974526 [Eh]
	 Singles Energy            =      -0.0000000000000000 [Eh]
	 Same-Spin Energy          =      -0.4897115693326182 [Eh]
	 Opposite-Spin Energy      =      -1.5381563761356432 [Eh]
	 Correlation Energy        =      -2.0278679454682615 [Eh]
	 Total Energy              =    -800.4160181429657541 [Eh]

	 ================> DF-SCS-MP2 Energies <==================
	-----------------------------------------------------------
	 SCS Same-Spin Scale       =       0.3333333333333333 [-]
	 SCS Opposite-Spin Scale   =       1.2000000000000000 [-]
	 SCS Same-Spin Energy      =      -0.1632371897775394 [Eh]
	 SCS Opposite-Spin Energy  =      -1.8457876513627718 [Eh]
	 SCS Correlation Energy    =      -2.0090248411403113 [Eh]
	 SCS Total Energy          =    -800.3971750386377835 [Eh]
	-----------------------------------------------------------

  Dipole Moment: [D]
     X:     0.0687      Y:     2.7161      Z:     2.0696     Total:     3.4154

*** Psi4 exiting successfully. Buy a developer a beer!
