                               Psi4 1.4a3.dev225

  ==> Input File <==

--------------------------------------------------------------------------
#psi4
#
memory 32 gb

molecule  {
0 1
  P       -0.0193980    -0.9573280    -0.1096150
  O        1.2162340    -0.0269160    -0.5415020
  O       -1.1156210     0.0613730     0.5053800
  O        0.5163150    -1.6599550     1.2462920
  O       -0.4960840    -1.8598830    -1.1802340
  C        1.8295090     0.8274278     0.4327085
  C       -1.9139900     0.7949960    -0.4653280
  C        2.8342980     1.7043970    -0.2898420
  C       -2.8451070     1.6924310     0.3153960
  H        1.0624120     1.4376840     0.9337170
  H        2.3223620     0.2121780     1.1993520
  H       -1.2444800     1.3745780    -1.1102950
  H       -2.4582310     0.0769500    -1.0841060
  H        3.3419030     2.3695990     0.4147870
  H        3.5818500     1.0824000    -0.7858930
  H        2.3288000     2.3113610    -1.0437700
  H       -3.4753290     2.2644580    -0.3716610
  H       -3.4879190     1.0956960     0.9656320
  H       -2.2756200     2.3909680     0.9321420
  H        0.1488640    -2.5599310     1.3156750
units angstrom
no_reorient  #important for SAPT in psi4, default
symmetry c1  #important for SAPT in psi4, default
}

set PROPERTIES_ORIGIN ["COM"]
properties('MP2/aug-cc-pvtz', properties = ['dipole'])
--------------------------------------------------------------------------

    Molecular point group: c1
  Charge       = 0
  Multiplicity = 1
  Basis Set: AUG-CC-PVTZ
    Blend: AUG-CC-PVTZ
  Basis Set: (AUG-CC-PVTZ AUX)
    Blend: AUG-CC-PVTZ-JKFIT

    Orbital Energies [Eh]
    ---------------------

    Doubly Occupied:

       1A    -80.106512     2A    -20.605726     3A    -20.593448
       4A    -20.591183     5A    -20.512620     6A    -11.300100
       7A    -11.299407     8A    -11.230028     9A    -11.228874
      10A     -7.621958    11A     -5.520473    12A     -5.519971
      13A     -5.518982    14A     -1.448669    15A     -1.382823
      16A     -1.378730    17A     -1.293189    18A     -1.040694
      19A     -1.032519    20A     -0.874251    21A     -0.864061
      22A     -0.813647    23A     -0.730623    24A     -0.718007
      25A     -0.683632    26A     -0.656674    27A     -0.652711
      28A     -0.618949    29A     -0.609095    30A     -0.576846
      31A     -0.565919    32A     -0.564192    33A     -0.545617
      34A     -0.539732    35A     -0.535434    36A     -0.517268
      37A     -0.501855    38A     -0.480462    39A     -0.476876
      40A     -0.466734    41A     -0.461752

  @DF-RHF Final Energy:  -798.38871706716384

   => Energetics <=

    Nuclear Repulsion Energy =            627.9955162901737822
    One-Electron Energy =               -2347.4079860594306410
    Two-Electron Energy =                 921.0237527020930202
    Total Energy =                       -798.3887170671638387
  Basis Set: (AUG-CC-PVTZ AUX)
    Blend: AUG-CC-PVTZ-RI
    Molecular point group: c1

    Geometry (in Angstrom), charge = 0, multiplicity = 1:

       Center              X                  Y                   Z               Mass
    ------------   -----------------  -----------------  -----------------  -----------------
         P           -0.019605586442    -0.872809933118    -0.099066501116    30.973761998420
         O            1.216026413558     0.057602066882    -0.530953501116    15.994914619570
         O           -1.115828586442     0.145891066882     0.515928498884    15.994914619570
         O            0.516107413558    -1.575436933118     1.256840498884    15.994914619570
         O           -0.496291586442    -1.775364933118    -1.169685501116    15.994914619570
         C            1.829301413558     0.911945866882     0.443256998884    12.000000000000
         C           -1.914197586442     0.879514066882    -0.454779501116    12.000000000000
         C            2.834090413558     1.788915066882    -0.279293501116    12.000000000000
         C           -2.845314586442     1.776949066882     0.325944498884    12.000000000000
         H            1.062204413558     1.522202066882     0.944265498884     1.007825032230
         H            2.322154413558     0.296696066882     1.209900498884     1.007825032230
         H           -1.244687586442     1.459096066882    -1.099746501116     1.007825032230
         H           -2.458438586442     0.161468066882    -1.073557501116     1.007825032230
         H            3.341695413558     2.454117066882     0.425335498884     1.007825032230
         H            3.581642413558     1.166918066882    -0.775344501116     1.007825032230
         H            2.328592413558     2.395879066882    -1.033221501116     1.007825032230
         H           -3.475536586442     2.348976066882    -0.361112501116     1.007825032230
         H           -3.488126586442     1.180214066882     0.976180498884     1.007825032230
         H           -2.275827586442     2.475486066882     0.942690498884     1.007825032230
         H            0.148656413558    -2.475412933118     1.326223498884     1.007825032230

  Basis Set: AUG-CC-PVTZ
    Blend: AUG-CC-PVTZ
  Basis Set: (AUG-CC-PVTZ AUX)
    Blend: AUG-CC-PVTZ-JKFIT
	 Reference Energy          =    -798.3887170671638387 [Eh]
	 Singles Energy            =      -0.0000000000000000 [Eh]
	 Same-Spin Energy          =      -0.4896595896945939 [Eh]
	 Opposite-Spin Energy      =      -1.5377780745361163 [Eh]
	 Correlation Energy        =      -2.0274376642307104 [Eh]
	 Total Energy              =    -800.4161547313944993 [Eh]

	 ================> DF-SCS-MP2 Energies <==================
	-----------------------------------------------------------
	 SCS Same-Spin Scale       =       0.3333333333333333 [-]
	 SCS Opposite-Spin Scale   =       1.2000000000000000 [-]
	 SCS Same-Spin Energy      =      -0.1632198632315313 [Eh]
	 SCS Opposite-Spin Energy  =      -1.8453336894433394 [Eh]
	 SCS Correlation Energy    =      -2.0085535526748708 [Eh]
	 SCS Total Energy          =    -800.3972706198387641 [Eh]
	-----------------------------------------------------------

  Dipole Moment: [D]
     X:     0.0744      Y:     2.5954      Z:     2.0657     Total:     3.3179

*** Psi4 exiting successfully. Buy a developer a beer!
