                               Psi4 1.3.2 release

  ==> Input File <==

--------------------------------------------------------------------------
#psi4
#
memory 32 gb

molecule  {
0 1
  P       -0.0032580    -0.8671950     0.1253540
  O       -1.1867680     0.1204360     0.5615740
  O        1.1269783     0.1081741    -0.4963167
  O       -0.6420212    -1.6098396    -1.1592958
  O        0.4670770    -1.7625730     1.2055430
  C       -1.7907810     0.9929110    -0.4324270
  C        1.9592910     0.8227470     0.3828140
  C       -2.8068250     1.8392790     0.2947570
  C        2.8879720     1.6796440    -0.4470910
  H       -1.0045510     1.5998440    -0.8949530
  H       -2.2583930     0.3707270    -1.2026260
  H        1.3234980     1.4321860     1.0341110
  H        2.5053500     0.1039360     0.9973890
  H       -3.3001310     2.5165380    -0.4095030
  H       -3.5654280     1.2070220     0.7630240
  H       -2.3198080     2.4333430     1.0748900
  H        3.5555180     2.2520740     0.2062470
  H        3.4947160     1.0534000    -1.1072300
  H        2.3164280     2.3771700    -1.0625470
  H       -0.2391740    -2.4808040    -1.2743640
units angstrom
no_reorient  #important for SAPT in psi4, default
symmetry c1  #important for SAPT in psi4, default
}

set PROPERTIES_ORIGIN ["COM"]
properties('MP2/aug-cc-pvtz', properties = ['dipole'])
--------------------------------------------------------------------------

    Molecular point group: c1
  Charge       = 0
  Multiplicity = 1
  Basis Set: AUG-CC-PVTZ
    Blend: AUG-CC-PVTZ
  Basis Set: (AUG-CC-PVTZ AUX)
    Blend: AUG-CC-PVTZ-JKFIT

    Orbital Energies [Eh]
    ---------------------

    Doubly Occupied:

       1A    -80.107101     2A    -20.609223     3A    -20.591249
       4A    -20.591170     5A    -20.508835     6A    -11.302140
       7A    -11.294390     8A    -11.230321     9A    -11.228687
      10A     -7.622479    11A     -5.521028    12A     -5.520491
      13A     -5.519498    14A     -1.452324    15A     -1.392524
      16A     -1.380571    17A     -1.290345    18A     -1.042200
      19A     -1.032679    20A     -0.878322    21A     -0.864817
      22A     -0.814695    23A     -0.741793    24A     -0.717109
      25A     -0.685593    26A     -0.661383    27A     -0.653848
      28A     -0.625605    29A     -0.605070    30A     -0.578968
      31A     -0.567205    32A     -0.563150    33A     -0.545015
      34A     -0.543020    35A     -0.537291    36A     -0.517656
      37A     -0.501145    38A     -0.479952    39A     -0.475188
      40A     -0.463479    41A     -0.457783

  @DF-RHF Final Energy:  -798.38929397160518

   => Energetics <=

    Nuclear Repulsion Energy =            628.7493053187803298
    One-Electron Energy =               -2348.8465107142378656
    Two-Electron Energy =                 921.7079114238522379
    Total Energy =                       -798.3892939716051842
  Basis Set: (AUG-CC-PVTZ AUX)
    Blend: AUG-CC-PVTZ-RI
    Molecular point group: c1

    Geometry (in Angstrom), charge = 0, multiplicity = 1:

       Center              X                  Y                   Z               Mass
    ------------   -----------------  -----------------  -----------------  -----------------
         P           -0.001001585880    -0.866129924759     0.116573215706    30.973761998420
         O           -1.184511585880     0.121501075241     0.552793215706    15.994914619570
         O            1.129234714120     0.109239175241    -0.505097484294    15.994914619570
         O           -0.639764785880    -1.608774524759    -1.168076584294    15.994914619570
         O            0.469333414120    -1.761507924759     1.196762215706    15.994914619570
         C           -1.788524585880     0.993976075241    -0.441207784294    12.000000000000
         C            1.961547414120     0.823812075241     0.374033215706    12.000000000000
         C           -2.804568585880     1.840344075241     0.285976215706    12.000000000000
         C            2.890228414120     1.680709075241    -0.455871784294    12.000000000000
         H           -1.002294585880     1.600909075241    -0.903733784294     1.007825032230
         H           -2.256136585880     0.371792075241    -1.211406784294     1.007825032230
         H            1.325754414120     1.433251075241     1.025330215706     1.007825032230
         H            2.507606414120     0.105001075241     0.988608215706     1.007825032230
         H           -3.297874585880     2.517603075241    -0.418283784294     1.007825032230
         H           -3.563171585880     1.208087075241     0.754243215706     1.007825032230
         H           -2.317551585880     2.434408075241     1.066109215706     1.007825032230
         H            3.557774414120     2.253139075241     0.197466215706     1.007825032230
         H            3.496972414120     1.054465075241    -1.116010784294     1.007825032230
         H            2.318684414120     2.378235075241    -1.071327784294     1.007825032230
         H           -0.236917585880    -2.479738924759    -1.283144784294     1.007825032230

  Basis Set: AUG-CC-PVTZ
    Blend: AUG-CC-PVTZ
  Basis Set: (AUG-CC-PVTZ AUX)
    Blend: AUG-CC-PVTZ-JKFIT
	 Reference Energy          =    -798.3892939716051842 [Eh]
	 Singles Energy            =      -0.0000000000000000 [Eh]
	 Same-Spin Energy          =      -0.4892626468708822 [Eh]
	 Opposite-Spin Energy      =      -1.5363661999879605 [Eh]
	 Correlation Energy        =      -2.0256288468588428 [Eh]
	 Total Energy              =    -800.4149228184639924 [Eh]

	 ================> DF-SCS-MP2 Energies <==================
	-----------------------------------------------------------
	 SCS Same-Spin Scale       =       0.3333333333333333 [-]
	 SCS Opposite-Spin Scale   =       1.2000000000000000 [-]
	 SCS Same-Spin Energy      =      -0.1630875489569607 [Eh]
	 SCS Opposite-Spin Energy  =      -1.8436394399855525 [Eh]
	 SCS Correlation Energy    =      -2.0067269889425132 [Eh]
	 SCS Total Energy          =    -800.3960209605477303 [Eh]
	-----------------------------------------------------------

  Dipole Moment: [D]
     X:    -0.1293      Y:     2.5912      Z:    -2.4477     Total:     3.5668

*** Psi4 exiting successfully. Buy a developer a beer!
