                               Psi4 1.3.2 release

  ==> Input File <==

--------------------------------------------------------------------------
#psi4
#
memory 32 gb

molecule  {
0 1
  P       -0.0032580    -0.8671950     0.1253540
  O       -1.1867680     0.1204360     0.5615740
  O        1.1133490     0.0895100    -0.5478160
  O       -0.6066630    -1.5809190    -1.1923580
  O        0.4670770    -1.7625730     1.2055430
  C       -1.7907810     0.9929110    -0.4324270
  C        1.9592910     0.8227470     0.3828140
  C       -2.8068250     1.8392790     0.2947570
  C        2.8879720     1.6796440    -0.4470910
  H       -1.1480691     1.4890547    -0.8105237
  H       -2.2583930     0.3707270    -1.2026260
  H        1.3234980     1.4321860     1.0341110
  H        2.5053500     0.1039360     0.9973890
  H       -3.3001310     2.5165380    -0.4095030
  H       -3.5654280     1.2070220     0.7630240
  H       -2.3198080     2.4333430     1.0748900
  H        3.5555180     2.2520740     0.2062470
  H        3.4947160     1.0534000    -1.1072300
  H        2.3164280     2.3771700    -1.0625470
  H       -0.2391740    -2.4808040    -1.2743640
units angstrom
no_reorient  #important for SAPT in psi4, default
symmetry c1  #important for SAPT in psi4, default
}

set PROPERTIES_ORIGIN ["COM"]
properties('MP2/aug-cc-pvtz', properties = ['dipole'])
--------------------------------------------------------------------------

    Molecular point group: c1
  Charge       = 0
  Multiplicity = 1
  Basis Set: AUG-CC-PVTZ
    Blend: AUG-CC-PVTZ
  Basis Set: (AUG-CC-PVTZ AUX)
    Blend: AUG-CC-PVTZ-JKFIT

    Orbital Energies [Eh]
    ---------------------

    Doubly Occupied:

       1A    -80.103557     2A    -20.604493     3A    -20.590689
       4A    -20.588942     5A    -20.510493     6A    -11.299407
       7A    -11.277408     8A    -11.230597     9A    -11.228907
      10A     -7.619180    11A     -5.517717    12A     -5.517204
      13A     -5.516176    14A     -1.446764    15A     -1.379224
      16A     -1.376975    17A     -1.290880    18A     -1.051498
      19A     -1.036042    20A     -0.885675    21A     -0.870921
      22A     -0.816765    23A     -0.737541    24A     -0.720770
      25A     -0.682254    26A     -0.669525    27A     -0.651742
      28A     -0.618933    29A     -0.604978    30A     -0.576814
      31A     -0.565206    32A     -0.562170    33A     -0.544632
      34A     -0.542369    35A     -0.534604    36A     -0.524071
      37A     -0.504743    38A     -0.487888    39A     -0.479940
      40A     -0.464961    41A     -0.459950

  @DF-RHF Final Energy:  -798.35630080019655

   => Energetics <=

    Nuclear Repulsion Energy =            629.1049801599001512
    One-Electron Energy =               -2349.5373499248066764
    Two-Electron Energy =                 922.0760689647099753
    Total Energy =                       -798.3563008001965500
  Basis Set: (AUG-CC-PVTZ AUX)
    Blend: AUG-CC-PVTZ-RI
    Molecular point group: c1

    Geometry (in Angstrom), charge = 0, multiplicity = 1:

       Center              X                  Y                   Z               Mass
    ------------   -----------------  -----------------  -----------------  -----------------
         P           -0.002318850426    -0.866470068770     0.124801391238    30.973761998420
         O           -1.185828850426     0.121160931230     0.561021391238    15.994914619570
         O            1.114288149574     0.090234931230    -0.548368608762    15.994914619570
         O           -0.605723850426    -1.580194068770    -1.192910608762    15.994914619570
         O            0.468016149574    -1.761848068770     1.204990391238    15.994914619570
         C           -1.789841850426     0.993635931230    -0.432979608762    12.000000000000
         C            1.960230149574     0.823471931230     0.382261391238    12.000000000000
         C           -2.805885850426     1.840003931230     0.294204391238    12.000000000000
         C            2.888911149574     1.680368931230    -0.447643608762    12.000000000000
         H           -1.147129950426     1.489779631230    -0.811076308762     1.007825032230
         H           -2.257453850426     0.371451931230    -1.203178608762     1.007825032230
         H            1.324437149574     1.432910931230     1.033558391238     1.007825032230
         H            2.506289149574     0.104660931230     0.996836391238     1.007825032230
         H           -3.299191850426     2.517262931230    -0.410055608762     1.007825032230
         H           -3.564488850426     1.207746931230     0.762471391238     1.007825032230
         H           -2.318868850426     2.434067931230     1.074337391238     1.007825032230
         H            3.556457149574     2.252798931230     0.205694391238     1.007825032230
         H            3.495655149574     1.054124931230    -1.107782608762     1.007825032230
         H            2.317367149574     2.377894931230    -1.063099608762     1.007825032230
         H           -0.238234850426    -2.480079068770    -1.274916608762     1.007825032230

  Basis Set: AUG-CC-PVTZ
    Blend: AUG-CC-PVTZ
  Basis Set: (AUG-CC-PVTZ AUX)
    Blend: AUG-CC-PVTZ-JKFIT
	 Reference Energy          =    -798.3563008001965500 [Eh]
	 Singles Energy            =      -0.0000000000000000 [Eh]
	 Same-Spin Energy          =      -0.4894702100316177 [Eh]
	 Opposite-Spin Energy      =      -1.5370041363247753 [Eh]
	 Correlation Energy        =      -2.0264743463563928 [Eh]
	 Total Energy              =    -800.3827751465529445 [Eh]

	 ================> DF-SCS-MP2 Energies <==================
	-----------------------------------------------------------
	 SCS Same-Spin Scale       =       0.3333333333333333 [-]
	 SCS Opposite-Spin Scale   =       1.2000000000000000 [-]
	 SCS Same-Spin Energy      =      -0.1631567366772059 [Eh]
	 SCS Opposite-Spin Energy  =      -1.8444049635897302 [Eh]
	 SCS Correlation Energy    =      -2.0075617002669359 [Eh]
	 SCS Total Energy          =    -800.3638625004634832 [Eh]
	-----------------------------------------------------------

  Dipole Moment: [D]
     X:    -0.0481      Y:     2.6975      Z:    -2.2602     Total:     3.5196

*** Psi4 exiting successfully. Buy a developer a beer!
