                               Psi4 1.3.2 release

  ==> Input File <==

--------------------------------------------------------------------------
#psi4
#
memory 32 gb

molecule  {
0 1
  P       -0.0032580    -0.8671950     0.1253540
  O       -1.1864835     0.1149921     0.5744474
  O        1.1133490     0.0895100    -0.5478160
  O       -0.6066630    -1.5809190    -1.1923580
  O        0.4584444    -1.7573173     1.2135811
  C       -1.7907810     0.9929110    -0.4324270
  C        1.9592910     0.8227470     0.3828140
  C       -2.8068250     1.8392790     0.2947570
  C        2.8879720     1.6796440    -0.4470910
  H       -1.0045510     1.5998440    -0.8949530
  H       -2.2583930     0.3707270    -1.2026260
  H        1.3234980     1.4321860     1.0341110
  H        2.5053500     0.1039360     0.9973890
  H       -3.3001310     2.5165380    -0.4095030
  H       -3.5654280     1.2070220     0.7630240
  H       -2.3198080     2.4333430     1.0748900
  H        3.5555180     2.2520740     0.2062470
  H        3.4947160     1.0534000    -1.1072300
  H        2.3164280     2.3771700    -1.0625470
  H       -0.2391740    -2.4808040    -1.2743640
units angstrom
no_reorient  #important for SAPT in psi4, default
symmetry c1  #important for SAPT in psi4, default
}

set PROPERTIES_ORIGIN ["COM"]
properties('MP2/aug-cc-pvtz', properties = ['dipole'])
--------------------------------------------------------------------------

    Molecular point group: c1
  Charge       = 0
  Multiplicity = 1
  Basis Set: AUG-CC-PVTZ
    Blend: AUG-CC-PVTZ
  Basis Set: (AUG-CC-PVTZ AUX)
    Blend: AUG-CC-PVTZ-JKFIT

    Orbital Energies [Eh]
    ---------------------

    Doubly Occupied:

       1A    -80.103292     2A    -20.605116     3A    -20.590874
       4A    -20.590844     5A    -20.509600     6A    -11.302446
       7A    -11.299295     8A    -11.230564     9A    -11.230355
      10A     -7.618970    11A     -5.517485    12A     -5.516979
      13A     -5.515979    14A     -1.446055    15A     -1.379172
      16A     -1.375264    17A     -1.289995    18A     -1.041638
      19A     -1.033984    20A     -0.872427    21A     -0.863541
      22A     -0.812996    23A     -0.730698    24A     -0.713939
      25A     -0.681818    26A     -0.657604    27A     -0.651195
      28A     -0.618771    29A     -0.603923    30A     -0.576879
      31A     -0.565500    32A     -0.561869    33A     -0.544279
      34A     -0.539298    35A     -0.534146    36A     -0.520287
      37A     -0.504435    38A     -0.481561    39A     -0.479923
      40A     -0.464027    41A     -0.459428

  @DF-RHF Final Energy:  -798.38816555693211

   => Energetics <=

    Nuclear Repulsion Energy =            627.8904209747811365
    One-Electron Energy =               -2347.2842735440590332
    Two-Electron Energy =                 921.0056870123457884
    Total Energy =                       -798.3881655569321083
  Basis Set: (AUG-CC-PVTZ AUX)
    Blend: AUG-CC-PVTZ-RI
    Molecular point group: c1

    Geometry (in Angstrom), charge = 0, multiplicity = 1:

       Center              X                  Y                   Z               Mass
    ------------   -----------------  -----------------  -----------------  -----------------
         P           -0.002391000669    -0.867175381302     0.123182405836    30.973761998420
         O           -1.185616500669     0.115011718698     0.572275805836    15.994914619570
         O            1.114215999331     0.089529618698    -0.549987594164    15.994914619570
         O           -0.605796000669    -1.580899381302    -1.194529594164    15.994914619570
         O            0.459311399331    -1.757297681302     1.211409505836    15.994914619570
         C           -1.789914000669     0.992930618698    -0.434598594164    12.000000000000
         C            1.960157999331     0.822766618698     0.380642405836    12.000000000000
         C           -2.805958000669     1.839298618698     0.292585405836    12.000000000000
         C            2.888838999331     1.679663618698    -0.449262594164    12.000000000000
         H           -1.003684000669     1.599863618698    -0.897124594164     1.007825032230
         H           -2.257526000669     0.370746618698    -1.204797594164     1.007825032230
         H            1.324364999331     1.432205618698     1.031939405836     1.007825032230
         H            2.506216999331     0.103955618698     0.995217405836     1.007825032230
         H           -3.299264000669     2.516557618698    -0.411674594164     1.007825032230
         H           -3.564561000669     1.207041618698     0.760852405836     1.007825032230
         H           -2.318941000669     2.433362618698     1.072718405836     1.007825032230
         H            3.556384999331     2.252093618698     0.204075405836     1.007825032230
         H            3.495582999331     1.053419618698    -1.109401594164     1.007825032230
         H            2.317294999331     2.377189618698    -1.064718594164     1.007825032230
         H           -0.238307000669    -2.480784381302    -1.276535594164     1.007825032230

  Basis Set: AUG-CC-PVTZ
    Blend: AUG-CC-PVTZ
  Basis Set: (AUG-CC-PVTZ AUX)
    Blend: AUG-CC-PVTZ-JKFIT
	 Reference Energy          =    -798.3881655569321083 [Eh]
	 Singles Energy            =      -0.0000000000000000 [Eh]
	 Same-Spin Energy          =      -0.4897570317070361 [Eh]
	 Opposite-Spin Energy      =      -1.5382338958417221 [Eh]
	 Correlation Energy        =      -2.0279909275487582 [Eh]
	 Total Energy              =    -800.4161564844808936 [Eh]

	 ================> DF-SCS-MP2 Energies <==================
	-----------------------------------------------------------
	 SCS Same-Spin Scale       =       0.3333333333333333 [-]
	 SCS Opposite-Spin Scale   =       1.2000000000000000 [-]
	 SCS Same-Spin Energy      =      -0.1632523439023454 [Eh]
	 SCS Opposite-Spin Energy  =      -1.8458806750100665 [Eh]
	 SCS Correlation Energy    =      -2.0091330189124119 [Eh]
	 SCS Total Energy          =    -800.3972985758445020 [Eh]
	-----------------------------------------------------------

  Dipole Moment: [D]
     X:    -0.0598      Y:     2.6745      Z:    -2.2735     Total:     3.5108

*** Psi4 exiting successfully. Buy a developer a beer!
