                               Psi4 1.3.2 release

  ==> Input File <==

--------------------------------------------------------------------------
#psi4
#
memory 32 gb

molecule  {
0 1
  P       -0.0073744    -0.8475011     0.0731815
  O       -1.1867680     0.1204360     0.5615740
  O        1.1133490     0.0895100    -0.5478160
  O       -0.6066630    -1.5809190    -1.1923580
  O        0.4670770    -1.7625730     1.2055430
  C       -1.7592606     0.9736238    -0.4672142
  C        1.9592910     0.8227470     0.3828140
  C       -2.8068250     1.8392790     0.2947570
  C        2.8879720     1.6796440    -0.4470910
  H       -1.0045510     1.5998440    -0.8949530
  H       -2.2583930     0.3707270    -1.2026260
  H        1.3234980     1.4321860     1.0341110
  H        2.5053500     0.1039360     0.9973890
  H       -3.3001310     2.5165380    -0.4095030
  H       -3.5654280     1.2070220     0.7630240
  H       -2.3198080     2.4333430     1.0748900
  H        3.5555180     2.2520740     0.2062470
  H        3.4947160     1.0534000    -1.1072300
  H        2.3164280     2.3771700    -1.0625470
  H       -0.2391740    -2.4808040    -1.2743640
units angstrom
no_reorient  #important for SAPT in psi4, default
symmetry c1  #important for SAPT in psi4, default
}

set PROPERTIES_ORIGIN ["COM"]
properties('MP2/aug-cc-pvtz', properties = ['dipole'])
--------------------------------------------------------------------------

    Molecular point group: c1
  Charge       = 0
  Multiplicity = 1
  Basis Set: AUG-CC-PVTZ
    Blend: AUG-CC-PVTZ
  Basis Set: (AUG-CC-PVTZ AUX)
    Blend: AUG-CC-PVTZ-JKFIT

    Orbital Energies [Eh]
    ---------------------

    Doubly Occupied:

       1A    -80.104592     2A    -20.612498     3A    -20.595592
       4A    -20.593823     5A    -20.499073     6A    -11.302889
       7A    -11.300173     8A    -11.232745     9A    -11.231647
      10A     -7.620022    11A     -5.518695    12A     -5.518153
      13A     -5.516681    14A     -1.457687    15A     -1.393209
      16A     -1.383620    17A     -1.259568    18A     -1.042831
      19A     -1.028027    20A     -0.878397    21A     -0.868674
      22A     -0.822231    23A     -0.742053    24A     -0.719202
      25A     -0.687411    26A     -0.665895    27A     -0.655744
      28A     -0.624132    29A     -0.605904    30A     -0.582846
      31A     -0.562776    32A     -0.559402    33A     -0.544534
      34A     -0.542567    35A     -0.534899    36A     -0.514068
      37A     -0.500585    38A     -0.489964    39A     -0.482175
      40A     -0.445182    41A     -0.442632

  @DF-RHF Final Energy:  -798.38139583995905

   => Energetics <=

    Nuclear Repulsion Energy =            628.8803668562233042
    One-Electron Energy =               -2349.1579248795383137
    Two-Electron Energy =                 921.8961621833560685
    Total Energy =                       -798.3813958399590547
  Basis Set: (AUG-CC-PVTZ AUX)
    Blend: AUG-CC-PVTZ-RI
    Molecular point group: c1

    Geometry (in Angstrom), charge = 0, multiplicity = 1:

       Center              X                  Y                   Z               Mass
    ------------   -----------------  -----------------  -----------------  -----------------
         P           -0.009002030704    -0.849958495475     0.086381954688    30.973761998420
         O           -1.188395630704     0.117978604525     0.574774454688    15.994914619570
         O            1.111721369296     0.087052604525    -0.534615545312    15.994914619570
         O           -0.608290630704    -1.583376395475    -1.179157545312    15.994914619570
         O            0.465449369296    -1.765030395475     1.218743454688    15.994914619570
         C           -1.760888230704     0.971166404525    -0.454013745312    12.000000000000
         C            1.957663369296     0.820289604525     0.396014454688    12.000000000000
         C           -2.808452630704     1.836821604525     0.307957454688    12.000000000000
         C            2.886344369296     1.677186604525    -0.433890545312    12.000000000000
         H           -1.006178630704     1.597386604525    -0.881752545312     1.007825032230
         H           -2.260020630704     0.368269604525    -1.189425545312     1.007825032230
         H            1.321870369296     1.429728604525     1.047311454688     1.007825032230
         H            2.503722369296     0.101478604525     1.010589454688     1.007825032230
         H           -3.301758630704     2.514080604525    -0.396302545312     1.007825032230
         H           -3.567055630704     1.204564604525     0.776224454688     1.007825032230
         H           -2.321435630704     2.430885604525     1.088090454688     1.007825032230
         H            3.553890369296     2.249616604525     0.219447454688     1.007825032230
         H            3.493088369296     1.050942604525    -1.094029545312     1.007825032230
         H            2.314800369296     2.374712604525    -1.049346545312     1.007825032230
         H           -0.240801630704    -2.483261395475    -1.261163545312     1.007825032230

  Basis Set: AUG-CC-PVTZ
    Blend: AUG-CC-PVTZ
  Basis Set: (AUG-CC-PVTZ AUX)
    Blend: AUG-CC-PVTZ-JKFIT
	 Reference Energy          =    -798.3813958399590547 [Eh]
	 Singles Energy            =      -0.0000000000000000 [Eh]
	 Same-Spin Energy          =      -0.4899483363194681 [Eh]
	 Opposite-Spin Energy      =      -1.5383332207730196 [Eh]
	 Correlation Energy        =      -2.0282815570924875 [Eh]
	 Total Energy              =    -800.4096773970514960 [Eh]

	 ================> DF-SCS-MP2 Energies <==================
	-----------------------------------------------------------
	 SCS Same-Spin Scale       =       0.3333333333333333 [-]
	 SCS Opposite-Spin Scale   =       1.2000000000000000 [-]
	 SCS Same-Spin Energy      =      -0.1633161121064894 [Eh]
	 SCS Opposite-Spin Energy  =      -1.8459998649276235 [Eh]
	 SCS Correlation Energy    =      -2.0093159770341127 [Eh]
	 SCS Total Energy          =    -800.3907118169931891 [Eh]
	-----------------------------------------------------------

  Dipole Moment: [D]
     X:    -0.0013      Y:     2.8429      Z:    -2.7189     Total:     3.9338

*** Psi4 exiting successfully. Buy a developer a beer!
