                               Psi4 1.3.2 release

  ==> Input File <==

--------------------------------------------------------------------------
#psi4
#
memory 32 gb

molecule  {
0 1
  P       -0.0032580    -0.8671950     0.1253540
  O       -1.2166966     0.1022412     0.5179851
  O        1.1133490     0.0895100    -0.5478160
  O       -0.6536953    -1.5504430    -1.1861215
  O        0.4670770    -1.7625730     1.2055430
  C       -1.7907810     0.9929110    -0.4324270
  C        1.9592910     0.8227470     0.3828140
  C       -2.8068250     1.8392790     0.2947570
  C        2.8879720     1.6796440    -0.4470910
  H       -1.0045510     1.5998440    -0.8949530
  H       -2.2583930     0.3707270    -1.2026260
  H        1.3234980     1.4321860     1.0341110
  H        2.5053500     0.1039360     0.9973890
  H       -3.3001310     2.5165380    -0.4095030
  H       -3.5654280     1.2070220     0.7630240
  H       -2.3198080     2.4333430     1.0748900
  H        3.5555180     2.2520740     0.2062470
  H        3.4947160     1.0534000    -1.1072300
  H        2.3164280     2.3771700    -1.0625470
  H       -0.2391740    -2.4808040    -1.2743640
units angstrom
no_reorient  #important for SAPT in psi4, default
symmetry c1  #important for SAPT in psi4, default
}

set PROPERTIES_ORIGIN ["COM"]
properties('MP2/aug-cc-pvtz', properties = ['dipole'])
--------------------------------------------------------------------------

    Molecular point group: c1
  Charge       = 0
  Multiplicity = 1
  Basis Set: AUG-CC-PVTZ
    Blend: AUG-CC-PVTZ
  Basis Set: (AUG-CC-PVTZ AUX)
    Blend: AUG-CC-PVTZ-JKFIT

    Orbital Energies [Eh]
    ---------------------

    Doubly Occupied:

       1A    -80.105215     2A    -20.607919     3A    -20.592903
       4A    -20.586430     5A    -20.516019     6A    -11.300924
       7A    -11.295770     8A    -11.231496     9A    -11.227201
      10A     -7.620838    11A     -5.519520    12A     -5.518850
      13A     -5.517743    14A     -1.448006    15A     -1.381433
      16A     -1.372494    17A     -1.295203    18A     -1.041206
      19A     -1.032649    20A     -0.873826    21A     -0.863981
      22A     -0.806866    23A     -0.729117    24A     -0.713929
      25A     -0.680736    26A     -0.658585    27A     -0.652285
      28A     -0.620315    29A     -0.605516    30A     -0.576195
      31A     -0.566298    32A     -0.563237    33A     -0.544677
      34A     -0.539635    35A     -0.534055    36A     -0.518484
      37A     -0.500152    38A     -0.481622    39A     -0.474188
      40A     -0.468417    41A     -0.464110

  @DF-RHF Final Energy:  -798.38280861090720

   => Energetics <=

    Nuclear Repulsion Energy =            628.6521200619142746
    One-Electron Energy =               -2348.7737618297287554
    Two-Electron Energy =                 921.7388331569072761
    Total Energy =                       -798.3828086109072046
  Basis Set: (AUG-CC-PVTZ AUX)
    Blend: AUG-CC-PVTZ-RI
    Molecular point group: c1

    Geometry (in Angstrom), charge = 0, multiplicity = 1:

       Center              X                  Y                   Z               Mass
    ------------   -----------------  -----------------  -----------------  -----------------
         P            0.004733509003    -0.868470159549     0.129232322456    30.973761998420
         O           -1.208705090997     0.100966040451     0.521863422456    15.994914619570
         O            1.121340509003     0.088234840451    -0.543937677544    15.994914619570
         O           -0.645703790997    -1.551718159549    -1.182243177544    15.994914619570
         O            0.475068509003    -1.763848159549     1.209421322456    15.994914619570
         C           -1.782789490997     0.991635840451    -0.428548677544    12.000000000000
         C            1.967282509003     0.821471840451     0.386692322456    12.000000000000
         C           -2.798833490997     1.838003840451     0.298635322456    12.000000000000
         C            2.895963509003     1.678368840451    -0.443212677544    12.000000000000
         H           -0.996559490997     1.598568840451    -0.891074677544     1.007825032230
         H           -2.250401490997     0.369451840451    -1.198747677544     1.007825032230
         H            1.331489509003     1.430910840451     1.037989322456     1.007825032230
         H            2.513341509003     0.102660840451     1.001267322456     1.007825032230
         H           -3.292139490997     2.515262840451    -0.405624677544     1.007825032230
         H           -3.557436490997     1.205746840451     0.766902322456     1.007825032230
         H           -2.311816490997     2.432067840451     1.078768322456     1.007825032230
         H            3.563509509003     2.250798840451     0.210125322456     1.007825032230
         H            3.502707509003     1.052124840451    -1.103351677544     1.007825032230
         H            2.324419509003     2.375894840451    -1.058668677544     1.007825032230
         H           -0.231182490997    -2.482079159549    -1.270485677544     1.007825032230

  Basis Set: AUG-CC-PVTZ
    Blend: AUG-CC-PVTZ
  Basis Set: (AUG-CC-PVTZ AUX)
    Blend: AUG-CC-PVTZ-JKFIT
	 Reference Energy          =    -798.3828086109072046 [Eh]
	 Singles Energy            =      -0.0000000000000000 [Eh]
	 Same-Spin Energy          =      -0.4904328306026786 [Eh]
	 Opposite-Spin Energy      =      -1.5392051786361067 [Eh]
	 Correlation Energy        =      -2.0296380092387851 [Eh]
	 Total Energy              =    -800.4124466201459427 [Eh]

	 ================> DF-SCS-MP2 Energies <==================
	-----------------------------------------------------------
	 SCS Same-Spin Scale       =       0.3333333333333333 [-]
	 SCS Opposite-Spin Scale   =       1.2000000000000000 [-]
	 SCS Same-Spin Energy      =      -0.1634776102008929 [Eh]
	 SCS Opposite-Spin Energy  =      -1.8470462143633279 [Eh]
	 SCS Correlation Energy    =      -2.0105238245642210 [Eh]
	 SCS Total Energy          =    -800.3933324354713932 [Eh]
	-----------------------------------------------------------

  Dipole Moment: [D]
     X:     0.2179      Y:     2.5211      Z:    -2.1092     Total:     3.2943

*** Psi4 exiting successfully. Buy a developer a beer!
