                               Psi4 1.3.2 release

  ==> Input File <==

--------------------------------------------------------------------------
#psi4
#
memory 32 gb

molecule  {
0 1
  P       -0.0032580    -0.8671950     0.1253540
  O       -1.1867680     0.1204360     0.5615740
  O        1.1252947     0.1007768    -0.5672048
  O       -0.6066630    -1.5809190    -1.1923580
  O        0.4670770    -1.7625730     1.2055430
  C       -1.7907810     0.9929110    -0.4324270
  C        1.9592910     0.8227470     0.3828140
  C       -2.8068250     1.8392790     0.2947570
  C        2.8767423     1.6701788    -0.4690108
  H       -1.0045510     1.5998440    -0.8949530
  H       -2.2583930     0.3707270    -1.2026260
  H        1.3234980     1.4321860     1.0341110
  H        2.5053500     0.1039360     0.9973890
  H       -3.3001310     2.5165380    -0.4095030
  H       -3.5654280     1.2070220     0.7630240
  H       -2.3198080     2.4333430     1.0748900
  H        3.5555180     2.2520740     0.2062470
  H        3.4947160     1.0534000    -1.1072300
  H        2.3164280     2.3771700    -1.0625470
  H       -0.2391740    -2.4808040    -1.2743640
units angstrom
no_reorient  #important for SAPT in psi4, default
symmetry c1  #important for SAPT in psi4, default
}

set PROPERTIES_ORIGIN ["COM"]
properties('MP2/aug-cc-pvtz', properties = ['dipole'])
--------------------------------------------------------------------------

    Molecular point group: c1
  Charge       = 0
  Multiplicity = 1
  Basis Set: AUG-CC-PVTZ
    Blend: AUG-CC-PVTZ
  Basis Set: (AUG-CC-PVTZ AUX)
    Blend: AUG-CC-PVTZ-JKFIT

    Orbital Energies [Eh]
    ---------------------

    Doubly Occupied:

       1A    -80.106464     2A    -20.605586     3A    -20.592886
       4A    -20.589889     5A    -20.513428     6A    -11.301927
       7A    -11.297497     8A    -11.230429     9A    -11.228934
      10A     -7.621755    11A     -5.520314    12A     -5.519725
      13A     -5.518723    14A     -1.445360    15A     -1.380139
      16A     -1.374116    17A     -1.293204    18A     -1.041175
      19A     -1.031897    20A     -0.871136    21A     -0.863506
      22A     -0.814538    23A     -0.729317    24A     -0.714491
      25A     -0.681926    26A     -0.657923    27A     -0.652490
      28A     -0.616640    29A     -0.606363    30A     -0.574449
      31A     -0.565867    32A     -0.563280    33A     -0.545137
      34A     -0.538278    35A     -0.530123    36A     -0.520675
      37A     -0.503447    38A     -0.481307    39A     -0.479553
      40A     -0.466967    41A     -0.461648

  @DF-RHF Final Energy:  -798.38544045157550

   => Energetics <=

    Nuclear Repulsion Energy =            627.4823270038973533
    One-Electron Energy =               -2346.4305160048634207
    Two-Electron Energy =                 920.5627485493905624
    Total Energy =                       -798.3854404515755050
  Basis Set: (AUG-CC-PVTZ AUX)
    Blend: AUG-CC-PVTZ-RI
    Molecular point group: c1

    Geometry (in Angstrom), charge = 0, multiplicity = 1:

       Center              X                  Y                   Z               Mass
    ------------   -----------------  -----------------  -----------------  -----------------
         P           -0.003623419649    -0.867627468909     0.129074644400    30.973761998420
         O           -1.187133419649     0.120003531091     0.565294644400    15.994914619570
         O            1.124929280351     0.100344331091    -0.563484155600    15.994914619570
         O           -0.607028419649    -1.581351468909    -1.188637355600    15.994914619570
         O            0.466711580351    -1.763005468909     1.209263644400    15.994914619570
         C           -1.791146419649     0.992478531091    -0.428706355600    12.000000000000
         C            1.958925580351     0.822314531091     0.386534644400    12.000000000000
         C           -2.807190419649     1.838846531091     0.298477644400    12.000000000000
         C            2.876376880351     1.669746331091    -0.465290155600    12.000000000000
         H           -1.004916419649     1.599411531091    -0.891232355600     1.007825032230
         H           -2.258758419649     0.370294531091    -1.198905355600     1.007825032230
         H            1.323132580351     1.431753531091     1.037831644400     1.007825032230
         H            2.504984580351     0.103503531091     1.001109644400     1.007825032230
         H           -3.300496419649     2.516105531091    -0.405782355600     1.007825032230
         H           -3.565793419649     1.206589531091     0.766744644400     1.007825032230
         H           -2.320173419649     2.432910531091     1.078610644400     1.007825032230
         H            3.555152580351     2.251641531091     0.209967644400     1.007825032230
         H            3.494350580351     1.052967531091    -1.103509355600     1.007825032230
         H            2.316062580351     2.376737531091    -1.058826355600     1.007825032230
         H           -0.239539419649    -2.481236468909    -1.270643355600     1.007825032230

  Basis Set: AUG-CC-PVTZ
    Blend: AUG-CC-PVTZ
  Basis Set: (AUG-CC-PVTZ AUX)
    Blend: AUG-CC-PVTZ-JKFIT
	 Reference Energy          =    -798.3854404515755050 [Eh]
	 Singles Energy            =      -0.0000000000000000 [Eh]
	 Same-Spin Energy          =      -0.4901444665389054 [Eh]
	 Opposite-Spin Energy      =      -1.5390845901919246 [Eh]
	 Correlation Energy        =      -2.0292290567308298 [Eh]
	 Total Energy              =    -800.4146695083063605 [Eh]

	 ================> DF-SCS-MP2 Energies <==================
	-----------------------------------------------------------
	 SCS Same-Spin Scale       =       0.3333333333333333 [-]
	 SCS Opposite-Spin Scale   =       1.2000000000000000 [-]
	 SCS Same-Spin Energy      =      -0.1633814888463018 [Eh]
	 SCS Opposite-Spin Energy  =      -1.8469015082303093 [Eh]
	 SCS Correlation Energy    =      -2.0102829970766112 [Eh]
	 SCS Total Energy          =    -800.3957234486521202 [Eh]
	-----------------------------------------------------------

  Dipole Moment: [D]
     X:    -0.1767      Y:     2.5637      Z:    -2.1685     Total:     3.3624

*** Psi4 exiting successfully. Buy a developer a beer!
