                               Psi4 1.3.2 release

  ==> Input File <==

--------------------------------------------------------------------------
#psi4
#
memory 32 gb

molecule  {
0 1
  P       -0.0032580    -0.8671950     0.1253540
  O       -1.1867680     0.1204360     0.5615740
  O        1.1133490     0.0895100    -0.5478160
  O       -0.6066630    -1.5809190    -1.1923580
  O        0.4670770    -1.7625730     1.2055430
  C       -1.7907810     0.9929110    -0.4324270
  C        1.9592910     0.8227470     0.3828140
  C       -2.8068250     1.8392790     0.2947570
  C        2.8879720     1.6796440    -0.4470910
  H       -1.0045510     1.5998440    -0.8949530
  H       -2.2583930     0.3707270    -1.2026260
  H        1.3234980     1.4321860     1.0341110
  H        2.5053500     0.1039360     0.9973890
  H       -3.3001310     2.5165380    -0.4095030
  H       -3.5654280     1.2070220     0.7630240
  H       -2.3198080     2.4333430     1.0748900
  H        3.5555180     2.2520740     0.2062470
  H        3.4947160     1.0534000    -1.1072300
  H        2.3164280     2.3771700    -1.0625470
  H       -0.2015015    -2.5730542    -1.2827707
units angstrom
no_reorient  #important for SAPT in psi4, default
symmetry c1  #important for SAPT in psi4, default
}

set PROPERTIES_ORIGIN ["COM"]
properties('MP2/aug-cc-pvtz', properties = ['dipole'])
--------------------------------------------------------------------------

    Molecular point group: c1
  Charge       = 0
  Multiplicity = 1
  Basis Set: AUG-CC-PVTZ
    Blend: AUG-CC-PVTZ
  Basis Set: (AUG-CC-PVTZ AUX)
    Blend: AUG-CC-PVTZ-JKFIT

    Orbital Energies [Eh]
    ---------------------

    Doubly Occupied:

       1A    -80.102152     2A    -20.609899     3A    -20.590246
       4A    -20.589186     5A    -20.509294     6A    -11.300622
       7A    -11.298444     8A    -11.229918     9A    -11.229433
      10A     -7.617776    11A     -5.516279    12A     -5.515819
      13A     -5.514785    14A     -1.441382    15A     -1.376061
      16A     -1.363365    17A     -1.288993    18A     -1.040710
      19A     -1.032977    20A     -0.870161    21A     -0.863058
      22A     -0.802496    23A     -0.721510    24A     -0.711112
      25A     -0.678304    26A     -0.656642    27A     -0.646668
      28A     -0.616108    29A     -0.602770    30A     -0.574291
      31A     -0.564247    32A     -0.561153    33A     -0.543639
      34A     -0.538184    35A     -0.532162    36A     -0.518781
      37A     -0.502586    38A     -0.479897    39A     -0.478345
      40A     -0.463406    41A     -0.459001

  @DF-RHF Final Energy:  -798.37563704225477

   => Energetics <=

    Nuclear Repulsion Energy =            627.4506341780986531
    One-Electron Energy =               -2346.5488187515034042
    Two-Electron Energy =                 920.7225475311499849
    Total Energy =                       -798.3756370422547661
  Basis Set: (AUG-CC-PVTZ AUX)
    Blend: AUG-CC-PVTZ-RI
    Molecular point group: c1

    Geometry (in Angstrom), charge = 0, multiplicity = 1:

       Center              X                  Y                   Z               Mass
    ------------   -----------------  -----------------  -----------------  -----------------
         P           -0.003504315370    -0.866591363435     0.125408783805    30.973761998420
         O           -1.187014315370     0.121039636565     0.561628783805    15.994914619570
         O            1.113102684630     0.090113636565    -0.547761216195    15.994914619570
         O           -0.606909315370    -1.580315363435    -1.192303216195    15.994914619570
         O            0.466830684630    -1.761969363435     1.205597783805    15.994914619570
         C           -1.791027315370     0.993514636565    -0.432372216195    12.000000000000
         C            1.959044684630     0.823350636565     0.382868783805    12.000000000000
         C           -2.807071315370     1.839882636565     0.294811783805    12.000000000000
         C            2.887725684630     1.680247636565    -0.447036216195    12.000000000000
         H           -1.004797315370     1.600447636565    -0.894898216195     1.007825032230
         H           -2.258639315370     0.371330636565    -1.202571216195     1.007825032230
         H            1.323251684630     1.432789636565     1.034165783805     1.007825032230
         H            2.505103684630     0.104539636565     0.997443783805     1.007825032230
         H           -3.300377315370     2.517141636565    -0.409448216195     1.007825032230
         H           -3.565674315370     1.207625636565     0.763078783805     1.007825032230
         H           -2.320054315370     2.433946636565     1.074944783805     1.007825032230
         H            3.555271684630     2.252677636565     0.206301783805     1.007825032230
         H            3.494469684630     1.054003636565    -1.107175216195     1.007825032230
         H            2.316181684630     2.377773636565    -1.062492216195     1.007825032230
         H           -0.201747815370    -2.572450563435    -1.282715916195     1.007825032230

  Basis Set: AUG-CC-PVTZ
    Blend: AUG-CC-PVTZ
  Basis Set: (AUG-CC-PVTZ AUX)
    Blend: AUG-CC-PVTZ-JKFIT
	 Reference Energy          =    -798.3756370422547661 [Eh]
	 Singles Energy            =      -0.0000000000000000 [Eh]
	 Same-Spin Energy          =      -0.4907871600056221 [Eh]
	 Opposite-Spin Energy      =      -1.5407262514509181 [Eh]
	 Correlation Energy        =      -2.0315134114565403 [Eh]
	 Total Energy              =    -800.4071504537113242 [Eh]

	 ================> DF-SCS-MP2 Energies <==================
	-----------------------------------------------------------
	 SCS Same-Spin Scale       =       0.3333333333333333 [-]
	 SCS Opposite-Spin Scale   =       1.2000000000000000 [-]
	 SCS Same-Spin Energy      =      -0.1635957200018740 [Eh]
	 SCS Opposite-Spin Energy  =      -1.8488715017411017 [Eh]
	 SCS Correlation Energy    =      -2.0124672217429755 [Eh]
	 SCS Total Energy          =    -800.3881042639977750 [Eh]
	-----------------------------------------------------------

  Dipole Moment: [D]
     X:    -0.0391      Y:     2.4887      Z:    -2.2678     Total:     3.3672

*** Psi4 exiting successfully. Buy a developer a beer!
