                               Psi4 1.3.2 release

  ==> Input File <==

--------------------------------------------------------------------------
#psi4
#
memory 32 gb

molecule  {
0 1
  P        0.0057439    -0.8593007     0.1509133
  O       -1.1867680     0.1204360     0.5615740
  O        1.1133490     0.0895100    -0.5478160
  O       -0.6066630    -1.5809190    -1.1923580
  O        0.4670770    -1.7625730     1.2055430
  C       -1.7907810     0.9929110    -0.4324270
  C        1.9467932     0.8121084     0.4022097
  C       -2.8068250     1.8392790     0.2947570
  C        2.8879720     1.6796440    -0.4470910
  H       -1.0045510     1.5998440    -0.8949530
  H       -2.2583930     0.3707270    -1.2026260
  H        1.3234980     1.4321860     1.0341110
  H        2.5053500     0.1039360     0.9973890
  H       -3.3001310     2.5165380    -0.4095030
  H       -3.5654280     1.2070220     0.7630240
  H       -2.3198080     2.4333430     1.0748900
  H        3.5555180     2.2520740     0.2062470
  H        3.4947160     1.0534000    -1.1072300
  H        2.3164280     2.3771700    -1.0625470
  H       -0.2391740    -2.4808040    -1.2743640
units angstrom
no_reorient  #important for SAPT in psi4, default
symmetry c1  #important for SAPT in psi4, default
}

set PROPERTIES_ORIGIN ["COM"]
properties('MP2/aug-cc-pvtz', properties = ['dipole'])
--------------------------------------------------------------------------

    Molecular point group: c1
  Charge       = 0
  Multiplicity = 1
  Basis Set: AUG-CC-PVTZ
    Blend: AUG-CC-PVTZ
  Basis Set: (AUG-CC-PVTZ AUX)
    Blend: AUG-CC-PVTZ-JKFIT

    Orbital Energies [Eh]
    ---------------------

    Doubly Occupied:

       1A    -80.103206     2A    -20.596908     3A    -20.592504
       4A    -20.592153     5A    -20.514639     6A    -11.301985
       7A    -11.299212     8A    -11.231642     9A    -11.230362
      10A     -7.619228    11A     -5.517650    12A     -5.517206
      13A     -5.516334    14A     -1.444664    15A     -1.379126
      16A     -1.370190    17A     -1.301357    18A     -1.041210
      19A     -1.030698    20A     -0.873239    21A     -0.865629
      22A     -0.810086    23A     -0.727027    24A     -0.715339
      25A     -0.683174    26A     -0.657477    27A     -0.647432
      28A     -0.618970    29A     -0.605910    30A     -0.571583
      31A     -0.565929    32A     -0.562433    33A     -0.546425
      34A     -0.539490    35A     -0.531351    36A     -0.519007
      37A     -0.503189    38A     -0.485593    39A     -0.480435
      40A     -0.470948    41A     -0.466507

  @DF-RHF Final Energy:  -798.38706433692732

   => Energetics <=

    Nuclear Repulsion Energy =            628.1831277727509359
    One-Electron Energy =               -2347.8454927256107112
    Two-Electron Energy =                 921.2753006159323377
    Total Energy =                       -798.3870643369273239
  Basis Set: (AUG-CC-PVTZ AUX)
    Blend: AUG-CC-PVTZ-RI
    Molecular point group: c1

    Geometry (in Angstrom), charge = 0, multiplicity = 1:

       Center              X                  Y                   Z               Mass
    ------------   -----------------  -----------------  -----------------  -----------------
         P            0.004907594257    -0.860059214285     0.144262734945    30.973761998420
         O           -1.187604305743     0.119677485715     0.554923434945    15.994914619570
         O            1.112512694257     0.088751485715    -0.554466565055    15.994914619570
         O           -0.607499305743    -1.581677514285    -1.199008565055    15.994914619570
         O            0.466240694257    -1.763331514285     1.198892434945    15.994914619570
         C           -1.791617305743     0.992152485715    -0.439077565055    12.000000000000
         C            1.945956894257     0.811349885715     0.395559134945    12.000000000000
         C           -2.807661305743     1.838520485715     0.288106434945    12.000000000000
         C            2.887135694257     1.678885485715    -0.453741565055    12.000000000000
         H           -1.005387305743     1.599085485715    -0.901603565055     1.007825032230
         H           -2.259229305743     0.369968485715    -1.209276565055     1.007825032230
         H            1.322661694257     1.431427485715     1.027460434945     1.007825032230
         H            2.504513694257     0.103177485715     0.990738434945     1.007825032230
         H           -3.300967305743     2.515779485715    -0.416153565055     1.007825032230
         H           -3.566264305743     1.206263485715     0.756373434945     1.007825032230
         H           -2.320644305743     2.432584485715     1.068239434945     1.007825032230
         H            3.554681694257     2.251315485715     0.199596434945     1.007825032230
         H            3.493879694257     1.052641485715    -1.113880565055     1.007825032230
         H            2.315591694257     2.376411485715    -1.069197565055     1.007825032230
         H           -0.240010305743    -2.481562514285    -1.281014565055     1.007825032230

  Basis Set: AUG-CC-PVTZ
    Blend: AUG-CC-PVTZ
  Basis Set: (AUG-CC-PVTZ AUX)
    Blend: AUG-CC-PVTZ-JKFIT
	 Reference Energy          =    -798.3870643369273239 [Eh]
	 Singles Energy            =      -0.0000000000000000 [Eh]
	 Same-Spin Energy          =      -0.4895126078258929 [Eh]
	 Opposite-Spin Energy      =      -1.5379714263722417 [Eh]
	 Correlation Energy        =      -2.0274840341981344 [Eh]
	 Total Energy              =    -800.4145483711254201 [Eh]

	 ================> DF-SCS-MP2 Energies <==================
	-----------------------------------------------------------
	 SCS Same-Spin Scale       =       0.3333333333333333 [-]
	 SCS Opposite-Spin Scale   =       1.2000000000000000 [-]
	 SCS Same-Spin Energy      =      -0.1631708692752976 [Eh]
	 SCS Opposite-Spin Energy  =      -1.8455657116466899 [Eh]
	 SCS Correlation Energy    =      -2.0087365809219877 [Eh]
	 SCS Total Energy          =    -800.3958009178493285 [Eh]
	-----------------------------------------------------------

  Dipole Moment: [D]
     X:    -0.0038      Y:     2.7299      Z:    -1.9539     Total:     3.3571

*** Psi4 exiting successfully. Buy a developer a beer!
