                               Psi4 1.4a3.dev225

  ==> Input File <==

--------------------------------------------------------------------------
#psi4
#
memory 32 gb

molecule  {
0 1
  P       -0.0193980    -0.9573280    -0.1096150
  O        1.2162340    -0.0269160    -0.5415020
  O       -1.1156210     0.0613730     0.5053800
  O        0.5163150    -1.6599550     1.2462920
  O       -0.4960840    -1.8598830    -1.1802340
  C        1.8594549     0.8691450     0.4802787
  C       -1.9139900     0.7949960    -0.4653280
  C        2.8342980     1.7043970    -0.2898420
  C       -2.8451070     1.6924310     0.3153960
  H        1.0624120     1.4376840     0.9337170
  H        2.3223620     0.2121780     1.1993520
  H       -1.2444800     1.3745780    -1.1102950
  H       -2.4582310     0.0769500    -1.0841060
  H        3.3419030     2.3695990     0.4147870
  H        3.5818500     1.0824000    -0.7858930
  H        2.3288000     2.3113610    -1.0437700
  H       -3.4753290     2.2644580    -0.3716610
  H       -3.4879190     1.0956960     0.9656320
  H       -2.2756200     2.3909680     0.9321420
  H        0.1488640    -2.5599310     1.3156750
units angstrom
no_reorient  #important for SAPT in psi4, default
symmetry c1  #important for SAPT in psi4, default
}

set PROPERTIES_ORIGIN ["COM"]
properties('MP2/aug-cc-pvtz', properties = ['dipole'])
--------------------------------------------------------------------------

    Molecular point group: c1
  Charge       = 0
  Multiplicity = 1
  Basis Set: AUG-CC-PVTZ
    Blend: AUG-CC-PVTZ
  Basis Set: (AUG-CC-PVTZ AUX)
    Blend: AUG-CC-PVTZ-JKFIT

    Orbital Energies [Eh]
    ---------------------

    Doubly Occupied:

       1A    -80.101374     2A    -20.603035     3A    -20.588482
       4A    -20.584889     5A    -20.508790     6A    -11.302974
       7A    -11.297755     8A    -11.231811     9A    -11.229142
      10A     -7.616829    11A     -5.515358    12A     -5.514834
      13A     -5.513860    14A     -1.440504    15A     -1.376636
      16A     -1.364422    17A     -1.288799    18A     -1.045762
      19A     -1.034722    20A     -0.871383    21A     -0.865252
      22A     -0.809858    23A     -0.727132    24A     -0.707963
      25A     -0.681317    26A     -0.659638    27A     -0.650036
      28A     -0.616331    29A     -0.598280    30A     -0.575439
      31A     -0.565875    32A     -0.562648    33A     -0.541822
      34A     -0.538966    35A     -0.534048    36A     -0.522570
      37A     -0.505085    38A     -0.485335    39A     -0.477976
      40A     -0.463045    41A     -0.458024

  @DF-RHF Final Energy:  -798.38614823241562

   => Energetics <=

    Nuclear Repulsion Energy =            626.6625749402451220
    One-Electron Energy =               -2344.9414420543976121
    Two-Electron Energy =                 919.8927188817368688
    Total Energy =                       -798.3861482324156214
  Basis Set: (AUG-CC-PVTZ AUX)
    Blend: AUG-CC-PVTZ-RI
    Molecular point group: c1

    Geometry (in Angstrom), charge = 0, multiplicity = 1:

       Center              X                  Y                   Z               Mass
    ------------   -----------------  -----------------  -----------------  -----------------
         P           -0.021938434898    -0.876059790547    -0.102772319529    30.973761998420
         O            1.213693565102     0.054352209453    -0.534659319529    15.994914619570
         O           -1.118161434898     0.142641209453     0.512222680471    15.994914619570
         O            0.513774565102    -1.578686790547     1.253134680471    15.994914619570
         O           -0.498624434898    -1.778614790547    -1.173391319529    15.994914619570
         C            1.856914465102     0.950413209453     0.487121380471    12.000000000000
         C           -1.916530434898     0.876264209453    -0.458485319529    12.000000000000
         C            2.831757565102     1.785665209453    -0.282999319529    12.000000000000
         C           -2.847647434898     1.773699209453     0.322238680471    12.000000000000
         H            1.059871565102     1.518952209453     0.940559680471     1.007825032230
         H            2.319821565102     0.293446209453     1.206194680471     1.007825032230
         H           -1.247020434898     1.455846209453    -1.103452319529     1.007825032230
         H           -2.460771434898     0.158218209453    -1.077263319529     1.007825032230
         H            3.339362565102     2.450867209453     0.421629680471     1.007825032230
         H            3.579309565102     1.163668209453    -0.779050319529     1.007825032230
         H            2.326259565102     2.392629209453    -1.036927319529     1.007825032230
         H           -3.477869434898     2.345726209453    -0.364818319529     1.007825032230
         H           -3.490459434898     1.176964209453     0.972474680471     1.007825032230
         H           -2.278160434898     2.472236209453     0.938984680471     1.007825032230
         H            0.146323565102    -2.478662790547     1.322517680471     1.007825032230

  Basis Set: AUG-CC-PVTZ
    Blend: AUG-CC-PVTZ
  Basis Set: (AUG-CC-PVTZ AUX)
    Blend: AUG-CC-PVTZ-JKFIT
	 Reference Energy          =    -798.3861482324156214 [Eh]
	 Singles Energy            =      -0.0000000000000000 [Eh]
	 Same-Spin Energy          =      -0.4897951767467014 [Eh]
	 Opposite-Spin Energy      =      -1.5385094622711555 [Eh]
	 Correlation Energy        =      -2.0283046390178567 [Eh]
	 Total Energy              =    -800.4144528714334683 [Eh]

	 ================> DF-SCS-MP2 Energies <==================
	-----------------------------------------------------------
	 SCS Same-Spin Scale       =       0.3333333333333333 [-]
	 SCS Opposite-Spin Scale   =       1.2000000000000000 [-]
	 SCS Same-Spin Energy      =      -0.1632650589155671 [Eh]
	 SCS Opposite-Spin Energy  =      -1.8462113547253864 [Eh]
	 SCS Correlation Energy    =      -2.0094764136409538 [Eh]
	 SCS Total Energy          =    -800.3956246460566035 [Eh]
	-----------------------------------------------------------

  Dipole Moment: [D]
     X:     0.3081      Y:     2.8110      Z:     2.1847     Total:     3.5735

*** Psi4 exiting successfully. Buy a developer a beer!
