                               Psi4 1.4a3.dev225

  ==> Input File <==

--------------------------------------------------------------------------
#psi4
#
memory 32 gb

molecule  {
0 1
  P       -0.0193980    -0.9573280    -0.1096150
  O        1.2162340    -0.0269160    -0.5415020
  O       -1.1291720     0.0739657     0.5129823
  O        0.5163150    -1.6599550     1.2462920
  O       -0.4960840    -1.8598830    -1.1802340
  C        1.8380650     0.8393470     0.4463000
  C       -1.9139900     0.7949960    -0.4653280
  C        2.8342980     1.7043970    -0.2898420
  C       -2.8451070     1.6924310     0.3153960
  H        1.0624120     1.4376840     0.9337170
  H        2.3223620     0.2121780     1.1993520
  H       -1.2444800     1.3745780    -1.1102950
  H       -2.4582310     0.0769500    -1.0841060
  H        3.3419030     2.3695990     0.4147870
  H        3.5818500     1.0824000    -0.7858930
  H        2.3288000     2.3113610    -1.0437700
  H       -3.4753290     2.2644580    -0.3716610
  H       -3.4879190     1.0956960     0.9656320
  H       -2.2756200     2.3909680     0.9321420
  H        0.1488640    -2.5599310     1.3156750
units angstrom
no_reorient  #important for SAPT in psi4, default
symmetry c1  #important for SAPT in psi4, default
}

set PROPERTIES_ORIGIN ["COM"]
properties('MP2/aug-cc-pvtz', properties = ['dipole'])
--------------------------------------------------------------------------

    Molecular point group: c1
  Charge       = 0
  Multiplicity = 1
  Basis Set: AUG-CC-PVTZ
    Blend: AUG-CC-PVTZ
  Basis Set: (AUG-CC-PVTZ AUX)
    Blend: AUG-CC-PVTZ-JKFIT

    Orbital Energies [Eh]
    ---------------------

    Doubly Occupied:

       1A    -80.107798     2A    -20.606679     3A    -20.592808
       4A    -20.590281     5A    -20.513611     6A    -11.301411
       7A    -11.296274     8A    -11.230129     9A    -11.227957
      10A     -7.622910    11A     -5.521440    12A     -5.520875
      13A     -5.519927    14A     -1.445281    15A     -1.380188
      16A     -1.376147    17A     -1.293744    18A     -1.041056
      19A     -1.032121    20A     -0.872210    21A     -0.863828
      22A     -0.813790    23A     -0.729454    24A     -0.715033
      25A     -0.682836    26A     -0.657615    27A     -0.652835
      28A     -0.617071    29A     -0.606369    30A     -0.576940
      31A     -0.566537    32A     -0.562703    33A     -0.544978
      34A     -0.538555    35A     -0.534983    36A     -0.518268
      37A     -0.502849    38A     -0.480520    39A     -0.478000
      40A     -0.467149    41A     -0.461677

  @DF-RHF Final Energy:  -798.38709712084517

   => Energetics <=

    Nuclear Repulsion Energy =            627.0411755686354809
    One-Electron Energy =               -2345.5268727150178165
    Two-Electron Energy =                 920.0986000255371664
    Total Energy =                       -798.3870971208451692
  Basis Set: (AUG-CC-PVTZ AUX)
    Blend: AUG-CC-PVTZ-RI
    Molecular point group: c1

    Geometry (in Angstrom), charge = 0, multiplicity = 1:

       Center              X                  Y                   Z               Mass
    ------------   -----------------  -----------------  -----------------  -----------------
         P           -0.018865029046    -0.875046045093    -0.100914703344    30.973761998420
         O            1.216766970954     0.055365954907    -0.532801703344    15.994914619570
         O           -1.128639029046     0.156247654907     0.521682596656    15.994914619570
         O            0.516847970954    -1.577673045093     1.254992296656    15.994914619570
         O           -0.495551029046    -1.777601045093    -1.171533703344    15.994914619570
         C            1.838597970954     0.921628954907     0.455000296656    12.000000000000
         C           -1.913457029046     0.877277954907    -0.456627703344    12.000000000000
         C            2.834830970954     1.786678954907    -0.281141703344    12.000000000000
         C           -2.844574029046     1.774712954907     0.324096296656    12.000000000000
         H            1.062944970954     1.519965954907     0.942417296656     1.007825032230
         H            2.322894970954     0.294459954907     1.208052296656     1.007825032230
         H           -1.243947029046     1.456859954907    -1.101594703344     1.007825032230
         H           -2.457698029046     0.159231954907    -1.075405703344     1.007825032230
         H            3.342435970954     2.451880954907     0.423487296656     1.007825032230
         H            3.582382970954     1.164681954907    -0.777192703344     1.007825032230
         H            2.329332970954     2.393642954907    -1.035069703344     1.007825032230
         H           -3.474796029046     2.346739954907    -0.362960703344     1.007825032230
         H           -3.487386029046     1.177977954907     0.974332296656     1.007825032230
         H           -2.275087029046     2.473249954907     0.940842296656     1.007825032230
         H            0.149396970954    -2.477649045093     1.324375296656     1.007825032230

  Basis Set: AUG-CC-PVTZ
    Blend: AUG-CC-PVTZ
  Basis Set: (AUG-CC-PVTZ AUX)
    Blend: AUG-CC-PVTZ-JKFIT
	 Reference Energy          =    -798.3870971208451692 [Eh]
	 Singles Energy            =      -0.0000000000000000 [Eh]
	 Same-Spin Energy          =      -0.4899583837996709 [Eh]
	 Opposite-Spin Energy      =      -1.5386254758806053 [Eh]
	 Correlation Energy        =      -2.0285838596802761 [Eh]
	 Total Energy              =    -800.4156809805253943 [Eh]

	 ================> DF-SCS-MP2 Energies <==================
	-----------------------------------------------------------
	 SCS Same-Spin Scale       =       0.3333333333333333 [-]
	 SCS Opposite-Spin Scale   =       1.2000000000000000 [-]
	 SCS Same-Spin Energy      =      -0.1633194612665569 [Eh]
	 SCS Opposite-Spin Energy  =      -1.8463505710567263 [Eh]
	 SCS Correlation Energy    =      -2.0096700323232835 [Eh]
	 SCS Total Energy          =    -800.3967671531684118 [Eh]
	-----------------------------------------------------------

  Dipole Moment: [D]
     X:     0.2653      Y:     2.5604      Z:     2.0869     Total:     3.3138

*** Psi4 exiting successfully. Buy a developer a beer!
