                               Psi4 1.3.2 release

  ==> Input File <==

--------------------------------------------------------------------------
#psi4
#
memory 32 gb

molecule  {
0 1
  P       -0.0032580    -0.8671950     0.1253540
  O       -1.2328016     0.1016557     0.5717668
  O        1.1133490     0.0895100    -0.5478160
  O       -0.6066630    -1.5809190    -1.1923580
  O        0.4670770    -1.7625730     1.2055430
  C       -1.7907810     0.9929110    -0.4324270
  C        1.9592910     0.8227470     0.3828140
  C       -2.8068250     1.8392790     0.2947570
  C        2.8879720     1.6796440    -0.4470910
  H       -1.0311750     1.6164911    -0.9167843
  H       -2.2583930     0.3707270    -1.2026260
  H        1.3234980     1.4321860     1.0341110
  H        2.5053500     0.1039360     0.9973890
  H       -3.3001310     2.5165380    -0.4095030
  H       -3.5654280     1.2070220     0.7630240
  H       -2.3198080     2.4333430     1.0748900
  H        3.5555180     2.2520740     0.2062470
  H        3.4947160     1.0534000    -1.1072300
  H        2.3164280     2.3771700    -1.0625470
  H       -0.2391740    -2.4808040    -1.2743640
units angstrom
no_reorient  #important for SAPT in psi4, default
symmetry c1  #important for SAPT in psi4, default
}

set PROPERTIES_ORIGIN ["COM"]
properties('MP2/aug-cc-pvtz', properties = ['dipole'])
--------------------------------------------------------------------------

    Molecular point group: c1
  Charge       = 0
  Multiplicity = 1
  Basis Set: AUG-CC-PVTZ
    Blend: AUG-CC-PVTZ
  Basis Set: (AUG-CC-PVTZ AUX)
    Blend: AUG-CC-PVTZ-JKFIT

    Orbital Energies [Eh]
    ---------------------

    Doubly Occupied:

       1A    -80.107125     2A    -20.605145     3A    -20.594409
       4A    -20.592351     5A    -20.512359     6A    -11.301070
       7A    -11.299024     8A    -11.231728     9A    -11.227835
      10A     -7.622328    11A     -5.520842    12A     -5.520267
      13A     -5.519355    14A     -1.445069    15A     -1.380327
      16A     -1.375095    17A     -1.292435    18A     -1.040983
      19A     -1.033082    20A     -0.873251    21A     -0.861159
      22A     -0.814407    23A     -0.730930    24A     -0.714737
      25A     -0.681131    26A     -0.657560    27A     -0.651831
      28A     -0.620653    29A     -0.602853    30A     -0.576905
      31A     -0.566047    32A     -0.562091    33A     -0.543530
      34A     -0.539546    35A     -0.534405    36A     -0.519001
      37A     -0.504485    38A     -0.481576    39A     -0.478539
      40A     -0.465443    41A     -0.462006

  @DF-RHF Final Energy:  -798.38556728838182

   => Energetics <=

    Nuclear Repulsion Energy =            626.8973959055959995
    One-Electron Energy =               -2345.2400953660603591
    Two-Electron Energy =                 919.9571321720824244
    Total Energy =                       -798.3855672883818215
  Basis Set: (AUG-CC-PVTZ AUX)
    Blend: AUG-CC-PVTZ-RI
    Molecular point group: c1

    Geometry (in Angstrom), charge = 0, multiplicity = 1:

       Center              X                  Y                   Z               Mass
    ------------   -----------------  -----------------  -----------------  -----------------
         P            0.001696319178    -0.865353759604     0.124438231954    30.973761998420
         O           -1.227847280822     0.103496940396     0.570851031954    15.994914619570
         O            1.118303319178     0.091351240396    -0.548731768046    15.994914619570
         O           -0.601708680822    -1.579077759604    -1.193273768046    15.994914619570
         O            0.472031319178    -1.760731759604     1.204627231954    15.994914619570
         C           -1.785826680822     0.994752240396    -0.433342768046    12.000000000000
         C            1.964245319178     0.824588240396     0.381898231954    12.000000000000
         C           -2.801870680822     1.841120240396     0.293841231954    12.000000000000
         C            2.892926319178     1.681485240396    -0.448006768046    12.000000000000
         H           -1.026220680822     1.618332340396    -0.917700068046     1.007825032230
         H           -2.253438680822     0.372568240396    -1.203541768046     1.007825032230
         H            1.328452319178     1.434027240396     1.033195231954     1.007825032230
         H            2.510304319178     0.105777240396     0.996473231954     1.007825032230
         H           -3.295176680822     2.518379240396    -0.410418768046     1.007825032230
         H           -3.560473680822     1.208863240396     0.762108231954     1.007825032230
         H           -2.314853680822     2.435184240396     1.073974231954     1.007825032230
         H            3.560472319178     2.253915240396     0.205331231954     1.007825032230
         H            3.499670319178     1.055241240396    -1.108145768046     1.007825032230
         H            2.321382319178     2.379011240396    -1.063462768046     1.007825032230
         H           -0.234219680822    -2.478962759604    -1.275279768046     1.007825032230

  Basis Set: AUG-CC-PVTZ
    Blend: AUG-CC-PVTZ
  Basis Set: (AUG-CC-PVTZ AUX)
    Blend: AUG-CC-PVTZ-JKFIT
	 Reference Energy          =    -798.3855672883818215 [Eh]
	 Singles Energy            =      -0.0000000000000000 [Eh]
	 Same-Spin Energy          =      -0.4901026196039994 [Eh]
	 Opposite-Spin Energy      =      -1.5390680512996042 [Eh]
	 Correlation Energy        =      -2.0291706709036035 [Eh]
	 Total Energy              =    -800.4147379592853895 [Eh]

	 ================> DF-SCS-MP2 Energies <==================
	-----------------------------------------------------------
	 SCS Same-Spin Scale       =       0.3333333333333333 [-]
	 SCS Opposite-Spin Scale   =       1.2000000000000000 [-]
	 SCS Same-Spin Energy      =      -0.1633675398679998 [Eh]
	 SCS Opposite-Spin Energy  =      -1.8468816615595249 [Eh]
	 SCS Correlation Energy    =      -2.0102492014275248 [Eh]
	 SCS Total Energy          =    -800.3958164898093628 [Eh]
	-----------------------------------------------------------

  Dipole Moment: [D]
     X:     0.1542      Y:     2.6337      Z:    -2.2356     Total:     3.4581

*** Psi4 exiting successfully. Buy a developer a beer!
