                               Psi4 1.3.2 release

  ==> Input File <==

--------------------------------------------------------------------------
#psi4
#
memory 32 gb

molecule  {
0 1
  P       -0.0051362    -0.8574970     0.0991973
  O       -1.1867680     0.1204360     0.5615740
  O        1.1133490     0.0895100    -0.5478160
  O       -0.6066630    -1.5809190    -1.1923580
  O        0.4670770    -1.7625730     1.2055430
  C       -1.7751104     0.9833988    -0.4499747
  C        1.9592910     0.8227470     0.3828140
  C       -2.8068250     1.8392790     0.2947570
  C        2.8879720     1.6796440    -0.4470910
  H       -1.0045510     1.5998440    -0.8949530
  H       -2.2583930     0.3707270    -1.2026260
  H        1.3234980     1.4321860     1.0341110
  H        2.5053500     0.1039360     0.9973890
  H       -3.3001310     2.5165380    -0.4095030
  H       -3.5654280     1.2070220     0.7630240
  H       -2.3198080     2.4333430     1.0748900
  H        3.5555180     2.2520740     0.2062470
  H        3.4947160     1.0534000    -1.1072300
  H        2.3164280     2.3771700    -1.0625470
  H       -0.2391740    -2.4808040    -1.2743640
units angstrom
no_reorient  #important for SAPT in psi4, default
symmetry c1  #important for SAPT in psi4, default
}

set PROPERTIES_ORIGIN ["COM"]
properties('MP2/aug-cc-pvtz', properties = ['dipole'])
--------------------------------------------------------------------------

    Molecular point group: c1
  Charge       = 0
  Multiplicity = 1
  Basis Set: AUG-CC-PVTZ
    Blend: AUG-CC-PVTZ
  Basis Set: (AUG-CC-PVTZ AUX)
    Blend: AUG-CC-PVTZ-JKFIT

    Orbital Energies [Eh]
    ---------------------

    Doubly Occupied:

       1A    -80.104414     2A    -20.608662     3A    -20.593014
       4A    -20.592423     5A    -20.505089     6A    -11.301072
       7A    -11.300653     8A    -11.231616     9A    -11.230792
      10A     -7.619844    11A     -5.518460    12A     -5.517940
      13A     -5.516658    14A     -1.452087    15A     -1.386215
      16A     -1.380549    17A     -1.275400    18A     -1.041272
      19A     -1.031646    20A     -0.875563    21A     -0.866384
      22A     -0.817640    23A     -0.736544    24A     -0.717200
      25A     -0.684768    26A     -0.661801    27A     -0.653447
      28A     -0.621281    29A     -0.605415    30A     -0.579599
      31A     -0.562653    32A     -0.561678    33A     -0.543446
      34A     -0.541541    35A     -0.535383    36A     -0.517383
      37A     -0.502715    38A     -0.485249    39A     -0.480986
      40A     -0.455339    41A     -0.451966

  @DF-RHF Final Energy:  -798.38692352838245

   => Energetics <=

    Nuclear Repulsion Energy =            628.4845993522170602
    One-Electron Energy =               -2348.4114699043257133
    Two-Electron Energy =                 921.5399470237260857
    Total Energy =                       -798.3869235283824537
  Basis Set: (AUG-CC-PVTZ AUX)
    Blend: AUG-CC-PVTZ-RI
    Molecular point group: c1

    Geometry (in Angstrom), charge = 0, multiplicity = 1:

       Center              X                  Y                   Z               Mass
    ------------   -----------------  -----------------  -----------------  -----------------
         P           -0.005979148014    -0.858705945352     0.105823588809    30.973761998420
         O           -1.187610948014     0.119227054648     0.568200288809    15.994914619570
         O            1.112506051986     0.088301054648    -0.541189711191    15.994914619570
         O           -0.607505948014    -1.582127945352    -1.185731711191    15.994914619570
         O            0.466234051986    -1.763781945352     1.212169288809    15.994914619570
         C           -1.775953348014     0.982189854648    -0.443348411191    12.000000000000
         C            1.958448051986     0.821538054648     0.389440288809    12.000000000000
         C           -2.807667948014     1.838070054648     0.301383288809    12.000000000000
         C            2.887129051986     1.678435054648    -0.440464711191    12.000000000000
         H           -1.005393948014     1.598635054648    -0.888326711191     1.007825032230
         H           -2.259235948014     0.369518054648    -1.195999711191     1.007825032230
         H            1.322655051986     1.430977054648     1.040737288809     1.007825032230
         H            2.504507051986     0.102727054648     1.004015288809     1.007825032230
         H           -3.300973948014     2.515329054648    -0.402876711191     1.007825032230
         H           -3.566270948014     1.205813054648     0.769650288809     1.007825032230
         H           -2.320650948014     2.432134054648     1.081516288809     1.007825032230
         H            3.554675051986     2.250865054648     0.212873288809     1.007825032230
         H            3.493873051986     1.052191054648    -1.100603711191     1.007825032230
         H            2.315585051986     2.375961054648    -1.055920711191     1.007825032230
         H           -0.240016948014    -2.482012945352    -1.267737711191     1.007825032230

  Basis Set: AUG-CC-PVTZ
    Blend: AUG-CC-PVTZ
  Basis Set: (AUG-CC-PVTZ AUX)
    Blend: AUG-CC-PVTZ-JKFIT
	 Reference Energy          =    -798.3869235283824537 [Eh]
	 Singles Energy            =      -0.0000000000000000 [Eh]
	 Same-Spin Energy          =      -0.4897941663596512 [Eh]
	 Opposite-Spin Energy      =      -1.5380785083457860 [Eh]
	 Correlation Energy        =      -2.0278726747054372 [Eh]
	 Total Energy              =    -800.4147962030879171 [Eh]

	 ================> DF-SCS-MP2 Energies <==================
	-----------------------------------------------------------
	 SCS Same-Spin Scale       =       0.3333333333333333 [-]
	 SCS Opposite-Spin Scale   =       1.2000000000000000 [-]
	 SCS Same-Spin Energy      =      -0.1632647221198837 [Eh]
	 SCS Opposite-Spin Energy  =      -1.8456942100149432 [Eh]
	 SCS Correlation Energy    =      -2.0089589321348269 [Eh]
	 SCS Total Energy          =    -800.3958824605173277 [Eh]
	-----------------------------------------------------------

  Dipole Moment: [D]
     X:    -0.0284      Y:     2.7423      Z:    -2.4666     Total:     3.6886

*** Psi4 exiting successfully. Buy a developer a beer!
