                               Psi4 1.3.2 release

  ==> Input File <==

--------------------------------------------------------------------------
#psi4
#
memory 32 gb

molecule  {
0 1
  P       -0.0032580    -0.8671950     0.1253540
  O       -1.1870667     0.1310978     0.5357286
  O        1.1133490     0.0895100    -0.5478160
  O       -0.6066630    -1.5809190    -1.1923580
  O        0.4842342    -1.7728794     1.1892206
  C       -1.7907810     0.9929110    -0.4324270
  C        1.9592910     0.8227470     0.3828140
  C       -2.8068250     1.8392790     0.2947570
  C        2.8879720     1.6796440    -0.4470910
  H       -1.0045510     1.5998440    -0.8949530
  H       -2.2583930     0.3707270    -1.2026260
  H        1.3234980     1.4321860     1.0341110
  H        2.5053500     0.1039360     0.9973890
  H       -3.3001310     2.5165380    -0.4095030
  H       -3.5654280     1.2070220     0.7630240
  H       -2.3198080     2.4333430     1.0748900
  H        3.5555180     2.2520740     0.2062470
  H        3.4947160     1.0534000    -1.1072300
  H        2.3164280     2.3771700    -1.0625470
  H       -0.2391740    -2.4808040    -1.2743640
units angstrom
no_reorient  #important for SAPT in psi4, default
symmetry c1  #important for SAPT in psi4, default
}

set PROPERTIES_ORIGIN ["COM"]
properties('MP2/aug-cc-pvtz', properties = ['dipole'])
--------------------------------------------------------------------------

    Molecular point group: c1
  Charge       = 0
  Multiplicity = 1
  Basis Set: AUG-CC-PVTZ
    Blend: AUG-CC-PVTZ
  Basis Set: (AUG-CC-PVTZ AUX)
    Blend: AUG-CC-PVTZ-JKFIT

    Orbital Energies [Eh]
    ---------------------

    Doubly Occupied:

       1A    -80.105714     2A    -20.603936     3A    -20.591585
       4A    -20.589409     5A    -20.513690     6A    -11.299131
       7A    -11.299091     8A    -11.230249     9A    -11.229218
      10A     -7.621210    11A     -5.519802    12A     -5.519271
      13A     -5.518169    14A     -1.449262    15A     -1.382874
      16A     -1.377677    17A     -1.293605    18A     -1.041800
      19A     -1.033120    20A     -0.874865    21A     -0.864709
      22A     -0.813003    23A     -0.731684    24A     -0.717433
      25A     -0.683202    26A     -0.659094    27A     -0.652008
      28A     -0.619142    29A     -0.608693    30A     -0.576402
      31A     -0.565679    32A     -0.562861    33A     -0.545919
      34A     -0.539312    35A     -0.534358    36A     -0.518637
      37A     -0.502230    38A     -0.480477    39A     -0.477010
      40A     -0.467486    41A     -0.461917

  @DF-RHF Final Energy:  -798.38904450525968

   => Energetics <=

    Nuclear Repulsion Energy =            628.5721168429770387
    One-Electron Energy =               -2348.5724589870610544
    Two-Electron Energy =                 921.6112976388243396
    Total Energy =                       -798.3890445052596760
  Basis Set: (AUG-CC-PVTZ AUX)
    Blend: AUG-CC-PVTZ-RI
    Molecular point group: c1

    Geometry (in Angstrom), charge = 0, multiplicity = 1:

       Center              X                  Y                   Z               Mass
    ------------   -----------------  -----------------  -----------------  -----------------
         P           -0.005008364564    -0.867231826797     0.129732336504    30.973761998420
         O           -1.188817064564     0.131060973203     0.540106936504    15.994914619570
         O            1.111598635436     0.089473173203    -0.543437663496    15.994914619570
         O           -0.608413364564    -1.580955826797    -1.187979663496    15.994914619570
         O            0.482483835436    -1.772916226797     1.193598936504    15.994914619570
         C           -1.792531364564     0.992874173203    -0.428048663496    12.000000000000
         C            1.957540635436     0.822710173203     0.387192336504    12.000000000000
         C           -2.808575364564     1.839242173203     0.299135336504    12.000000000000
         C            2.886221635436     1.679607173203    -0.442712663496    12.000000000000
         H           -1.006301364564     1.599807173203    -0.890574663496     1.007825032230
         H           -2.260143364564     0.370690173203    -1.198247663496     1.007825032230
         H            1.321747635436     1.432149173203     1.038489336504     1.007825032230
         H            2.503599635436     0.103899173203     1.001767336504     1.007825032230
         H           -3.301881364564     2.516501173203    -0.405124663496     1.007825032230
         H           -3.567178364564     1.206985173203     0.767402336504     1.007825032230
         H           -2.321558364564     2.433306173203     1.079268336504     1.007825032230
         H            3.553767635436     2.252037173203     0.210625336504     1.007825032230
         H            3.492965635436     1.053363173203    -1.102851663496     1.007825032230
         H            2.314677635436     2.377133173203    -1.058168663496     1.007825032230
         H           -0.240924364564    -2.480840826797    -1.269985663496     1.007825032230

  Basis Set: AUG-CC-PVTZ
    Blend: AUG-CC-PVTZ
  Basis Set: (AUG-CC-PVTZ AUX)
    Blend: AUG-CC-PVTZ-JKFIT
	 Reference Energy          =    -798.3890445052596760 [Eh]
	 Singles Energy            =      -0.0000000000000000 [Eh]
	 Same-Spin Energy          =      -0.4896307391643955 [Eh]
	 Opposite-Spin Energy      =      -1.5374749302728734 [Eh]
	 Correlation Energy        =      -2.0271056694372689 [Eh]
	 Total Energy              =    -800.4161501746968952 [Eh]

	 ================> DF-SCS-MP2 Energies <==================
	-----------------------------------------------------------
	 SCS Same-Spin Scale       =       0.3333333333333333 [-]
	 SCS Opposite-Spin Scale   =       1.2000000000000000 [-]
	 SCS Same-Spin Energy      =      -0.1632102463881318 [Eh]
	 SCS Opposite-Spin Energy  =      -1.8449699163274480 [Eh]
	 SCS Correlation Energy    =      -2.0081801627155800 [Eh]
	 SCS Total Energy          =    -800.3972246679752516 [Eh]
	-----------------------------------------------------------

  Dipole Moment: [D]
     X:    -0.0671      Y:     2.5958      Z:    -2.0886     Total:     3.3324

*** Psi4 exiting successfully. Buy a developer a beer!
