                               Psi4 1.3.2 release

  ==> Input File <==

--------------------------------------------------------------------------
#psi4
#
memory 32 gb

molecule  {
0 1
  P        0.0116743    -0.8904776     0.1308254
  O       -1.1867680     0.1204360     0.5615740
  O        1.1133490     0.0895100    -0.5478160
  O       -0.6066630    -1.5809190    -1.1923580
  O        0.4670770    -1.7625730     1.2055430
  C       -1.7907810     0.9929110    -0.4324270
  C        1.9592910     0.8227470     0.3828140
  C       -2.8068250     1.8392790     0.2947570
  C        2.8879720     1.6796440    -0.4470910
  H       -1.0045510     1.5998440    -0.8949530
  H       -2.2583930     0.3707270    -1.2026260
  H        1.3234980     1.4321860     1.0341110
  H        2.5053500     0.1039360     0.9973890
  H       -3.3001310     2.5165380    -0.4095030
  H       -3.5654280     1.2070220     0.7630240
  H       -2.3198080     2.4333430     1.0748900
  H        3.5555180     2.2520740     0.2062470
  H        3.4947160     1.0534000    -1.1072300
  H        2.3164280     2.3771700    -1.0625470
  H       -0.2301966    -2.4782748    -1.2601209
units angstrom
no_reorient  #important for SAPT in psi4, default
symmetry c1  #important for SAPT in psi4, default
}

set PROPERTIES_ORIGIN ["COM"]
properties('MP2/aug-cc-pvtz', properties = ['dipole'])
--------------------------------------------------------------------------

    Molecular point group: c1
  Charge       = 0
  Multiplicity = 1
  Basis Set: AUG-CC-PVTZ
    Blend: AUG-CC-PVTZ
  Basis Set: (AUG-CC-PVTZ AUX)
    Blend: AUG-CC-PVTZ-JKFIT

    Orbital Energies [Eh]
    ---------------------

    Doubly Occupied:

       1A    -80.103887     2A    -20.607276     3A    -20.590004
       4A    -20.585109     5A    -20.517081     6A    -11.298872
       7A    -11.297329     8A    -11.230237     9A    -11.227373
      10A     -7.620008    11A     -5.518471    12A     -5.517889
      13A     -5.517174    14A     -1.444963    15A     -1.379366
      16A     -1.369662    17A     -1.306267    18A     -1.039205
      19A     -1.031042    20A     -0.871359    21A     -0.860207
      22A     -0.810701    23A     -0.728617    24A     -0.710430
      25A     -0.680654    26A     -0.658356    27A     -0.652229
      28A     -0.618929    29A     -0.600409    30A     -0.577350
      31A     -0.569914    32A     -0.561018    33A     -0.544046
      34A     -0.537993    35A     -0.533666    36A     -0.518531
      37A     -0.502420    38A     -0.480062    39A     -0.476945
      40A     -0.473053    41A     -0.466773

  @DF-RHF Final Energy:  -798.38735714065376

   => Energetics <=

    Nuclear Repulsion Energy =            627.7170061258780152
    One-Electron Energy =               -2346.9389693813882332
    Two-Electron Energy =                 920.8346061148564559
    Total Energy =                       -798.3873571406537621
  Basis Set: (AUG-CC-PVTZ AUX)
    Blend: AUG-CC-PVTZ-RI
    Molecular point group: c1

    Geometry (in Angstrom), charge = 0, multiplicity = 1:

       Center              X                  Y                   Z               Mass
    ------------   -----------------  -----------------  -----------------  -----------------
         P            0.008613187919    -0.885812481307     0.129631822949    30.973761998420
         O           -1.189829112081     0.125101118693     0.560380422949    15.994914619570
         O            1.110287887919     0.094175118693    -0.549009577051    15.994914619570
         O           -0.609724112081    -1.576253881307    -1.193551577051    15.994914619570
         O            0.464015887919    -1.757907881307     1.204349422949    15.994914619570
         C           -1.793842112081     0.997576118693    -0.433620577051    12.000000000000
         C            1.956229887919     0.827412118693     0.381620422949    12.000000000000
         C           -2.809886112081     1.843944118693     0.293563422949    12.000000000000
         C            2.884910887919     1.684309118693    -0.448284577051    12.000000000000
         H           -1.007612112081     1.604509118693    -0.896146577051     1.007825032230
         H           -2.261454112081     0.375392118693    -1.203819577051     1.007825032230
         H            1.320436887919     1.436851118693     1.032917422949     1.007825032230
         H            2.502288887919     0.108601118693     0.996195422949     1.007825032230
         H           -3.303192112081     2.521203118693    -0.410696577051     1.007825032230
         H           -3.568489112081     1.211687118693     0.761830422949     1.007825032230
         H           -2.322869112081     2.438008118693     1.073696422949     1.007825032230
         H            3.552456887919     2.256739118693     0.205053422949     1.007825032230
         H            3.491654887919     1.058065118693    -1.108423577051     1.007825032230
         H            2.313366887919     2.381835118693    -1.063740577051     1.007825032230
         H           -0.233257712081    -2.473609681307    -1.261314477051     1.007825032230

  Basis Set: AUG-CC-PVTZ
    Blend: AUG-CC-PVTZ
  Basis Set: (AUG-CC-PVTZ AUX)
    Blend: AUG-CC-PVTZ-JKFIT
	 Reference Energy          =    -798.3873571406537621 [Eh]
	 Singles Energy            =      -0.0000000000000000 [Eh]
	 Same-Spin Energy          =      -0.4896246372105159 [Eh]
	 Opposite-Spin Energy      =      -1.5380008486544612 [Eh]
	 Correlation Energy        =      -2.0276254858649772 [Eh]
	 Total Energy              =    -800.4149826265187357 [Eh]

	 ================> DF-SCS-MP2 Energies <==================
	-----------------------------------------------------------
	 SCS Same-Spin Scale       =       0.3333333333333333 [-]
	 SCS Opposite-Spin Scale   =       1.2000000000000000 [-]
	 SCS Same-Spin Energy      =      -0.1632082124035053 [Eh]
	 SCS Opposite-Spin Energy  =      -1.8456010183853533 [Eh]
	 SCS Correlation Energy    =      -2.0088092307888585 [Eh]
	 SCS Total Energy          =    -800.3961663714426322 [Eh]
	-----------------------------------------------------------

  Dipole Moment: [D]
     X:     0.1345      Y:     2.3755      Z:    -2.1184     Total:     3.1857

*** Psi4 exiting successfully. Buy a developer a beer!
