                               Psi4 1.4a3.dev225

  ==> Input File <==

--------------------------------------------------------------------------
#psi4
#
memory 32 gb

molecule  {
0 1
  P       -0.0193980    -0.9573280    -0.1096150
  O        1.2162340    -0.0269160    -0.5415020
  O       -1.1156210     0.0613730     0.5053800
  O        0.5163150    -1.6599550     1.2462920
  O       -0.4960840    -1.8598830    -1.1802340
  C        1.8380650     0.8393470     0.4463000
  C       -1.9414199     0.8202014    -0.4986790
  C        2.8342980     1.7043970    -0.2898420
  C       -2.8451070     1.6924310     0.3153960
  H        1.0624120     1.4376840     0.9337170
  H        2.3223620     0.2121780     1.1993520
  H       -1.2444800     1.3745780    -1.1102950
  H       -2.4582310     0.0769500    -1.0841060
  H        3.3419030     2.3695990     0.4147870
  H        3.5818500     1.0824000    -0.7858930
  H        2.3288000     2.3113610    -1.0437700
  H       -3.4753290     2.2644580    -0.3716610
  H       -3.4879190     1.0956960     0.9656320
  H       -2.2756200     2.3909680     0.9321420
  H        0.1488640    -2.5599310     1.3156750
units angstrom
no_reorient  #important for SAPT in psi4, default
symmetry c1  #important for SAPT in psi4, default
}

set PROPERTIES_ORIGIN ["COM"]
properties('MP2/aug-cc-pvtz', properties = ['dipole'])
--------------------------------------------------------------------------

    Molecular point group: c1
  Charge       = 0
  Multiplicity = 1
  Basis Set: AUG-CC-PVTZ
    Blend: AUG-CC-PVTZ
  Basis Set: (AUG-CC-PVTZ AUX)
    Blend: AUG-CC-PVTZ-JKFIT

    Orbital Energies [Eh]
    ---------------------

    Doubly Occupied:

       1A    -80.101532     2A    -20.602373     3A    -20.588969
       4A    -20.584454     5A    -20.509228     6A    -11.301101
       7A    -11.299361     8A    -11.231886     9A    -11.228882
      10A     -7.616967    11A     -5.515516    12A     -5.514945
      13A     -5.514018    14A     -1.440655    15A     -1.376301
      16A     -1.363900    17A     -1.289253    18A     -1.044986
      19A     -1.035370    20A     -0.871814    21A     -0.863883
      22A     -0.811762    23A     -0.723488    24A     -0.710888
      25A     -0.681657    26A     -0.656680    27A     -0.651188
      28A     -0.611913    29A     -0.603584    30A     -0.575880
      31A     -0.565061    32A     -0.562460    33A     -0.545136
      34A     -0.536938    35A     -0.530784    36A     -0.522946
      37A     -0.504912    38A     -0.485343    39A     -0.477700
      40A     -0.464189    41A     -0.458495

  @DF-RHF Final Energy:  -798.38616820824382

   => Energetics <=

    Nuclear Repulsion Energy =            626.6434575515902452
    One-Electron Energy =               -2344.9064478446953217
    Two-Electron Energy =                 919.8768220848612600
    Total Energy =                       -798.3861682082438165
  Basis Set: (AUG-CC-PVTZ AUX)
    Blend: AUG-CC-PVTZ-RI
    Molecular point group: c1

    Geometry (in Angstrom), charge = 0, multiplicity = 1:

       Center              X                  Y                   Z               Mass
    ------------   -----------------  -----------------  -----------------  -----------------
         P           -0.018135270023    -0.875702017369    -0.097527194598    30.973761998420
         O            1.217496729977     0.054709982631    -0.529414194598    15.994914619570
         O           -1.114358270023     0.142998982631     0.517467805402    15.994914619570
         O            0.517577729977    -1.578329017369     1.258379805402    15.994914619570
         O           -0.494821270023    -1.778257017369    -1.168146194598    15.994914619570
         C            1.839327729977     0.920972982631     0.458387805402    12.000000000000
         C           -1.940157170023     0.901827382631    -0.486591194598    12.000000000000
         C            2.835560729977     1.786022982631    -0.277754194598    12.000000000000
         C           -2.843844270023     1.774056982631     0.327483805402    12.000000000000
         H            1.063674729977     1.519309982631     0.945804805402     1.007825032230
         H            2.323624729977     0.293803982631     1.211439805402     1.007825032230
         H           -1.243217270023     1.456203982631    -1.098207194598     1.007825032230
         H           -2.456968270023     0.158575982631    -1.072018194598     1.007825032230
         H            3.343165729977     2.451224982631     0.426874805402     1.007825032230
         H            3.583112729977     1.164025982631    -0.773805194598     1.007825032230
         H            2.330062729977     2.392986982631    -1.031682194598     1.007825032230
         H           -3.474066270023     2.346083982631    -0.359573194598     1.007825032230
         H           -3.486656270023     1.177321982631     0.977719805402     1.007825032230
         H           -2.274357270023     2.472593982631     0.944229805402     1.007825032230
         H            0.150126729977    -2.478305017369     1.327762805402     1.007825032230

  Basis Set: AUG-CC-PVTZ
    Blend: AUG-CC-PVTZ
  Basis Set: (AUG-CC-PVTZ AUX)
    Blend: AUG-CC-PVTZ-JKFIT
	 Reference Energy          =    -798.3861682082438165 [Eh]
	 Singles Energy            =      -0.0000000000000000 [Eh]
	 Same-Spin Energy          =      -0.4897994501003193 [Eh]
	 Opposite-Spin Energy      =      -1.5385099287903650 [Eh]
	 Correlation Energy        =      -2.0283093788906843 [Eh]
	 Total Energy              =    -800.4144775871344564 [Eh]

	 ================> DF-SCS-MP2 Energies <==================
	-----------------------------------------------------------
	 SCS Same-Spin Scale       =       0.3333333333333333 [-]
	 SCS Opposite-Spin Scale   =       1.2000000000000000 [-]
	 SCS Same-Spin Energy      =      -0.1632664833667731 [Eh]
	 SCS Opposite-Spin Energy  =      -1.8462119145484379 [Eh]
	 SCS Correlation Energy    =      -2.0094783979152111 [Eh]
	 SCS Total Energy          =    -800.3956466061590618 [Eh]
	-----------------------------------------------------------

  Dipole Moment: [D]
     X:    -0.0399      Y:     2.8038      Z:     2.0243     Total:     3.4584

*** Psi4 exiting successfully. Buy a developer a beer!
