                               Psi4 1.3.2 release

  ==> Input File <==

--------------------------------------------------------------------------
#psi4
#
memory 32 gb

molecule  {
0 1
  P       -0.0032580    -0.8671950     0.1253540
  O       -1.1640237     0.1302263     0.5560226
  O        1.1133490     0.0895100    -0.5478160
  O       -0.6066630    -1.5809190    -1.1923580
  O        0.4670770    -1.7625730     1.2055430
  C       -1.7907810     0.9929110    -0.4324270
  C        1.9592910     0.8227470     0.3828140
  C       -2.8068250     1.8392790     0.2947570
  C        2.8879720     1.6796440    -0.4470910
  H       -0.9915963     1.5912418    -0.8838243
  H       -2.2583930     0.3707270    -1.2026260
  H        1.3234980     1.4321860     1.0341110
  H        2.5053500     0.1039360     0.9973890
  H       -3.3001310     2.5165380    -0.4095030
  H       -3.5654280     1.2070220     0.7630240
  H       -2.3198080     2.4333430     1.0748900
  H        3.5555180     2.2520740     0.2062470
  H        3.4947160     1.0534000    -1.1072300
  H        2.3164280     2.3771700    -1.0625470
  H       -0.2391740    -2.4808040    -1.2743640
units angstrom
no_reorient  #important for SAPT in psi4, default
symmetry c1  #important for SAPT in psi4, default
}

set PROPERTIES_ORIGIN ["COM"]
properties('MP2/aug-cc-pvtz', properties = ['dipole'])
--------------------------------------------------------------------------

    Molecular point group: c1
  Charge       = 0
  Multiplicity = 1
  Basis Set: AUG-CC-PVTZ
    Blend: AUG-CC-PVTZ
  Basis Set: (AUG-CC-PVTZ AUX)
    Blend: AUG-CC-PVTZ-JKFIT

    Orbital Energies [Eh]
    ---------------------

    Doubly Occupied:

       1A    -80.102586     2A    -20.604555     3A    -20.590511
       4A    -20.588315     5A    -20.510330     6A    -11.302471
       7A    -11.298297     8A    -11.231030     9A    -11.229817
      10A     -7.618426    11A     -5.516985    12A     -5.516487
      13A     -5.515399    14A     -1.448201    15A     -1.380472
      16A     -1.376332    17A     -1.290680    18A     -1.042479
      19A     -1.033497    20A     -0.873603    21A     -0.864831
      22A     -0.812343    23A     -0.731101    24A     -0.715226
      25A     -0.683028    26A     -0.658096    27A     -0.651245
      28A     -0.618103    29A     -0.606694    30A     -0.576671
      31A     -0.565372    32A     -0.562377    33A     -0.545669
      34A     -0.539007    35A     -0.534041    36A     -0.519960
      37A     -0.503595    38A     -0.480934    39A     -0.478939
      40A     -0.464962    41A     -0.459435

  @DF-RHF Final Energy:  -798.38938680643412

   => Energetics <=

    Nuclear Repulsion Energy =            628.7121193212368553
    One-Electron Energy =               -2348.9188081540614803
    Two-Electron Energy =                 921.8173020263903936
    Total Energy =                       -798.3893868064341177
  Basis Set: (AUG-CC-PVTZ AUX)
    Blend: AUG-CC-PVTZ-RI
    Molecular point group: c1

    Geometry (in Angstrom), charge = 0, multiplicity = 1:

       Center              X                  Y                   Z               Mass
    ------------   -----------------  -----------------  -----------------  -----------------
         P           -0.005704283094    -0.868155232231     0.125857408383    30.973761998420
         O           -1.166469983094     0.129266067769     0.556526008383    15.994914619570
         O            1.110902716906     0.088549767769    -0.547312591617    15.994914619570
         O           -0.609109283094    -1.581879232231    -1.191854591617    15.994914619570
         O            0.464630716906    -1.763533232231     1.206046408383    15.994914619570
         C           -1.793227283094     0.991950767769    -0.431923591617    12.000000000000
         C            1.956844716906     0.821786767769     0.383317408383    12.000000000000
         C           -2.809271283094     1.838318767769     0.295260408383    12.000000000000
         C            2.885525716906     1.678683767769    -0.446587591617    12.000000000000
         H           -0.994042583094     1.590281567769    -0.883320891617     1.007825032230
         H           -2.260839283094     0.369766767769    -1.202122591617     1.007825032230
         H            1.321051716906     1.431225767769     1.034614408383     1.007825032230
         H            2.502903716906     0.102975767769     0.997892408383     1.007825032230
         H           -3.302577283094     2.515577767769    -0.408999591617     1.007825032230
         H           -3.567874283094     1.206061767769     0.763527408383     1.007825032230
         H           -2.322254283094     2.432382767769     1.075393408383     1.007825032230
         H            3.553071716906     2.251113767769     0.206750408383     1.007825032230
         H            3.492269716906     1.052439767769    -1.106726591617     1.007825032230
         H            2.313981716906     2.376209767769    -1.062043591617     1.007825032230
         H           -0.241620283094    -2.481764232231    -1.273860591617     1.007825032230

  Basis Set: AUG-CC-PVTZ
    Blend: AUG-CC-PVTZ
  Basis Set: (AUG-CC-PVTZ AUX)
    Blend: AUG-CC-PVTZ-JKFIT
	 Reference Energy          =    -798.3893868064341177 [Eh]
	 Singles Energy            =      -0.0000000000000000 [Eh]
	 Same-Spin Energy          =      -0.4895452668716255 [Eh]
	 Opposite-Spin Energy      =      -1.5374856657287594 [Eh]
	 Correlation Energy        =      -2.0270309326003848 [Eh]
	 Total Energy              =    -800.4164177390345003 [Eh]

	 ================> DF-SCS-MP2 Energies <==================
	-----------------------------------------------------------
	 SCS Same-Spin Scale       =       0.3333333333333333 [-]
	 SCS Opposite-Spin Scale   =       1.2000000000000000 [-]
	 SCS Same-Spin Energy      =      -0.1631817556238752 [Eh]
	 SCS Opposite-Spin Energy  =      -1.8449827988745113 [Eh]
	 SCS Correlation Energy    =      -2.0081645544983866 [Eh]
	 SCS Total Energy          =    -800.3975513609325390 [Eh]
	-----------------------------------------------------------

  Dipole Moment: [D]
     X:    -0.1704      Y:     2.6538      Z:    -2.1995     Total:     3.4511

*** Psi4 exiting successfully. Buy a developer a beer!
