                               Psi4 1.3.2 release

  ==> Input File <==

--------------------------------------------------------------------------
#psi4
#
memory 32 gb

molecule  {
0 1
  P       -0.0032580    -0.8671950     0.1253540
  O       -1.2316112     0.1525099     0.6140612
  O        1.1133490     0.0895100    -0.5478160
  O       -0.6066630    -1.5809190    -1.1923580
  O        0.4670770    -1.7625730     1.2055430
  C       -1.7907810     0.9929110    -0.4324270
  C        1.9592910     0.8227470     0.3828140
  C       -2.7871029     1.8019083     0.3615169
  C        2.8879720     1.6796440    -0.4470910
  H       -1.0045510     1.5998440    -0.8949530
  H       -2.2583930     0.3707270    -1.2026260
  H        1.3234980     1.4321860     1.0341110
  H        2.5053500     0.1039360     0.9973890
  H       -3.3001310     2.5165380    -0.4095030
  H       -3.5654280     1.2070220     0.7630240
  H       -2.3198080     2.4333430     1.0748900
  H        3.5555180     2.2520740     0.2062470
  H        3.4947160     1.0534000    -1.1072300
  H        2.3164280     2.3771700    -1.0625470
  H       -0.2391740    -2.4808040    -1.2743640
units angstrom
no_reorient  #important for SAPT in psi4, default
symmetry c1  #important for SAPT in psi4, default
}

set PROPERTIES_ORIGIN ["COM"]
properties('MP2/aug-cc-pvtz', properties = ['dipole'])
--------------------------------------------------------------------------

    Molecular point group: c1
  Charge       = 0
  Multiplicity = 1
  Basis Set: AUG-CC-PVTZ
    Blend: AUG-CC-PVTZ
  Basis Set: (AUG-CC-PVTZ AUX)
    Blend: AUG-CC-PVTZ-JKFIT

    Orbital Energies [Eh]
    ---------------------

    Doubly Occupied:

       1A    -80.110844     2A    -20.610161     3A    -20.595996
       4A    -20.590723     5A    -20.513948     6A    -11.301477
       7A    -11.296743     8A    -11.232095     9A    -11.226657
      10A     -7.625564    11A     -5.524015    12A     -5.523382
      13A     -5.522605    14A     -1.443290    15A     -1.383037
      16A     -1.369906    17A     -1.293915    18A     -1.040440
      19A     -1.028805    20A     -0.873438    21A     -0.858353
      22A     -0.816477    23A     -0.731090    24A     -0.710542
      25A     -0.681998    26A     -0.661475    27A     -0.653979
      28A     -0.620993    29A     -0.599011    30A     -0.579344
      31A     -0.566382    32A     -0.561252    33A     -0.545834
      34A     -0.538945    35A     -0.527539    36A     -0.513575
      37A     -0.506750    38A     -0.480207    39A     -0.478859
      40A     -0.465702    41A     -0.460966

  @DF-RHF Final Energy:  -798.37270485355452

   => Energetics <=

    Nuclear Repulsion Energy =            626.1446033708987216
    One-Electron Energy =               -2343.7019893054816748
    Two-Electron Energy =                 919.1846810810284296
    Total Energy =                       -798.3727048535545237
  Basis Set: (AUG-CC-PVTZ AUX)
    Blend: AUG-CC-PVTZ-RI
    Molecular point group: c1

    Geometry (in Angstrom), charge = 0, multiplicity = 1:

       Center              X                  Y                   Z               Mass
    ------------   -----------------  -----------------  -----------------  -----------------
         P           -0.000137871972    -0.867614107322     0.114702960883    30.973761998420
         O           -1.228491071972     0.152090792678     0.603410160883    15.994914619570
         O            1.116469128028     0.089090892678    -0.558467039117    15.994914619570
         O           -0.603542871972    -1.581338107322    -1.203009039117    15.994914619570
         O            0.470197128028    -1.762992107322     1.194891960883    15.994914619570
         C           -1.787660871972     0.992491892678    -0.443078039117    12.000000000000
         C            1.962411128028     0.822327892678     0.372162960883    12.000000000000
         C           -2.783982771972     1.801489192678     0.350865860883    12.000000000000
         C            2.891092128028     1.679224892678    -0.457742039117    12.000000000000
         H           -1.001430871972     1.599424892678    -0.905604039117     1.007825032230
         H           -2.255272871972     0.370307892678    -1.213277039117     1.007825032230
         H            1.326618128028     1.431766892678     1.023459960883     1.007825032230
         H            2.508470128028     0.103516892678     0.986737960883     1.007825032230
         H           -3.297010871972     2.516118892678    -0.420154039117     1.007825032230
         H           -3.562307871972     1.206602892678     0.752372960883     1.007825032230
         H           -2.316687871972     2.432923892678     1.064238960883     1.007825032230
         H            3.558638128028     2.251654892678     0.195595960883     1.007825032230
         H            3.497836128028     1.052980892678    -1.117881039117     1.007825032230
         H            2.319548128028     2.376750892678    -1.073198039117     1.007825032230
         H           -0.236053871972    -2.481223107322    -1.285015039117     1.007825032230

  Basis Set: AUG-CC-PVTZ
    Blend: AUG-CC-PVTZ
  Basis Set: (AUG-CC-PVTZ AUX)
    Blend: AUG-CC-PVTZ-JKFIT
	 Reference Energy          =    -798.3727048535545237 [Eh]
	 Singles Energy            =      -0.0000000000000000 [Eh]
	 Same-Spin Energy          =      -0.4909842937656623 [Eh]
	 Opposite-Spin Energy      =      -1.5412967025226081 [Eh]
	 Correlation Energy        =      -2.0322809962882706 [Eh]
	 Total Energy              =    -800.4049858498427739 [Eh]

	 ================> DF-SCS-MP2 Energies <==================
	-----------------------------------------------------------
	 SCS Same-Spin Scale       =       0.3333333333333333 [-]
	 SCS Opposite-Spin Scale   =       1.2000000000000000 [-]
	 SCS Same-Spin Energy      =      -0.1636614312552208 [Eh]
	 SCS Opposite-Spin Energy  =      -1.8495560430271296 [Eh]
	 SCS Correlation Energy    =      -2.0132174742823503 [Eh]
	 SCS Total Energy          =    -800.3859223278368518 [Eh]
	-----------------------------------------------------------

  Dipole Moment: [D]
     X:     0.2792      Y:     2.4072      Z:    -2.2864     Total:     3.3317

*** Psi4 exiting successfully. Buy a developer a beer!
