                               Psi4 1.3.2 release

  ==> Input File <==

--------------------------------------------------------------------------
#psi4
#
memory 32 gb

molecule  {
0 1
  P       -0.0032580    -0.8671950     0.1253540
  O       -1.1721351     0.1420256     0.5514983
  O        1.0968129     0.1118497    -0.5429042
  O       -0.6066630    -1.5809190    -1.1923580
  O        0.4670770    -1.7625730     1.2055430
  C       -1.7907810     0.9929110    -0.4324270
  C        1.9592910     0.8227470     0.3828140
  C       -2.8068250     1.8392790     0.2947570
  C        2.8879720     1.6796440    -0.4470910
  H       -1.0045510     1.5998440    -0.8949530
  H       -2.2583930     0.3707270    -1.2026260
  H        1.3234980     1.4321860     1.0341110
  H        2.5053500     0.1039360     0.9973890
  H       -3.3001310     2.5165380    -0.4095030
  H       -3.5654280     1.2070220     0.7630240
  H       -2.3198080     2.4333430     1.0748900
  H        3.5555180     2.2520740     0.2062470
  H        3.4947160     1.0534000    -1.1072300
  H        2.3164280     2.3771700    -1.0625470
  H       -0.2391740    -2.4808040    -1.2743640
units angstrom
no_reorient  #important for SAPT in psi4, default
symmetry c1  #important for SAPT in psi4, default
}

set PROPERTIES_ORIGIN ["COM"]
properties('MP2/aug-cc-pvtz', properties = ['dipole'])
--------------------------------------------------------------------------

    Molecular point group: c1
  Charge       = 0
  Multiplicity = 1
  Basis Set: AUG-CC-PVTZ
    Blend: AUG-CC-PVTZ
  Basis Set: (AUG-CC-PVTZ AUX)
    Blend: AUG-CC-PVTZ-JKFIT

    Orbital Energies [Eh]
    ---------------------

    Doubly Occupied:

       1A    -80.105428     2A    -20.606513     3A    -20.589477
       4A    -20.589077     5A    -20.513735     6A    -11.299065
       7A    -11.298284     8A    -11.229857     9A    -11.228810
      10A     -7.620970    11A     -5.519515    12A     -5.519051
      13A     -5.517942    14A     -1.448743    15A     -1.381823
      16A     -1.377673    17A     -1.293654    18A     -1.041233
      19A     -1.032530    20A     -0.873978    21A     -0.863857
      22A     -0.812923    23A     -0.731995    24A     -0.716162
      25A     -0.683265    26A     -0.658388    27A     -0.652339
      28A     -0.619381    29A     -0.606421    30A     -0.577211
      31A     -0.566055    32A     -0.562011    33A     -0.545134
      34A     -0.538937    35A     -0.534737    36A     -0.518387
      37A     -0.502554    38A     -0.479289    39A     -0.476436
      40A     -0.467558    41A     -0.462105

  @DF-RHF Final Energy:  -798.38885718452968

   => Energetics <=

    Nuclear Repulsion Energy =            628.6898563228676267
    One-Electron Energy =               -2348.8324207928985743
    Two-Electron Energy =                 921.7537072855012639
    Total Energy =                       -798.3888571845296838
  Basis Set: (AUG-CC-PVTZ AUX)
    Blend: AUG-CC-PVTZ-RI
    Molecular point group: c1

    Geometry (in Angstrom), charge = 0, multiplicity = 1:

       Center              X                  Y                   Z               Mass
    ------------   -----------------  -----------------  -----------------  -----------------
         P           -0.003060216214    -0.871756385946     0.125889982841    30.973761998420
         O           -1.171937316214     0.137464214054     0.552034282841    15.994914619570
         O            1.097010683786     0.107288314054    -0.542368217159    15.994914619570
         O           -0.606465216214    -1.585480385946    -1.191822017159    15.994914619570
         O            0.467274783786    -1.767134385946     1.206078982841    15.994914619570
         C           -1.790583216214     0.988349614054    -0.431891017159    12.000000000000
         C            1.959488783786     0.818185614054     0.383349982841    12.000000000000
         C           -2.806627216214     1.834717614054     0.295292982841    12.000000000000
         C            2.888169783786     1.675082614054    -0.446555017159    12.000000000000
         H           -1.004353216214     1.595282614054    -0.894417017159     1.007825032230
         H           -2.258195216214     0.366165614054    -1.202090017159     1.007825032230
         H            1.323695783786     1.427624614054     1.034646982841     1.007825032230
         H            2.505547783786     0.099374614054     0.997924982841     1.007825032230
         H           -3.299933216214     2.511976614054    -0.408967017159     1.007825032230
         H           -3.565230216214     1.202460614054     0.763559982841     1.007825032230
         H           -2.319610216214     2.428781614054     1.075425982841     1.007825032230
         H            3.555715783786     2.247512614054     0.206782982841     1.007825032230
         H            3.494913783786     1.048838614054    -1.106694017159     1.007825032230
         H            2.316625783786     2.372608614054    -1.062011017159     1.007825032230
         H           -0.238976216214    -2.485365385946    -1.273828017159     1.007825032230

  Basis Set: AUG-CC-PVTZ
    Blend: AUG-CC-PVTZ
  Basis Set: (AUG-CC-PVTZ AUX)
    Blend: AUG-CC-PVTZ-JKFIT
	 Reference Energy          =    -798.3888571845296838 [Eh]
	 Singles Energy            =      -0.0000000000000000 [Eh]
	 Same-Spin Energy          =      -0.4896855379491825 [Eh]
	 Opposite-Spin Energy      =      -1.5376468804903418 [Eh]
	 Correlation Energy        =      -2.0273324184395243 [Eh]
	 Total Energy              =    -800.4161896029692116 [Eh]

	 ================> DF-SCS-MP2 Energies <==================
	-----------------------------------------------------------
	 SCS Same-Spin Scale       =       0.3333333333333333 [-]
	 SCS Opposite-Spin Scale   =       1.2000000000000000 [-]
	 SCS Same-Spin Energy      =      -0.1632285126497275 [Eh]
	 SCS Opposite-Spin Energy  =      -1.8451762565884100 [Eh]
	 SCS Correlation Energy    =      -2.0084047692381377 [Eh]
	 SCS Total Energy          =    -800.3972619537678383 [Eh]
	-----------------------------------------------------------

  Dipole Moment: [D]
     X:    -0.0377      Y:     2.4904      Z:    -2.1875     Total:     3.3150

*** Psi4 exiting successfully. Buy a developer a beer!
