                               Psi4 1.4a3.dev225

  ==> Input File <==

--------------------------------------------------------------------------
#psi4
#
memory 32 gb

molecule  {
0 1
  P       -0.0193980    -0.9573280    -0.1096150
  O        1.2162340    -0.0269160    -0.5415020
  O       -1.1156210     0.0613730     0.5053800
  O        0.5163150    -1.6599550     1.2462920
  O       -0.4960840    -1.8598830    -1.1802340
  C        1.8466210     0.8512662     0.4598915
  C       -1.9139900     0.7949960    -0.4653280
  C        2.8342980     1.7043970    -0.2898420
  C       -2.8451070     1.6924310     0.3153960
  H        1.0624120     1.4376840     0.9337170
  H        2.3223620     0.2121780     1.1993520
  H       -1.2444800     1.3745780    -1.1102950
  H       -2.4582310     0.0769500    -1.0841060
  H        3.3419030     2.3695990     0.4147870
  H        3.5818500     1.0824000    -0.7858930
  H        2.3288000     2.3113610    -1.0437700
  H       -3.4753290     2.2644580    -0.3716610
  H       -3.4879190     1.0956960     0.9656320
  H       -2.2756200     2.3909680     0.9321420
  H        0.1488640    -2.5599310     1.3156750
units angstrom
no_reorient  #important for SAPT in psi4, default
symmetry c1  #important for SAPT in psi4, default
}

set PROPERTIES_ORIGIN ["COM"]
properties('MP2/aug-cc-pvtz', properties = ['dipole'])
--------------------------------------------------------------------------

    Molecular point group: c1
  Charge       = 0
  Multiplicity = 1
  Basis Set: AUG-CC-PVTZ
    Blend: AUG-CC-PVTZ
  Basis Set: (AUG-CC-PVTZ AUX)
    Blend: AUG-CC-PVTZ-JKFIT

    Orbital Energies [Eh]
    ---------------------

    Doubly Occupied:

       1A    -80.103587     2A    -20.604195     3A    -20.589643
       4A    -20.588651     5A    -20.510452     6A    -11.301506
       7A    -11.298469     8A    -11.230485     9A    -11.229527
      10A     -7.619037    11A     -5.517559    12A     -5.517047
      13A     -5.516066    14A     -1.443628    15A     -1.377847
      16A     -1.371923    17A     -1.290717    18A     -1.042917
      19A     -1.034414    20A     -0.872413    21A     -0.864544
      22A     -0.811567    23A     -0.728572    24A     -0.712221
      25A     -0.682205    26A     -0.658131    27A     -0.651200
      28A     -0.617448    29A     -0.602317    30A     -0.576090
      31A     -0.565842    32A     -0.563195    33A     -0.543584
      34A     -0.539159    35A     -0.534558    36A     -0.520247
      37A     -0.504439    38A     -0.482530    39A     -0.478883
      40A     -0.464730    41A     -0.459741

  @DF-RHF Final Energy:  -798.38814112308069

   => Energetics <=

    Nuclear Repulsion Energy =            627.2272269669356319
    One-Electron Energy =               -2345.9881549504020768
    Two-Electron Energy =                 920.3727868603857587
    Total Energy =                       -798.3881411230806862
  Basis Set: (AUG-CC-PVTZ AUX)
    Blend: AUG-CC-PVTZ-RI
    Molecular point group: c1

    Geometry (in Angstrom), charge = 0, multiplicity = 1:

       Center              X                  Y                   Z               Mass
    ------------   -----------------  -----------------  -----------------  -----------------
         P           -0.020938647155    -0.874666994506    -0.101184113863    30.973761998420
         O            1.214693352845     0.055745005494    -0.533071113863    15.994914619570
         O           -1.117161647155     0.144034005494     0.513810886137    15.994914619570
         O            0.514774352845    -1.577293994506     1.254722886137    15.994914619570
         O           -0.497624647155    -1.777221994506    -1.171803113863    15.994914619570
         C            1.845080352845     0.933927205494     0.468322386137    12.000000000000
         C           -1.915530647155     0.877657005494    -0.456897113863    12.000000000000
         C            2.832757352845     1.787058005494    -0.281411113863    12.000000000000
         C           -2.846647647155     1.775092005494     0.323826886137    12.000000000000
         H            1.060871352845     1.520345005494     0.942147886137     1.007825032230
         H            2.320821352845     0.294839005494     1.207782886137     1.007825032230
         H           -1.246020647155     1.457239005494    -1.101864113863     1.007825032230
         H           -2.459771647155     0.159611005494    -1.075675113863     1.007825032230
         H            3.340362352845     2.452260005494     0.423217886137     1.007825032230
         H            3.580309352845     1.165061005494    -0.777462113863     1.007825032230
         H            2.327259352845     2.394022005494    -1.035339113863     1.007825032230
         H           -3.476869647155     2.347119005494    -0.363230113863     1.007825032230
         H           -3.489459647155     1.178357005494     0.974062886137     1.007825032230
         H           -2.277160647155     2.473629005494     0.940572886137     1.007825032230
         H            0.147323352845    -2.477269994506     1.324105886137     1.007825032230

  Basis Set: AUG-CC-PVTZ
    Blend: AUG-CC-PVTZ
  Basis Set: (AUG-CC-PVTZ AUX)
    Blend: AUG-CC-PVTZ-JKFIT
	 Reference Energy          =    -798.3881411230806862 [Eh]
	 Singles Energy            =      -0.0000000000000000 [Eh]
	 Same-Spin Energy          =      -0.4897101938859163 [Eh]
	 Opposite-Spin Energy      =      -1.5381573570893523 [Eh]
	 Correlation Energy        =      -2.0278675509752686 [Eh]
	 Total Energy              =    -800.4160086740560018 [Eh]

	 ================> DF-SCS-MP2 Energies <==================
	-----------------------------------------------------------
	 SCS Same-Spin Scale       =       0.3333333333333333 [-]
	 SCS Opposite-Spin Scale   =       1.2000000000000000 [-]
	 SCS Same-Spin Energy      =      -0.1632367312953054 [Eh]
	 SCS Opposite-Spin Energy  =      -1.8457888285072226 [Eh]
	 SCS Correlation Energy    =      -2.0090255598025282 [Eh]
	 SCS Total Energy          =    -800.3971666828832667 [Eh]
	-----------------------------------------------------------

  Dipole Moment: [D]
     X:     0.2083      Y:     2.7189      Z:     2.1350     Total:     3.4632

*** Psi4 exiting successfully. Buy a developer a beer!
