                               Psi4 1.3.2 release

  ==> Input File <==

--------------------------------------------------------------------------
#psi4
#
memory 32 gb

molecule  {
0 1
  P       -0.0032580    -0.8671950     0.1253540
  O       -1.1939495     0.1095280     0.5665622
  O        1.1214898     0.0782304    -0.5501951
  O       -0.6066630    -1.5809190    -1.1923580
  O        0.4670770    -1.7625730     1.2055430
  C       -1.7907810     0.9929110    -0.4324270
  C        1.9592910     0.8227470     0.3828140
  C       -2.8068250     1.8392790     0.2947570
  C        2.8879720     1.6796440    -0.4470910
  H       -1.0045510     1.5998440    -0.8949530
  H       -2.2583930     0.3707270    -1.2026260
  H        1.3234980     1.4321860     1.0341110
  H        2.5053500     0.1039360     0.9973890
  H       -3.3001310     2.5165380    -0.4095030
  H       -3.5654280     1.2070220     0.7630240
  H       -2.3198080     2.4333430     1.0748900
  H        3.5555180     2.2520740     0.2062470
  H        3.4947160     1.0534000    -1.1072300
  H        2.3164280     2.3771700    -1.0625470
  H       -0.2391740    -2.4808040    -1.2743640
units angstrom
no_reorient  #important for SAPT in psi4, default
symmetry c1  #important for SAPT in psi4, default
}

set PROPERTIES_ORIGIN ["COM"]
properties('MP2/aug-cc-pvtz', properties = ['dipole'])
--------------------------------------------------------------------------

    Molecular point group: c1
  Charge       = 0
  Multiplicity = 1
  Basis Set: AUG-CC-PVTZ
    Blend: AUG-CC-PVTZ
  Basis Set: (AUG-CC-PVTZ AUX)
    Blend: AUG-CC-PVTZ-JKFIT

    Orbital Energies [Eh]
    ---------------------

    Doubly Occupied:

       1A    -80.103388     2A    -20.603802     3A    -20.591936
       4A    -20.590977     5A    -20.509558     6A    -11.302508
       7A    -11.299717     8A    -11.230771     9A    -11.230577
      10A     -7.619049    11A     -5.517587    12A     -5.517047
      13A     -5.516052    14A     -1.446143    15A     -1.378236
      16A     -1.376630    17A     -1.289993    18A     -1.041925
      19A     -1.034265    20A     -0.872610    21A     -0.864086
      22A     -0.813050    23A     -0.730462    24A     -0.714574
      25A     -0.681743    26A     -0.658039    27A     -0.650827
      28A     -0.618604    29A     -0.604997    30A     -0.576529
      31A     -0.565429    32A     -0.562193    33A     -0.544703
      34A     -0.539485    35A     -0.533923    36A     -0.520391
      37A     -0.504381    38A     -0.481701    39A     -0.480691
      40A     -0.464006    41A     -0.459314

  @DF-RHF Final Energy:  -798.38833773897261

   => Energetics <=

    Nuclear Repulsion Energy =            627.8235571039076603
    One-Electron Energy =               -2347.1399895939152884
    Two-Electron Energy =                 920.9280947510350188
    Total Energy =                       -798.3883377389726093
  Basis Set: (AUG-CC-PVTZ AUX)
    Blend: AUG-CC-PVTZ-RI
    Molecular point group: c1

    Geometry (in Angstrom), charge = 0, multiplicity = 1:

       Center              X                  Y                   Z               Mass
    ------------   -----------------  -----------------  -----------------  -----------------
         P           -0.003357448056    -0.864891041674     0.125082862104    30.973761998420
         O           -1.194048948056     0.111831958326     0.566291062104    15.994914619570
         O            1.121390351944     0.080534358326    -0.550466237896    15.994914619570
         O           -0.606762448056    -1.578615041674    -1.192629137896    15.994914619570
         O            0.466977551944    -1.760269041674     1.205271862104    15.994914619570
         C           -1.790880448056     0.995214958326    -0.432698137896    12.000000000000
         C            1.959191551944     0.825050958326     0.382542862104    12.000000000000
         C           -2.806924448056     1.841582958326     0.294485862104    12.000000000000
         C            2.887872551944     1.681947958326    -0.447362137896    12.000000000000
         H           -1.004650448056     1.602147958326    -0.895224137896     1.007825032230
         H           -2.258492448056     0.373030958326    -1.202897137896     1.007825032230
         H            1.323398551944     1.434489958326     1.033839862104     1.007825032230
         H            2.505250551944     0.106239958326     0.997117862104     1.007825032230
         H           -3.300230448056     2.518841958326    -0.409774137896     1.007825032230
         H           -3.565527448056     1.209325958326     0.762752862104     1.007825032230
         H           -2.319907448056     2.435646958326     1.074618862104     1.007825032230
         H            3.555418551944     2.254377958326     0.205975862104     1.007825032230
         H            3.494616551944     1.055703958326    -1.107501137896     1.007825032230
         H            2.316328551944     2.379473958326    -1.062818137896     1.007825032230
         H           -0.239273448056    -2.478500041674    -1.274635137896     1.007825032230

  Basis Set: AUG-CC-PVTZ
    Blend: AUG-CC-PVTZ
  Basis Set: (AUG-CC-PVTZ AUX)
    Blend: AUG-CC-PVTZ-JKFIT
	 Reference Energy          =    -798.3883377389726093 [Eh]
	 Singles Energy            =      -0.0000000000000000 [Eh]
	 Same-Spin Energy          =      -0.4897277992539327 [Eh]
	 Opposite-Spin Energy      =      -1.5381467565959996 [Eh]
	 Correlation Energy        =      -2.0278745558499325 [Eh]
	 Total Energy              =    -800.4162122948225715 [Eh]

	 ================> DF-SCS-MP2 Energies <==================
	-----------------------------------------------------------
	 SCS Same-Spin Scale       =       0.3333333333333333 [-]
	 SCS Opposite-Spin Scale   =       1.2000000000000000 [-]
	 SCS Same-Spin Energy      =      -0.1632425997513109 [Eh]
	 SCS Opposite-Spin Energy  =      -1.8457761079151995 [Eh]
	 SCS Correlation Energy    =      -2.0090187076665105 [Eh]
	 SCS Total Energy          =    -800.3973564466391508 [Eh]
	-----------------------------------------------------------

  Dipole Moment: [D]
     X:    -0.0754      Y:     2.7293      Z:    -2.2251     Total:     3.5222

*** Psi4 exiting successfully. Buy a developer a beer!
