                               Psi4 1.3.2 release

  ==> Input File <==

--------------------------------------------------------------------------
#psi4
#
memory 32 gb

molecule  {
0 1
  P       -0.0032580    -0.8671950     0.1253540
  O       -1.1867680     0.1204360     0.5615740
  O        1.1074726     0.0839601    -0.5380149
  O       -0.6066630    -1.5809190    -1.1923580
  O        0.4670770    -1.7625730     1.2055430
  C       -1.7907810     0.9929110    -0.4324270
  C        1.9592910     0.8227470     0.3828140
  C       -2.8068250     1.8392790     0.2947570
  C        2.8934810     1.6842789    -0.4360359
  H       -1.0045510     1.5998440    -0.8949530
  H       -2.2583930     0.3707270    -1.2026260
  H        1.3234980     1.4321860     1.0341110
  H        2.5053500     0.1039360     0.9973890
  H       -3.3001310     2.5165380    -0.4095030
  H       -3.5654280     1.2070220     0.7630240
  H       -2.3198080     2.4333430     1.0748900
  H        3.5555180     2.2520740     0.2062470
  H        3.4947160     1.0534000    -1.1072300
  H        2.3164280     2.3771700    -1.0625470
  H       -0.2391740    -2.4808040    -1.2743640
units angstrom
no_reorient  #important for SAPT in psi4, default
symmetry c1  #important for SAPT in psi4, default
}

set PROPERTIES_ORIGIN ["COM"]
properties('MP2/aug-cc-pvtz', properties = ['dipole'])
--------------------------------------------------------------------------

    Molecular point group: c1
  Charge       = 0
  Multiplicity = 1
  Basis Set: AUG-CC-PVTZ
    Blend: AUG-CC-PVTZ
  Basis Set: (AUG-CC-PVTZ AUX)
    Blend: AUG-CC-PVTZ-JKFIT

    Orbital Energies [Eh]
    ---------------------

    Doubly Occupied:

       1A    -80.102845     2A    -20.604287     3A    -20.590620
       4A    -20.590276     5A    -20.509719     6A    -11.301068
       7A    -11.300166     8A    -11.231335     9A    -11.229765
      10A     -7.618648    11A     -5.517172    12A     -5.516710
      13A     -5.515648    14A     -1.448035    15A     -1.379796
      16A     -1.377761    17A     -1.290232    18A     -1.042224
      19A     -1.034350    20A     -0.874393    21A     -0.864064
      22A     -0.812291    23A     -0.731919    24A     -0.715462
      25A     -0.682467    26A     -0.658182    27A     -0.650979
      28A     -0.620027    29A     -0.605098    30A     -0.578474
      31A     -0.565417    32A     -0.561822    33A     -0.545376
      34A     -0.541230    35A     -0.533948    36A     -0.518989
      37A     -0.503669    38A     -0.480625    39A     -0.479098
      40A     -0.464331    41A     -0.459592

  @DF-RHF Final Energy:  -798.38946749276056

   => Energetics <=

    Nuclear Repulsion Energy =            628.4361650587937902
    One-Electron Energy =               -2348.3550431209423550
    Two-Electron Energy =                 921.5294105693878919
    Total Energy =                       -798.3894674927605593
  Basis Set: (AUG-CC-PVTZ AUX)
    Blend: AUG-CC-PVTZ-RI
    Molecular point group: c1

    Geometry (in Angstrom), charge = 0, multiplicity = 1:

       Center              X                  Y                   Z               Mass
    ------------   -----------------  -----------------  -----------------  -----------------
         P           -0.003076815887    -0.866979709838     0.123474854855    30.973761998420
         O           -1.186586815887     0.120651290162     0.559694854855    15.994914619570
         O            1.107653784113     0.084175390162    -0.539894045145    15.994914619570
         O           -0.606481815887    -1.580703709838    -1.194237145145    15.994914619570
         O            0.467258184113    -1.762357709838     1.203663854855    15.994914619570
         C           -1.790599815887     0.993126290162    -0.434306145145    12.000000000000
         C            1.959472184113     0.822962290162     0.380934854855    12.000000000000
         C           -2.806643815887     1.839494290162     0.292877854855    12.000000000000
         C            2.893662184113     1.684494190162    -0.437915045145    12.000000000000
         H           -1.004369815887     1.600059290162    -0.896832145145     1.007825032230
         H           -2.258211815887     0.370942290162    -1.204505145145     1.007825032230
         H            1.323679184113     1.432401290162     1.032231854855     1.007825032230
         H            2.505531184113     0.104151290162     0.995509854855     1.007825032230
         H           -3.299949815887     2.516753290162    -0.411382145145     1.007825032230
         H           -3.565246815887     1.207237290162     0.761144854855     1.007825032230
         H           -2.319626815887     2.433558290162     1.073010854855     1.007825032230
         H            3.555699184113     2.252289290162     0.204367854855     1.007825032230
         H            3.494897184113     1.053615290162    -1.109109145145     1.007825032230
         H            2.316609184113     2.377385290162    -1.064426145145     1.007825032230
         H           -0.238992815887    -2.480588709838    -1.276243145145     1.007825032230

  Basis Set: AUG-CC-PVTZ
    Blend: AUG-CC-PVTZ
  Basis Set: (AUG-CC-PVTZ AUX)
    Blend: AUG-CC-PVTZ-JKFIT
	 Reference Energy          =    -798.3894674927605593 [Eh]
	 Singles Energy            =      -0.0000000000000000 [Eh]
	 Same-Spin Energy          =      -0.4895015282881240 [Eh]
	 Opposite-Spin Energy      =      -1.5374403600378903 [Eh]
	 Correlation Energy        =      -2.0269418883260144 [Eh]
	 Total Energy              =    -800.4164093810866234 [Eh]

	 ================> DF-SCS-MP2 Energies <==================
	-----------------------------------------------------------
	 SCS Same-Spin Scale       =       0.3333333333333333 [-]
	 SCS Opposite-Spin Scale   =       1.2000000000000000 [-]
	 SCS Same-Spin Energy      =      -0.1631671760960413 [Eh]
	 SCS Opposite-Spin Energy  =      -1.8449284320454682 [Eh]
	 SCS Correlation Energy    =      -2.0080956081415096 [Eh]
	 SCS Total Energy          =    -800.3975631009020617 [Eh]
	-----------------------------------------------------------

  Dipole Moment: [D]
     X:    -0.0069      Y:     2.6915      Z:    -2.2356     Total:     3.4989

*** Psi4 exiting successfully. Buy a developer a beer!
