                               Psi4 1.3.2 release

  ==> Input File <==

--------------------------------------------------------------------------
#psi4
#
memory 32 gb

molecule  {
0 1
  P       -0.0032580    -0.8671950     0.1253540
  O       -1.2560768     0.0926713     0.5764052
  O        1.1133490     0.0895100    -0.5478160
  O       -0.6066630    -1.5809190    -1.1923580
  O        0.4670770    -1.7625730     1.2055430
  C       -1.7907810     0.9929110    -0.4324270
  C        1.9592910     0.8227470     0.3828140
  C       -2.8068250     1.8392790     0.2947570
  C        2.8879720     1.6796440    -0.4470910
  H       -1.0448361     1.6245310    -0.9274804
  H       -2.2583930     0.3707270    -1.2026260
  H        1.3234980     1.4321860     1.0341110
  H        2.5053500     0.1039360     0.9973890
  H       -3.3001310     2.5165380    -0.4095030
  H       -3.5654280     1.2070220     0.7630240
  H       -2.3198080     2.4333430     1.0748900
  H        3.5555180     2.2520740     0.2062470
  H        3.4947160     1.0534000    -1.1072300
  H        2.3164280     2.3771700    -1.0625470
  H       -0.2391740    -2.4808040    -1.2743640
units angstrom
no_reorient  #important for SAPT in psi4, default
symmetry c1  #important for SAPT in psi4, default
}

set PROPERTIES_ORIGIN ["COM"]
properties('MP2/aug-cc-pvtz', properties = ['dipole'])
--------------------------------------------------------------------------

    Molecular point group: c1
  Charge       = 0
  Multiplicity = 1
  Basis Set: AUG-CC-PVTZ
    Blend: AUG-CC-PVTZ
  Basis Set: (AUG-CC-PVTZ AUX)
    Blend: AUG-CC-PVTZ-JKFIT

    Orbital Energies [Eh]
    ---------------------

    Doubly Occupied:

       1A    -80.108672     2A    -20.605402     3A    -20.596396
       4A    -20.592911     5A    -20.513114     6A    -11.301984
       7A    -11.297832     8A    -11.232354     9A    -11.226739
      10A     -7.623681    11A     -5.522188    12A     -5.521567
      13A     -5.520719    14A     -1.444310    15A     -1.381324
      16A     -1.373345    17A     -1.293085    18A     -1.041119
      19A     -1.032250    20A     -0.873722    21A     -0.859416
      22A     -0.815089    23A     -0.730988    24A     -0.714383
      25A     -0.680802    26A     -0.657057    27A     -0.651982
      28A     -0.621624    29A     -0.601439    30A     -0.577029
      31A     -0.566438    32A     -0.562070    33A     -0.543110
      34A     -0.539434    35A     -0.534326    36A     -0.518606
      37A     -0.504951    38A     -0.482164    39A     -0.477630
      40A     -0.465376    41A     -0.462770

  @DF-RHF Final Energy:  -798.38302865877313

   => Energetics <=

    Nuclear Repulsion Energy =            626.2813279225562155
    One-Electron Energy =               -2343.9899138090486304
    Two-Electron Energy =                 919.3255572277194005
    Total Energy =                       -798.3830286587731280
  Basis Set: (AUG-CC-PVTZ AUX)
    Blend: AUG-CC-PVTZ-RI
    Molecular point group: c1

    Geometry (in Angstrom), charge = 0, multiplicity = 1:

       Center              X                  Y                   Z               Mass
    ------------   -----------------  -----------------  -----------------  -----------------
         P            0.004202513017    -0.864473453565     0.124026577694    30.973761998420
         O           -1.248616286983     0.095392846435     0.575077777694    15.994914619570
         O            1.120809513017     0.092231546435    -0.549143422306    15.994914619570
         O           -0.599202486983    -1.578197453565    -1.193685422306    15.994914619570
         O            0.474537513017    -1.759851453565     1.204215577694    15.994914619570
         C           -1.783320486983     0.995632546435    -0.433754422306    12.000000000000
         C            1.966751513017     0.825468546435     0.381486577694    12.000000000000
         C           -2.799364486983     1.842000546435     0.293429577694    12.000000000000
         C            2.895432513017     1.682365546435    -0.448418422306    12.000000000000
         H           -1.037375586983     1.627252546435    -0.928807822306     1.007825032230
         H           -2.250932486983     0.373448546435    -1.203953422306     1.007825032230
         H            1.330958513017     1.434907546435     1.032783577694     1.007825032230
         H            2.512810513017     0.106657546435     0.996061577694     1.007825032230
         H           -3.292670486983     2.519259546435    -0.410830422306     1.007825032230
         H           -3.557967486983     1.209743546435     0.761696577694     1.007825032230
         H           -2.312347486983     2.436064546435     1.073562577694     1.007825032230
         H            3.562978513017     2.254795546435     0.204919577694     1.007825032230
         H            3.502176513017     1.056121546435    -1.108557422306     1.007825032230
         H            2.323888513017     2.379891546435    -1.063874422306     1.007825032230
         H           -0.231713486983    -2.478082453565    -1.275691422306     1.007825032230

  Basis Set: AUG-CC-PVTZ
    Blend: AUG-CC-PVTZ
  Basis Set: (AUG-CC-PVTZ AUX)
    Blend: AUG-CC-PVTZ-JKFIT
	 Reference Energy          =    -798.3830286587731280 [Eh]
	 Singles Energy            =      -0.0000000000000000 [Eh]
	 Same-Spin Energy          =      -0.4903435260821229 [Eh]
	 Opposite-Spin Energy      =      -1.5397075961022386 [Eh]
	 Correlation Energy        =      -2.0300511221843616 [Eh]
	 Total Energy              =    -800.4130797809574460 [Eh]

	 ================> DF-SCS-MP2 Energies <==================
	-----------------------------------------------------------
	 SCS Same-Spin Scale       =       0.3333333333333333 [-]
	 SCS Opposite-Spin Scale   =       1.2000000000000000 [-]
	 SCS Same-Spin Energy      =      -0.1634478420273743 [Eh]
	 SCS Opposite-Spin Energy  =      -1.8476491153226862 [Eh]
	 SCS Correlation Energy    =      -2.0110969573500603 [Eh]
	 SCS Total Energy          =    -800.3941256161232332 [Eh]
	-----------------------------------------------------------

  Dipole Moment: [D]
     X:     0.2636      Y:     2.6228      Z:    -2.2453     Total:     3.4627

*** Psi4 exiting successfully. Buy a developer a beer!
