                               Psi4 1.3.2 release

  ==> Input File <==

--------------------------------------------------------------------------
#psi4
#
memory 32 gb

molecule  {
0 1
  P        0.0002119    -0.8944726     0.2045892
  O       -1.1867680     0.1204360     0.5615740
  O        1.1133490     0.0895100    -0.5478160
  O       -0.6066630    -1.5809190    -1.1923580
  O        0.4670770    -1.7625730     1.2055430
  C       -1.8366701     1.0198418    -0.3779891
  C        1.9592910     0.8227470     0.3828140
  C       -2.8068250     1.8392790     0.2947570
  C        2.8879720     1.6796440    -0.4470910
  H       -1.0045510     1.5998440    -0.8949530
  H       -2.2583930     0.3707270    -1.2026260
  H        1.3234980     1.4321860     1.0341110
  H        2.5053500     0.1039360     0.9973890
  H       -3.3001310     2.5165380    -0.4095030
  H       -3.5654280     1.2070220     0.7630240
  H       -2.3198080     2.4333430     1.0748900
  H        3.5555180     2.2520740     0.2062470
  H        3.4947160     1.0534000    -1.1072300
  H        2.3164280     2.3771700    -1.0625470
  H       -0.2391740    -2.4808040    -1.2743640
units angstrom
no_reorient  #important for SAPT in psi4, default
symmetry c1  #important for SAPT in psi4, default
}

set PROPERTIES_ORIGIN ["COM"]
properties('MP2/aug-cc-pvtz', properties = ['dipole'])
--------------------------------------------------------------------------

    Molecular point group: c1
  Charge       = 0
  Multiplicity = 1
  Basis Set: AUG-CC-PVTZ
    Blend: AUG-CC-PVTZ
  Basis Set: (AUG-CC-PVTZ AUX)
    Blend: AUG-CC-PVTZ-JKFIT

    Orbital Energies [Eh]
    ---------------------

    Doubly Occupied:

       1A    -80.102050     2A    -20.592330     3A    -20.588161
       4A    -20.582065     5A    -20.527580     6A    -11.304672
       7A    -11.293568     8A    -11.227775     9A    -11.226841
      10A     -7.619528    11A     -5.517639    12A     -5.517276
      13A     -5.517093    14A     -1.436963    15A     -1.368294
      16A     -1.357081    17A     -1.335748    18A     -1.056372
      19A     -1.028853    20A     -0.867560    21A     -0.856518
      22A     -0.799103    23A     -0.715218    24A     -0.708550
      25A     -0.675708    26A     -0.650067    27A     -0.648779
      28A     -0.616891    29A     -0.607856    30A     -0.577246
      31A     -0.570689    32A     -0.566131    33A     -0.548102
      34A     -0.534179    35A     -0.525002    36A     -0.521151
      37A     -0.506414    38A     -0.495555    39A     -0.484461
      40A     -0.466889    41A     -0.461584

  @DF-RHF Final Energy:  -798.36968149659856

   => Energetics <=

    Nuclear Repulsion Energy =            627.1645974208545340
    One-Electron Energy =               -2345.8614713562806173
    Two-Electron Energy =                 920.3271924388275238
    Total Energy =                       -798.3696814965985595
  Basis Set: (AUG-CC-PVTZ AUX)
    Blend: AUG-CC-PVTZ-RI
    Molecular point group: c1

    Geometry (in Angstrom), charge = 0, multiplicity = 1:

       Center              X                  Y                   Z               Mass
    ------------   -----------------  -----------------  -----------------  -----------------
         P            0.003089203214    -0.891085597862     0.184415798218    30.973761998420
         O           -1.183890696786     0.123823002138     0.541400598218    15.994914619570
         O            1.116226303214     0.092897002138    -0.567989401782    15.994914619570
         O           -0.603785696786    -1.577531997862    -1.212531401782    15.994914619570
         O            0.469954303214    -1.759185997862     1.185369598218    15.994914619570
         C           -1.833792796786     1.023228802138    -0.398162501782    12.000000000000
         C            1.962168303214     0.826134002138     0.362640598218    12.000000000000
         C           -2.803947696786     1.842666002138     0.274583598218    12.000000000000
         C            2.890849303214     1.683031002138    -0.467264401782    12.000000000000
         H           -1.001673696786     1.603231002138    -0.915126401782     1.007825032230
         H           -2.255515696786     0.374114002138    -1.222799401782     1.007825032230
         H            1.326375303214     1.435573002138     1.013937598218     1.007825032230
         H            2.508227303214     0.107323002138     0.977215598218     1.007825032230
         H           -3.297253696786     2.519925002138    -0.429676401782     1.007825032230
         H           -3.562550696786     1.210409002138     0.742850598218     1.007825032230
         H           -2.316930696786     2.436730002138     1.054716598218     1.007825032230
         H            3.558395303214     2.255461002138     0.186073598218     1.007825032230
         H            3.497593303214     1.056787002138    -1.127403401782     1.007825032230
         H            2.319305303214     2.380557002138    -1.082720401782     1.007825032230
         H           -0.236296696786    -2.477416997862    -1.294537401782     1.007825032230

  Basis Set: AUG-CC-PVTZ
    Blend: AUG-CC-PVTZ
  Basis Set: (AUG-CC-PVTZ AUX)
    Blend: AUG-CC-PVTZ-JKFIT
	 Reference Energy          =    -798.3696814965985595 [Eh]
	 Singles Energy            =      -0.0000000000000000 [Eh]
	 Same-Spin Energy          =      -0.4898208266373709 [Eh]
	 Opposite-Spin Energy      =      -1.5383831989755803 [Eh]
	 Correlation Energy        =      -2.0282040256129514 [Eh]
	 Total Energy              =    -800.3978855222114817 [Eh]

	 ================> DF-SCS-MP2 Energies <==================
	-----------------------------------------------------------
	 SCS Same-Spin Scale       =       0.3333333333333333 [-]
	 SCS Opposite-Spin Scale   =       1.2000000000000000 [-]
	 SCS Same-Spin Energy      =      -0.1632736088791236 [Eh]
	 SCS Opposite-Spin Energy  =      -1.8460598387706963 [Eh]
	 SCS Correlation Energy    =      -2.0093334476498201 [Eh]
	 SCS Total Energy          =    -800.3790149442484108 [Eh]
	-----------------------------------------------------------

  Dipole Moment: [D]
     X:    -0.2090      Y:     2.4138      Z:    -1.4421     Total:     2.8195

*** Psi4 exiting successfully. Buy a developer a beer!
