                               Psi4 1.3.2 release

  ==> Input File <==

--------------------------------------------------------------------------
#psi4
#
memory 32 gb

molecule  {
0 1
  P       -0.0032580    -0.8671950     0.1253540
  O       -1.1867680     0.1204360     0.5615740
  O        1.1133490     0.0895100    -0.5478160
  O       -0.6066630    -1.5809190    -1.1923580
  O        0.4670770    -1.7625730     1.2055430
  C       -1.7076974     0.8728997    -0.2956995
  C        1.9592910     0.8227470     0.3828140
  C       -2.8068250     1.8392790     0.2947570
  C        2.8879720     1.6796440    -0.4470910
  H       -1.0045510     1.5998440    -0.8949530
  H       -2.2583930     0.3707270    -1.2026260
  H        1.3234980     1.4321860     1.0341110
  H        2.5053500     0.1039360     0.9973890
  H       -3.3001310     2.5165380    -0.4095030
  H       -3.5654280     1.2070220     0.7630240
  H       -2.3198080     2.4333430     1.0748900
  H        3.5555180     2.2520740     0.2062470
  H        3.4947160     1.0534000    -1.1072300
  H        2.3164280     2.3771700    -1.0625470
  H       -0.2391740    -2.4808040    -1.2743640
units angstrom
no_reorient  #important for SAPT in psi4, default
symmetry c1  #important for SAPT in psi4, default
}

set PROPERTIES_ORIGIN ["COM"]
properties('MP2/aug-cc-pvtz', properties = ['dipole'])
--------------------------------------------------------------------------

    Molecular point group: c1
  Charge       = 0
  Multiplicity = 1
  Basis Set: AUG-CC-PVTZ
    Blend: AUG-CC-PVTZ
  Basis Set: (AUG-CC-PVTZ AUX)
    Blend: AUG-CC-PVTZ-JKFIT

    Orbital Energies [Eh]
    ---------------------

    Doubly Occupied:

       1A    -80.119264     2A    -20.613963     3A    -20.612613
       4A    -20.598472     5A    -20.521864     6A    -11.303982
       7A    -11.302218     8A    -11.232847     9A    -11.223288
      10A     -7.634932    11A     -5.533475    12A     -5.532914
      13A     -5.531857    14A     -1.501400    15A     -1.421307
      16A     -1.385896    17A     -1.303187    18A     -1.042272
      19A     -1.016141    20A     -0.892895    21A     -0.869376
      22A     -0.819645    23A     -0.745610    24A     -0.740471
      25A     -0.692985    26A     -0.663081    27A     -0.660090
      28A     -0.649937    29A     -0.626126    30A     -0.579637
      31A     -0.570686    32A     -0.563014    33A     -0.550755
      34A     -0.543978    35A     -0.540327    36A     -0.517346
      37A     -0.492272    38A     -0.477177    39A     -0.471699
      40A     -0.454756    41A     -0.434964

  @DF-RHF Final Energy:  -798.34926662428848

   => Energetics <=

    Nuclear Repulsion Energy =            632.2832274583176968
    One-Electron Energy =               -2355.2875509959994815
    Two-Electron Energy =                 924.6550569133933095
    Total Energy =                       -798.3492666242884752
  Basis Set: (AUG-CC-PVTZ AUX)
    Blend: AUG-CC-PVTZ-RI
    Molecular point group: c1

    Geometry (in Angstrom), charge = 0, multiplicity = 1:

       Center              X                  Y                   Z               Mass
    ------------   -----------------  -----------------  -----------------  -----------------
         P           -0.009730224552    -0.857845791191     0.114702422596    30.973761998420
         O           -1.193240224552     0.129785208809     0.550922422596    15.994914619570
         O            1.106876775448     0.098859208809    -0.558467577404    15.994914619570
         O           -0.613135224552    -1.571569791191    -1.203009577404    15.994914619570
         O            0.460604775448    -1.753223791191     1.194891422596    15.994914619570
         C           -1.714169624552     0.882248908809    -0.306351077404    12.000000000000
         C            1.952818775448     0.832096208809     0.372162422596    12.000000000000
         C           -2.813297224552     1.848628208809     0.284105422596    12.000000000000
         C            2.881499775448     1.688993208809    -0.457742577404    12.000000000000
         H           -1.011023224552     1.609193208809    -0.905604577404     1.007825032230
         H           -2.264865224552     0.380076208809    -1.213277577404     1.007825032230
         H            1.317025775448     1.441535208809     1.023459422596     1.007825032230
         H            2.498877775448     0.113285208809     0.986737422596     1.007825032230
         H           -3.306603224552     2.525887208809    -0.420154577404     1.007825032230
         H           -3.571900224552     1.216371208809     0.752372422596     1.007825032230
         H           -2.326280224552     2.442692208809     1.064238422596     1.007825032230
         H            3.549045775448     2.261423208809     0.195595422596     1.007825032230
         H            3.488243775448     1.062749208809    -1.117881577404     1.007825032230
         H            2.309955775448     2.386519208809    -1.073198577404     1.007825032230
         H           -0.245646224552    -2.471454791191    -1.285015577404     1.007825032230

  Basis Set: AUG-CC-PVTZ
    Blend: AUG-CC-PVTZ
  Basis Set: (AUG-CC-PVTZ AUX)
    Blend: AUG-CC-PVTZ-JKFIT
	 Reference Energy          =    -798.3492666242884752 [Eh]
	 Singles Energy            =      -0.0000000000000000 [Eh]
	 Same-Spin Energy          =      -0.4905975221754204 [Eh]
	 Opposite-Spin Energy      =      -1.5379201337602608 [Eh]
	 Correlation Energy        =      -2.0285176559356812 [Eh]
	 Total Energy              =    -800.3777842802242048 [Eh]

	 ================> DF-SCS-MP2 Energies <==================
	-----------------------------------------------------------
	 SCS Same-Spin Scale       =       0.3333333333333333 [-]
	 SCS Opposite-Spin Scale   =       1.2000000000000000 [-]
	 SCS Same-Spin Energy      =      -0.1635325073918068 [Eh]
	 SCS Opposite-Spin Energy  =      -1.8455041605123128 [Eh]
	 SCS Correlation Energy    =      -2.0090366679041196 [Eh]
	 SCS Total Energy          =    -800.3583032921925451 [Eh]
	-----------------------------------------------------------

  Dipole Moment: [D]
     X:     0.6280      Y:     1.9690      Z:    -1.7990     Total:     2.7401

*** Psi4 exiting successfully. Buy a developer a beer!
