                               Psi4 1.3.2 release

  ==> Input File <==

--------------------------------------------------------------------------
#psi4
#
memory 32 gb

molecule  {
0 1
  P       -0.0032580    -0.8671950     0.1253540
  O       -1.1837099     0.0866589     0.6382817
  O        1.1133490     0.0895100    -0.5478160
  O       -0.6066630    -1.5809190    -1.1923580
  O        0.4147670    -1.7300303     1.2525166
  C       -1.7907810     0.9929110    -0.4324270
  C        1.9592910     0.8227470     0.3828140
  C       -2.8068250     1.8392790     0.2947570
  C        2.8879720     1.6796440    -0.4470910
  H       -1.0045510     1.5998440    -0.8949530
  H       -2.2583930     0.3707270    -1.2026260
  H        1.3234980     1.4321860     1.0341110
  H        2.5053500     0.1039360     0.9973890
  H       -3.3001310     2.5165380    -0.4095030
  H       -3.5654280     1.2070220     0.7630240
  H       -2.3198080     2.4333430     1.0748900
  H        3.5555180     2.2520740     0.2062470
  H        3.4947160     1.0534000    -1.1072300
  H        2.3164280     2.3771700    -1.0625470
  H       -0.2391740    -2.4808040    -1.2743640
units angstrom
no_reorient  #important for SAPT in psi4, default
symmetry c1  #important for SAPT in psi4, default
}

set PROPERTIES_ORIGIN ["COM"]
properties('MP2/aug-cc-pvtz', properties = ['dipole'])
--------------------------------------------------------------------------

    Molecular point group: c1
  Charge       = 0
  Multiplicity = 1
  Basis Set: AUG-CC-PVTZ
    Blend: AUG-CC-PVTZ
  Basis Set: (AUG-CC-PVTZ AUX)
    Blend: AUG-CC-PVTZ-JKFIT

    Orbital Energies [Eh]
    ---------------------

    Doubly Occupied:

       1A    -80.099756     2A    -20.607136     3A    -20.593274
       4A    -20.588905     5A    -20.502786     6A    -11.307719
       7A    -11.299687     8A    -11.232106     9A    -11.231107
      10A     -7.615680    11A     -5.514103    12A     -5.513601
      13A     -5.512737    14A     -1.442539    15A     -1.380402
      16A     -1.363883    17A     -1.283289    18A     -1.041626
      19A     -1.035436    20A     -0.871300    21A     -0.860721
      22A     -0.812413    23A     -0.729652    24A     -0.707469
      25A     -0.679901    26A     -0.655518    27A     -0.649960
      28A     -0.618696    29A     -0.596185    30A     -0.577579
      31A     -0.565712    32A     -0.559825    33A     -0.541193
      34A     -0.539227    35A     -0.532971    36A     -0.523516
      37A     -0.506801    38A     -0.486699    39A     -0.480469
      40A     -0.457885    41A     -0.453585

  @DF-RHF Final Energy:  -798.38103514327690

   => Energetics <=

    Nuclear Repulsion Energy =            626.8358079911726009
    One-Electron Energy =               -2345.2875886830283889
    Two-Electron Energy =                 920.0707455485787705
    Total Energy =                       -798.3810351432769039
  Basis Set: (AUG-CC-PVTZ AUX)
    Blend: AUG-CC-PVTZ-RI
    Molecular point group: c1

    Geometry (in Angstrom), charge = 0, multiplicity = 1:

       Center              X                  Y                   Z               Mass
    ------------   -----------------  -----------------  -----------------  -----------------
         P            0.001856304771    -0.867066747607     0.112511154495    30.973761998420
         O           -1.178595595229     0.086787152393     0.625438854495    15.994914619570
         O            1.118463304771     0.089638252393    -0.560658845505    15.994914619570
         O           -0.601548695229    -1.580790747607    -1.205200845505    15.994914619570
         O            0.419881304771    -1.729902047607     1.239673754495    15.994914619570
         C           -1.785666695229     0.993039252393    -0.445269845505    12.000000000000
         C            1.964405304771     0.822875252393     0.369971154495    12.000000000000
         C           -2.801710695229     1.839407252393     0.281914154495    12.000000000000
         C            2.893086304771     1.679772252393    -0.459933845505    12.000000000000
         H           -0.999436695229     1.599972252393    -0.907795845505     1.007825032230
         H           -2.253278695229     0.370855252393    -1.215468845505     1.007825032230
         H            1.328612304771     1.432314252393     1.021268154495     1.007825032230
         H            2.510464304771     0.104064252393     0.984546154495     1.007825032230
         H           -3.295016695229     2.516666252393    -0.422345845505     1.007825032230
         H           -3.560313695229     1.207150252393     0.750181154495     1.007825032230
         H           -2.314693695229     2.433471252393     1.062047154495     1.007825032230
         H            3.560632304771     2.252202252393     0.193404154495     1.007825032230
         H            3.499830304771     1.053528252393    -1.120072845505     1.007825032230
         H            2.321542304771     2.377298252393    -1.075389845505     1.007825032230
         H           -0.234059695229    -2.480675747607    -1.287206845505     1.007825032230

  Basis Set: AUG-CC-PVTZ
    Blend: AUG-CC-PVTZ
  Basis Set: (AUG-CC-PVTZ AUX)
    Blend: AUG-CC-PVTZ-JKFIT
	 Reference Energy          =    -798.3810351432769039 [Eh]
	 Singles Energy            =      -0.0000000000000000 [Eh]
	 Same-Spin Energy          =      -0.4902146176406519 [Eh]
	 Opposite-Spin Energy      =      -1.5400030895483166 [Eh]
	 Correlation Energy        =      -2.0302177071889682 [Eh]
	 Total Energy              =    -800.4112528504658712 [Eh]

	 ================> DF-SCS-MP2 Energies <==================
	-----------------------------------------------------------
	 SCS Same-Spin Scale       =       0.3333333333333333 [-]
	 SCS Opposite-Spin Scale   =       1.2000000000000000 [-]
	 SCS Same-Spin Energy      =      -0.1634048725468840 [Eh]
	 SCS Opposite-Spin Energy  =      -1.8480037074579798 [Eh]
	 SCS Correlation Energy    =      -2.0114085800048640 [Eh]
	 SCS Total Energy          =    -800.3924437232817581 [Eh]
	-----------------------------------------------------------

  Dipole Moment: [D]
     X:    -0.0307      Y:     2.7840      Z:    -2.5632     Total:     3.7844

*** Psi4 exiting successfully. Buy a developer a beer!
