                               Psi4 1.3.2 release

  ==> Input File <==

--------------------------------------------------------------------------
#psi4
#
memory 32 gb

molecule  {
0 1
  P       -0.0032580    -0.8671950     0.1253540
  O       -1.1867680     0.1204360     0.5615740
  O        1.1133490     0.0895100    -0.5478160
  O       -0.6066630    -1.5809190    -1.1923580
  O        0.4670770    -1.7625730     1.2055430
  C       -1.7907810     0.9929110    -0.4324270
  C        1.9592910     0.8227470     0.3828140
  C       -2.8068250     1.8392790     0.2947570
  C        2.8879720     1.6796440    -0.4470910
  H       -1.0045510     1.5998440    -0.8949530
  H       -2.2583930     0.3707270    -1.2026260
  H        1.2654543     1.4878237     1.0935701
  H        2.5053500     0.1039360     0.9973890
  H       -3.3001310     2.5165380    -0.4095030
  H       -3.5654280     1.2070220     0.7630240
  H       -2.3198080     2.4333430     1.0748900
  H        3.5555180     2.2520740     0.2062470
  H        3.4947160     1.0534000    -1.1072300
  H        2.3164280     2.3771700    -1.0625470
  H       -0.2391740    -2.4808040    -1.2743640
units angstrom
no_reorient  #important for SAPT in psi4, default
symmetry c1  #important for SAPT in psi4, default
}

set PROPERTIES_ORIGIN ["COM"]
properties('MP2/aug-cc-pvtz', properties = ['dipole'])
--------------------------------------------------------------------------

    Molecular point group: c1
  Charge       = 0
  Multiplicity = 1
  Basis Set: AUG-CC-PVTZ
    Blend: AUG-CC-PVTZ
  Basis Set: (AUG-CC-PVTZ AUX)
    Blend: AUG-CC-PVTZ-JKFIT

    Orbital Energies [Eh]
    ---------------------

    Doubly Occupied:

       1A    -80.104474     2A    -20.605071     3A    -20.592089
       4A    -20.591016     5A    -20.511113     6A    -11.310877
       7A    -11.301206     8A    -11.231524     9A    -11.229826
      10A     -7.620083    11A     -5.518614    12A     -5.518120
      13A     -5.517074    14A     -1.447385    15A     -1.379717
      16A     -1.377571    17A     -1.291386    18A     -1.040767
      19A     -1.031933    20A     -0.871400    21A     -0.861808
      22A     -0.809278    23A     -0.730264    24A     -0.715417
      25A     -0.679209    26A     -0.656656    27A     -0.647494
      28A     -0.619447    29A     -0.605097    30A     -0.577084
      31A     -0.565678    32A     -0.562535    33A     -0.544680
      34A     -0.539115    35A     -0.534334    36A     -0.517618
      37A     -0.504207    38A     -0.480092    39A     -0.473493
      40A     -0.465063    41A     -0.460119

  @DF-RHF Final Energy:  -798.38202349763071

   => Energetics <=

    Nuclear Repulsion Energy =            627.6845900048712110
    One-Electron Energy =               -2346.8533603379914894
    Two-Electron Energy =                 920.7867468354896801
    Total Energy =                       -798.3820234976307120
  Basis Set: (AUG-CC-PVTZ AUX)
    Blend: AUG-CC-PVTZ-RI
    Molecular point group: c1

    Geometry (in Angstrom), charge = 0, multiplicity = 1:

       Center              X                  Y                   Z               Mass
    ------------   -----------------  -----------------  -----------------  -----------------
         P           -0.002878078691    -0.867558940788     0.124964762278    30.973761998420
         O           -1.186388078691     0.120072059212     0.561184762278    15.994914619570
         O            1.113728921309     0.089146059212    -0.548205237722    15.994914619570
         O           -0.606283078691    -1.581282940788    -1.192747237722    15.994914619570
         O            0.467456921309    -1.762936940788     1.205153762278    15.994914619570
         C           -1.790401078691     0.992547059212    -0.432816237722    12.000000000000
         C            1.959670921309     0.822383059212     0.382424762278    12.000000000000
         C           -2.806445078691     1.838915059212     0.294367762278    12.000000000000
         C            2.888351921309     1.679280059212    -0.447480237722    12.000000000000
         H           -1.004171078691     1.599480059212    -0.895342237722     1.007825032230
         H           -2.258013078691     0.370363059212    -1.203015237722     1.007825032230
         H            1.265834221309     1.487459759212     1.093180862278     1.007825032230
         H            2.505729921309     0.103572059212     0.996999762278     1.007825032230
         H           -3.299751078691     2.516174059212    -0.409892237722     1.007825032230
         H           -3.565048078691     1.206658059212     0.762634762278     1.007825032230
         H           -2.319428078691     2.432979059212     1.074500762278     1.007825032230
         H            3.555897921309     2.251710059212     0.205857762278     1.007825032230
         H            3.495095921309     1.053036059212    -1.107619237722     1.007825032230
         H            2.316807921309     2.376806059212    -1.062936237722     1.007825032230
         H           -0.238794078691    -2.481167940788    -1.274753237722     1.007825032230

  Basis Set: AUG-CC-PVTZ
    Blend: AUG-CC-PVTZ
  Basis Set: (AUG-CC-PVTZ AUX)
    Blend: AUG-CC-PVTZ-JKFIT
	 Reference Energy          =    -798.3820234976307120 [Eh]
	 Singles Energy            =      -0.0000000000000000 [Eh]
	 Same-Spin Energy          =      -0.4898726664503427 [Eh]
	 Opposite-Spin Energy      =      -1.5388372621194615 [Eh]
	 Correlation Energy        =      -2.0287099285698043 [Eh]
	 Total Energy              =    -800.4107334262005224 [Eh]

	 ================> DF-SCS-MP2 Energies <==================
	-----------------------------------------------------------
	 SCS Same-Spin Scale       =       0.3333333333333333 [-]
	 SCS Opposite-Spin Scale   =       1.2000000000000000 [-]
	 SCS Same-Spin Energy      =      -0.1632908888167809 [Eh]
	 SCS Opposite-Spin Energy  =      -1.8466047145433537 [Eh]
	 SCS Correlation Energy    =      -2.0098956033601345 [Eh]
	 SCS Total Energy          =    -800.3919191009908900 [Eh]
	-----------------------------------------------------------

  Dipole Moment: [D]
     X:    -0.0442      Y:     2.6116      Z:    -2.2615     Total:     3.4549

*** Psi4 exiting successfully. Buy a developer a beer!
