                               Psi4 1.3.2 release

  ==> Input File <==

--------------------------------------------------------------------------
#psi4
#
memory 32 gb

molecule  {
0 1
  P       -0.0032580    -0.8671950     0.1253540
  O       -1.2019148     0.1114876     0.5398427
  O        1.1133490     0.0895100    -0.5478160
  O       -0.6302746    -1.5657874    -1.1894400
  O        0.4670770    -1.7625730     1.2055430
  C       -1.7907810     0.9929110    -0.4324270
  C        1.9592910     0.8227470     0.3828140
  C       -2.8068250     1.8392790     0.2947570
  C        2.8879720     1.6796440    -0.4470910
  H       -1.0045510     1.5998440    -0.8949530
  H       -2.2583930     0.3707270    -1.2026260
  H        1.3234980     1.4321860     1.0341110
  H        2.5053500     0.1039360     0.9973890
  H       -3.3001310     2.5165380    -0.4095030
  H       -3.5654280     1.2070220     0.7630240
  H       -2.3198080     2.4333430     1.0748900
  H        3.5555180     2.2520740     0.2062470
  H        3.4947160     1.0534000    -1.1072300
  H        2.3164280     2.3771700    -1.0625470
  H       -0.2391740    -2.4808040    -1.2743640
units angstrom
no_reorient  #important for SAPT in psi4, default
symmetry c1  #important for SAPT in psi4, default
}

set PROPERTIES_ORIGIN ["COM"]
properties('MP2/aug-cc-pvtz', properties = ['dipole'])
--------------------------------------------------------------------------

    Molecular point group: c1
  Charge       = 0
  Multiplicity = 1
  Basis Set: AUG-CC-PVTZ
    Blend: AUG-CC-PVTZ
  Basis Set: (AUG-CC-PVTZ AUX)
    Blend: AUG-CC-PVTZ-JKFIT

    Orbital Energies [Eh]
    ---------------------

    Doubly Occupied:

       1A    -80.104605     2A    -20.606388     3A    -20.591626
       4A    -20.588843     5A    -20.513509     6A    -11.300071
       7A    -11.298521     8A    -11.230975     9A    -11.228575
      10A     -7.620233    11A     -5.518841    12A     -5.518252
      13A     -5.517184    14A     -1.447366    15A     -1.379291
      16A     -1.375969    17A     -1.293239    18A     -1.041313
      19A     -1.033274    20A     -0.873336    21A     -0.863923
      22A     -0.809847    23A     -0.729761    24A     -0.714830
      25A     -0.681598    26A     -0.658380    27A     -0.651922
      28A     -0.619644    29A     -0.605577    30A     -0.576443
      31A     -0.565774    32A     -0.562794    33A     -0.544841
      34A     -0.539445    35A     -0.534231    36A     -0.518908
      37A     -0.501984    38A     -0.481122    39A     -0.476894
      40A     -0.467079    41A     -0.462265

  @DF-RHF Final Energy:  -798.38667497336871

   => Energetics <=

    Nuclear Repulsion Energy =            628.3764476481256906
    One-Electron Energy =               -2348.2288975489686891
    Two-Electron Energy =                 921.4657749274743992
    Total Energy =                       -798.3866749733687129
  Basis Set: (AUG-CC-PVTZ AUX)
    Blend: AUG-CC-PVTZ-RI
    Molecular point group: c1

    Geometry (in Angstrom), charge = 0, multiplicity = 1:

       Center              X                  Y                   Z               Mass
    ------------   -----------------  -----------------  -----------------  -----------------
         P            0.000766696969    -0.867836964869     0.127307288100    30.973761998420
         O           -1.197890103031     0.110845635131     0.541795988100    15.994914619570
         O            1.117373696969     0.088868035131    -0.545862711900    15.994914619570
         O           -0.626249903031    -1.566429364869    -1.187486711900    15.994914619570
         O            0.471101696969    -1.763214964869     1.207496288100    15.994914619570
         C           -1.786756303031     0.992269035131    -0.430473711900    12.000000000000
         C            1.963315696969     0.822105035131     0.384767288100    12.000000000000
         C           -2.802800303031     1.838637035131     0.296710288100    12.000000000000
         C            2.891996696969     1.679002035131    -0.445137711900    12.000000000000
         H           -1.000526303031     1.599202035131    -0.892999711900     1.007825032230
         H           -2.254368303031     0.370085035131    -1.200672711900     1.007825032230
         H            1.327522696969     1.431544035131     1.036064288100     1.007825032230
         H            2.509374696969     0.103294035131     0.999342288100     1.007825032230
         H           -3.296106303031     2.515896035131    -0.407549711900     1.007825032230
         H           -3.561403303031     1.206380035131     0.764977288100     1.007825032230
         H           -2.315783303031     2.432701035131     1.076843288100     1.007825032230
         H            3.559542696969     2.251432035131     0.208200288100     1.007825032230
         H            3.498740696969     1.052758035131    -1.105276711900     1.007825032230
         H            2.320452696969     2.376528035131    -1.060593711900     1.007825032230
         H           -0.235149303031    -2.481445964869    -1.272410711900     1.007825032230

  Basis Set: AUG-CC-PVTZ
    Blend: AUG-CC-PVTZ
  Basis Set: (AUG-CC-PVTZ AUX)
    Blend: AUG-CC-PVTZ-JKFIT
	 Reference Energy          =    -798.3866749733687129 [Eh]
	 Singles Energy            =      -0.0000000000000000 [Eh]
	 Same-Spin Energy          =      -0.4900437864516136 [Eh]
	 Opposite-Spin Energy      =      -1.5385200804175190 [Eh]
	 Correlation Energy        =      -2.0285638668691326 [Eh]
	 Total Energy              =    -800.4152388402378620 [Eh]

	 ================> DF-SCS-MP2 Energies <==================
	-----------------------------------------------------------
	 SCS Same-Spin Scale       =       0.3333333333333333 [-]
	 SCS Opposite-Spin Scale   =       1.2000000000000000 [-]
	 SCS Same-Spin Energy      =      -0.1633479288172045 [Eh]
	 SCS Opposite-Spin Energy  =      -1.8462240965010226 [Eh]
	 SCS Correlation Energy    =      -2.0095720253182270 [Eh]
	 SCS Total Energy          =    -800.3962469986869337 [Eh]
	-----------------------------------------------------------

  Dipole Moment: [D]
     X:     0.0784      Y:     2.5836      Z:    -2.1618     Total:     3.3697

*** Psi4 exiting successfully. Buy a developer a beer!
