                               Psi4 1.4a3.dev225

  ==> Input File <==

--------------------------------------------------------------------------
#psi4
#
memory 32 gb

molecule  {
0 1
  P       -0.0193980    -0.9573280    -0.1096150
  O        1.2162340    -0.0269160    -0.5415020
  O       -1.1156210     0.0613730     0.5053800
  O        0.5229354    -1.6686381     1.2630483
  O       -0.4960840    -1.8598830    -1.1802340
  C        1.8380650     0.8393470     0.4463000
  C       -1.9139900     0.7949960    -0.4653280
  C        2.8342980     1.7043970    -0.2898420
  C       -2.8451070     1.6924310     0.3153960
  H        1.0624120     1.4376840     0.9337170
  H        2.3223620     0.2121780     1.1993520
  H       -1.2444800     1.3745780    -1.1102950
  H       -2.4582310     0.0769500    -1.0841060
  H        3.3419030     2.3695990     0.4147870
  H        3.5818500     1.0824000    -0.7858930
  H        2.3288000     2.3113610    -1.0437700
  H       -3.4753290     2.2644580    -0.3716610
  H       -3.4879190     1.0956960     0.9656320
  H       -2.2756200     2.3909680     0.9321420
  H        0.1488640    -2.5599310     1.3156750
units angstrom
no_reorient  #important for SAPT in psi4, default
symmetry c1  #important for SAPT in psi4, default
}

set PROPERTIES_ORIGIN ["COM"]
properties('MP2/aug-cc-pvtz', properties = ['dipole'])
--------------------------------------------------------------------------

    Molecular point group: c1
  Charge       = 0
  Multiplicity = 1
  Basis Set: AUG-CC-PVTZ
    Blend: AUG-CC-PVTZ
  Basis Set: (AUG-CC-PVTZ AUX)
    Blend: AUG-CC-PVTZ-JKFIT

    Orbital Energies [Eh]
    ---------------------

    Doubly Occupied:

       1A    -80.107385     2A    -20.603679     3A    -20.592310
       4A    -20.591591     5A    -20.513298     6A    -11.301158
       7A    -11.299718     8A    -11.230268     9A    -11.229997
      10A     -7.622466    11A     -5.520933    12A     -5.520495
      13A     -5.519493    14A     -1.444169    15A     -1.377529
      16A     -1.377059    17A     -1.293378    18A     -1.042083
      19A     -1.034245    20A     -0.873380    21A     -0.864702
      22A     -0.810959    23A     -0.728469    24A     -0.714888
      25A     -0.683251    26A     -0.657141    27A     -0.650734
      28A     -0.618841    29A     -0.606217    30A     -0.575059
      31A     -0.566115    32A     -0.563951    33A     -0.545327
      34A     -0.539648    35A     -0.534749    36A     -0.519284
      37A     -0.504129    38A     -0.481302    39A     -0.479656
      40A     -0.466875    41A     -0.462026

  @DF-RHF Final Energy:  -798.38753205614171

   => Energetics <=

    Nuclear Repulsion Energy =            626.8010633228872166
    One-Electron Energy =               -2345.0412781231771078
    Two-Electron Energy =                 919.8526827441480691
    Total Energy =                       -798.3875320561417084
  Basis Set: (AUG-CC-PVTZ AUX)
    Blend: AUG-CC-PVTZ-RI
    Molecular point group: c1

    Geometry (in Angstrom), charge = 0, multiplicity = 1:

       Center              X                  Y                   Z               Mass
    ------------   -----------------  -----------------  -----------------  -----------------
         P           -0.020959555641    -0.872836841521    -0.101865222220    30.973761998420
         O            1.214672444359     0.057575158479    -0.533752222220    15.994914619570
         O           -1.117182555641     0.145864158479     0.513129777780    15.994914619570
         O            0.521373844359    -1.584146941521     1.270798077780    15.994914619570
         O           -0.497645555641    -1.775391841521    -1.172484222220    15.994914619570
         C            1.836503444359     0.923838158479     0.454049777780    12.000000000000
         C           -1.915551555641     0.879487158479    -0.457578222220    12.000000000000
         C            2.832736444359     1.788888158479    -0.282092222220    12.000000000000
         C           -2.846668555641     1.776922158479     0.323145777780    12.000000000000
         H            1.060850444359     1.522175158479     0.941466777780     1.007825032230
         H            2.320800444359     0.296669158479     1.207101777780     1.007825032230
         H           -1.246041555641     1.459069158479    -1.102545222220     1.007825032230
         H           -2.459792555641     0.161441158479    -1.076356222220     1.007825032230
         H            3.340341444359     2.454090158479     0.422536777780     1.007825032230
         H            3.580288444359     1.166891158479    -0.778143222220     1.007825032230
         H            2.327238444359     2.395852158479    -1.036020222220     1.007825032230
         H           -3.476890555641     2.348949158479    -0.363911222220     1.007825032230
         H           -3.489480555641     1.180187158479     0.973381777780     1.007825032230
         H           -2.277181555641     2.475459158479     0.939891777780     1.007825032230
         H            0.147302444359    -2.475439841521     1.323424777780     1.007825032230

  Basis Set: AUG-CC-PVTZ
    Blend: AUG-CC-PVTZ
  Basis Set: (AUG-CC-PVTZ AUX)
    Blend: AUG-CC-PVTZ-JKFIT
	 Reference Energy          =    -798.3875320561417084 [Eh]
	 Singles Energy            =      -0.0000000000000000 [Eh]
	 Same-Spin Energy          =      -0.4897822914069488 [Eh]
	 Opposite-Spin Energy      =      -1.5384447003942894 [Eh]
	 Correlation Energy        =      -2.0282269918012381 [Eh]
	 Total Energy              =    -800.4157590479429700 [Eh]

	 ================> DF-SCS-MP2 Energies <==================
	-----------------------------------------------------------
	 SCS Same-Spin Scale       =       0.3333333333333333 [-]
	 SCS Opposite-Spin Scale   =       1.2000000000000000 [-]
	 SCS Same-Spin Energy      =      -0.1632607638023163 [Eh]
	 SCS Opposite-Spin Energy  =      -1.8461336404731472 [Eh]
	 SCS Correlation Energy    =      -2.0093944042754637 [Eh]
	 SCS Total Energy          =    -800.3969264604171485 [Eh]
	-----------------------------------------------------------

  Dipole Moment: [D]
     X:     0.1067      Y:     2.7349      Z:     2.0034     Total:     3.3918

*** Psi4 exiting successfully. Buy a developer a beer!
