                               Psi4 1.3.2 release

  ==> Input File <==

--------------------------------------------------------------------------
#psi4
#
memory 32 gb

molecule  {
0 1
  P       -0.0032580    -0.8671950     0.1253540
  O       -1.1867680     0.1204360     0.5615740
  O        1.1133490     0.0895100    -0.5478160
  O       -0.6066630    -1.5809190    -1.1923580
  O        0.4670770    -1.7625730     1.2055430
  C       -1.8738646     1.1129223    -0.5691545
  C        1.9592910     0.8227470     0.3828140
  C       -2.8068250     1.8392790     0.2947570
  C        2.8879720     1.6796440    -0.4470910
  H       -1.0045510     1.5998440    -0.8949530
  H       -2.2583930     0.3707270    -1.2026260
  H        1.3234980     1.4321860     1.0341110
  H        2.5053500     0.1039360     0.9973890
  H       -3.3001310     2.5165380    -0.4095030
  H       -3.5654280     1.2070220     0.7630240
  H       -2.3198080     2.4333430     1.0748900
  H        3.5555180     2.2520740     0.2062470
  H        3.4947160     1.0534000    -1.1072300
  H        2.3164280     2.3771700    -1.0625470
  H       -0.2391740    -2.4808040    -1.2743640
units angstrom
no_reorient  #important for SAPT in psi4, default
symmetry c1  #important for SAPT in psi4, default
}

set PROPERTIES_ORIGIN ["COM"]
properties('MP2/aug-cc-pvtz', properties = ['dipole'])
--------------------------------------------------------------------------

    Molecular point group: c1
  Charge       = 0
  Multiplicity = 1
  Basis Set: AUG-CC-PVTZ
    Blend: AUG-CC-PVTZ
  Basis Set: (AUG-CC-PVTZ AUX)
    Blend: AUG-CC-PVTZ-JKFIT

    Orbital Energies [Eh]
    ---------------------

    Doubly Occupied:

       1A    -80.088839     2A    -20.596791     3A    -20.582391
       4A    -20.563667     5A    -20.499264     6A    -11.315963
       7A    -11.294276     8A    -11.240515     9A    -11.227780
      10A     -7.604511    11A     -5.503103    12A     -5.502481
      13A     -5.501514    14A     -1.429667    15A     -1.370993
      16A     -1.331031    17A     -1.277409    18A     -1.063929
      19A     -1.032302    20A     -0.874984    21A     -0.864593
      22A     -0.800938    23A     -0.722106    24A     -0.692368
      25A     -0.679496    26A     -0.665168    27A     -0.643607
      28A     -0.611287    29A     -0.599011    30A     -0.571717
      31A     -0.564550    32A     -0.560241    33A     -0.542016
      34A     -0.533957    35A     -0.526055    36A     -0.524350
      37A     -0.499898    38A     -0.487755    39A     -0.471976
      40A     -0.453042    41A     -0.446193

  @DF-RHF Final Energy:  -798.36175649276686

   => Energetics <=

    Nuclear Repulsion Energy =            624.4298584054516823
    One-Electron Energy =               -2340.8597645976847161
    Two-Electron Energy =                 918.0681496994660620
    Total Energy =                       -798.3617564927668582
  Basis Set: (AUG-CC-PVTZ AUX)
    Blend: AUG-CC-PVTZ-RI
    Molecular point group: c1

    Geometry (in Angstrom), charge = 0, multiplicity = 1:

       Center              X                  Y                   Z               Mass
    ------------   -----------------  -----------------  -----------------  -----------------
         P            0.003214549055    -0.876544055454     0.136005140982    30.973761998420
         O           -1.180295450945     0.111086944546     0.572225140982    15.994914619570
         O            1.119821549055     0.080160944546    -0.537164859018    15.994914619570
         O           -0.600190450945    -1.590268055454    -1.181706859018    15.994914619570
         O            0.473549549055    -1.771922055454     1.216194140982    15.994914619570
         C           -1.867392050945     1.103573244546    -0.558503359018    12.000000000000
         C            1.965763549055     0.813397944546     0.393465140982    12.000000000000
         C           -2.800352450945     1.829929944546     0.305408140982    12.000000000000
         C            2.894444549055     1.670294944546    -0.436439859018    12.000000000000
         H           -0.998078450945     1.590494944546    -0.884301859018     1.007825032230
         H           -2.251920450945     0.361377944546    -1.191974859018     1.007825032230
         H            1.329970549055     1.422836944546     1.044762140982     1.007825032230
         H            2.511822549055     0.094586944546     1.008040140982     1.007825032230
         H           -3.293658450945     2.507188944546    -0.398851859018     1.007825032230
         H           -3.558955450945     1.197672944546     0.773675140982     1.007825032230
         H           -2.313335450945     2.423993944546     1.085541140982     1.007825032230
         H            3.561990549055     2.242724944546     0.216898140982     1.007825032230
         H            3.501188549055     1.044050944546    -1.096578859018     1.007825032230
         H            2.322900549055     2.367820944546    -1.051895859018     1.007825032230
         H           -0.232701450945    -2.490153055454    -1.263712859018     1.007825032230

  Basis Set: AUG-CC-PVTZ
    Blend: AUG-CC-PVTZ
  Basis Set: (AUG-CC-PVTZ AUX)
    Blend: AUG-CC-PVTZ-JKFIT
	 Reference Energy          =    -798.3617564927668582 [Eh]
	 Singles Energy            =      -0.0000000000000000 [Eh]
	 Same-Spin Energy          =      -0.4906710820471273 [Eh]
	 Opposite-Spin Energy      =      -1.5407852562851905 [Eh]
	 Correlation Energy        =      -2.0314563383323176 [Eh]
	 Total Energy              =    -800.3932128310991629 [Eh]

	 ================> DF-SCS-MP2 Energies <==================
	-----------------------------------------------------------
	 SCS Same-Spin Scale       =       0.3333333333333333 [-]
	 SCS Opposite-Spin Scale   =       1.2000000000000000 [-]
	 SCS Same-Spin Energy      =      -0.1635570273490424 [Eh]
	 SCS Opposite-Spin Energy  =      -1.8489423075422284 [Eh]
	 SCS Correlation Energy    =      -2.0124993348912708 [Eh]
	 SCS Total Energy          =    -800.3742558276580894 [Eh]
	-----------------------------------------------------------

  Dipole Moment: [D]
     X:    -0.7093      Y:     3.2755      Z:    -2.5245     Total:     4.1959

*** Psi4 exiting successfully. Buy a developer a beer!
