                               Psi4 1.3.2 release

  ==> Input File <==

--------------------------------------------------------------------------
#psi4
#
memory 32 gb

molecule  {
0 1
  P       -0.0032580    -0.8671950     0.1253540
  O       -1.1867680     0.1204360     0.5615740
  O        1.1763498     0.0588218    -0.5777837
  O       -0.6066630    -1.5809190    -1.1923580
  O        0.4670770    -1.7625730     1.2055430
  C       -1.7907810     0.9929110    -0.4324270
  C        1.9592910     0.8227470     0.3828140
  C       -2.8068250     1.8392790     0.2947570
  C        2.8879720     1.6796440    -0.4470910
  H       -1.0045510     1.5998440    -0.8949530
  H       -2.2583930     0.3707270    -1.2026260
  H        1.3709270     1.4509732     1.0603065
  H        2.5053500     0.1039360     0.9973890
  H       -3.3001310     2.5165380    -0.4095030
  H       -3.5654280     1.2070220     0.7630240
  H       -2.3198080     2.4333430     1.0748900
  H        3.5555180     2.2520740     0.2062470
  H        3.4947160     1.0534000    -1.1072300
  H        2.3164280     2.3771700    -1.0625470
  H       -0.2391740    -2.4808040    -1.2743640
units angstrom
no_reorient  #important for SAPT in psi4, default
symmetry c1  #important for SAPT in psi4, default
}

set PROPERTIES_ORIGIN ["COM"]
properties('MP2/aug-cc-pvtz', properties = ['dipole'])
--------------------------------------------------------------------------

    Molecular point group: c1
  Charge       = 0
  Multiplicity = 1
  Basis Set: AUG-CC-PVTZ
    Blend: AUG-CC-PVTZ
  Basis Set: (AUG-CC-PVTZ AUX)
    Blend: AUG-CC-PVTZ-JKFIT

    Orbital Energies [Eh]
    ---------------------

    Doubly Occupied:

       1A    -80.108523     2A    -20.606019     3A    -20.597273
       4A    -20.592201     5A    -20.512389     6A    -11.304199
       7A    -11.295777     8A    -11.231942     9A    -11.227242
      10A     -7.623558    11A     -5.522146    12A     -5.521445
      13A     -5.520521    14A     -1.444959    15A     -1.382080
      16A     -1.372824    17A     -1.292422    18A     -1.042351
      19A     -1.031253    20A     -0.871360    21A     -0.862281
      22A     -0.816361    23A     -0.729436    24A     -0.715401
      25A     -0.680532    26A     -0.659227    27A     -0.650877
      28A     -0.615488    29A     -0.608789    30A     -0.577190
      31A     -0.565720    32A     -0.560516    33A     -0.546051
      34A     -0.538151    35A     -0.532888    36A     -0.520004
      37A     -0.503627    38A     -0.483142    39A     -0.478954
      40A     -0.466084    41A     -0.459634

  @DF-RHF Final Energy:  -798.38298992399848

   => Energetics <=

    Nuclear Repulsion Energy =            626.2772264862159091
    One-Electron Energy =               -2343.9787540968172834
    Two-Electron Energy =                 919.3185376866027809
    Total Energy =                       -798.3829899239984798
  Basis Set: (AUG-CC-PVTZ AUX)
    Blend: AUG-CC-PVTZ-RI
    Molecular point group: c1

    Geometry (in Angstrom), charge = 0, multiplicity = 1:

       Center              X                  Y                   Z               Mass
    ------------   -----------------  -----------------  -----------------  -----------------
         P           -0.010109928147    -0.864131287429     0.128294133676    30.973761998420
         O           -1.193619928147     0.123499712571     0.564514133676    15.994914619570
         O            1.169497871853     0.061885512571    -0.574843566324    15.994914619570
         O           -0.613514928147    -1.577855287429    -1.189417866324    15.994914619570
         O            0.460225071853    -1.759509287429     1.208483133676    15.994914619570
         C           -1.797632928147     0.995974712571    -0.429486866324    12.000000000000
         C            1.952439071853     0.825810712571     0.385754133676    12.000000000000
         C           -2.813676928147     1.842342712571     0.297697133676    12.000000000000
         C            2.881120071853     1.682707712571    -0.444150866324    12.000000000000
         H           -1.011402928147     1.602907712571    -0.892012866324     1.007825032230
         H           -2.265244928147     0.373790712571    -1.199685866324     1.007825032230
         H            1.364075071853     1.454036912571     1.063246633676     1.007825032230
         H            2.498498071853     0.106999712571     1.000329133676     1.007825032230
         H           -3.306982928147     2.519601712571    -0.406562866324     1.007825032230
         H           -3.572279928147     1.210085712571     0.765964133676     1.007825032230
         H           -2.326659928147     2.436406712571     1.077830133676     1.007825032230
         H            3.548666071853     2.255137712571     0.209187133676     1.007825032230
         H            3.487864071853     1.056463712571    -1.104289866324     1.007825032230
         H            2.309576071853     2.380233712571    -1.059606866324     1.007825032230
         H           -0.246025928147    -2.477740287429    -1.271423866324     1.007825032230

  Basis Set: AUG-CC-PVTZ
    Blend: AUG-CC-PVTZ
  Basis Set: (AUG-CC-PVTZ AUX)
    Blend: AUG-CC-PVTZ-JKFIT
	 Reference Energy          =    -798.3829899239984798 [Eh]
	 Singles Energy            =      -0.0000000000000000 [Eh]
	 Same-Spin Energy          =      -0.4903493440274082 [Eh]
	 Opposite-Spin Energy      =      -1.5397065902475950 [Eh]
	 Correlation Energy        =      -2.0300559342750031 [Eh]
	 Total Energy              =    -800.4130458582734491 [Eh]

	 ================> DF-SCS-MP2 Energies <==================
	-----------------------------------------------------------
	 SCS Same-Spin Scale       =       0.3333333333333333 [-]
	 SCS Opposite-Spin Scale   =       1.2000000000000000 [-]
	 SCS Same-Spin Energy      =      -0.1634497813424694 [Eh]
	 SCS Opposite-Spin Energy  =      -1.8476479082971140 [Eh]
	 SCS Correlation Energy    =      -2.0110976896395836 [Eh]
	 SCS Total Energy          =    -800.3940876136380211 [Eh]
	-----------------------------------------------------------

  Dipole Moment: [D]
     X:    -0.3787      Y:     2.6404      Z:    -2.1332     Total:     3.4155

*** Psi4 exiting successfully. Buy a developer a beer!
