                               Psi4 1.3.2 release

  ==> Input File <==

--------------------------------------------------------------------------
#psi4
#
memory 32 gb

molecule  {
0 1
  P       -0.0032580    -0.8671950     0.1253540
  O       -1.3345222     0.2437359     0.6160335
  O        1.1133490     0.0895100    -0.5478160
  O       -0.6066630    -1.5809190    -1.1923580
  O        0.4670770    -1.7625730     1.2055430
  C       -1.7907810     0.9929110    -0.4324270
  C        1.9592910     0.8227470     0.3828140
  C       -2.8068250     1.8392790     0.2947570
  C        2.8879720     1.6796440    -0.4470910
  H       -1.0045510     1.5998440    -0.8949530
  H       -2.2583930     0.3707270    -1.2026260
  H        1.3234980     1.4321860     1.0341110
  H        2.5053500     0.1039360     0.9973890
  H       -3.3001310     2.5165380    -0.4095030
  H       -3.5654280     1.2070220     0.7630240
  H       -2.3198080     2.4333430     1.0748900
  H        3.5555180     2.2520740     0.2062470
  H        3.4947160     1.0534000    -1.1072300
  H        2.3164280     2.3771700    -1.0625470
  H       -0.2391740    -2.4808040    -1.2743640
units angstrom
no_reorient  #important for SAPT in psi4, default
symmetry c1  #important for SAPT in psi4, default
}

set PROPERTIES_ORIGIN ["COM"]
properties('MP2/aug-cc-pvtz', properties = ['dipole'])
--------------------------------------------------------------------------

    Molecular point group: c1
  Charge       = 0
  Multiplicity = 1
  Basis Set: AUG-CC-PVTZ
    Blend: AUG-CC-PVTZ
  Basis Set: (AUG-CC-PVTZ AUX)
    Blend: AUG-CC-PVTZ-JKFIT

    Orbital Energies [Eh]
    ---------------------

    Doubly Occupied:

       1A    -80.126399     2A    -20.618897     3A    -20.605878
       4A    -20.588818     5A    -20.528185     6A    -11.306058
       7A    -11.277262     8A    -11.234959     9A    -11.213738
      10A     -7.640008    11A     -5.538311    12A     -5.537642
      13A     -5.536910    14A     -1.446337    15A     -1.390665
      16A     -1.377954    17A     -1.306544    18A     -1.043779
      19A     -1.010625    20A     -0.878426    21A     -0.845034
      22A     -0.822759    23A     -0.734733    24A     -0.711456
      25A     -0.682801    26A     -0.665140    27A     -0.657654
      28A     -0.628269    29A     -0.597588    30A     -0.581602
      31A     -0.574599    32A     -0.560922    33A     -0.545263
      34A     -0.533165    35A     -0.529076    36A     -0.519713
      37A     -0.505567    38A     -0.482581    39A     -0.476878
      40A     -0.458105    41A     -0.455535

  @DF-RHF Final Energy:  -798.35123590097464

   => Energetics <=

    Nuclear Repulsion Energy =            623.0656137364437654
    One-Electron Energy =               -2337.2820291830830683
    Two-Electron Energy =                 915.8651795456646596
    Total Energy =                       -798.3512359009746433
  Basis Set: (AUG-CC-PVTZ AUX)
    Blend: AUG-CC-PVTZ-RI
    Molecular point group: c1

    Geometry (in Angstrom), charge = 0, multiplicity = 1:

       Center              X                  Y                   Z               Mass
    ------------   -----------------  -----------------  -----------------  -----------------
         P            0.012084434056    -0.879997947394     0.119698900565    30.973761998420
         O           -1.319179765944     0.230932952606     0.610378400565    15.994914619570
         O            1.128691434056     0.076707052606    -0.553471099435    15.994914619570
         O           -0.591320565944    -1.593721947394    -1.198013099435    15.994914619570
         O            0.482419434056    -1.775375947394     1.199887900565    15.994914619570
         C           -1.775438565944     0.980108052606    -0.438082099435    12.000000000000
         C            1.974633434056     0.809944052606     0.377158900565    12.000000000000
         C           -2.791482565944     1.826476052606     0.289101900565    12.000000000000
         C            2.903314434056     1.666841052606    -0.452746099435    12.000000000000
         H           -0.989208565944     1.587041052606    -0.900608099435     1.007825032230
         H           -2.243050565944     0.357924052606    -1.208281099435     1.007825032230
         H            1.338840434056     1.419383052606     1.028455900565     1.007825032230
         H            2.520692434056     0.091133052606     0.991733900565     1.007825032230
         H           -3.284788565944     2.503735052606    -0.415158099435     1.007825032230
         H           -3.550085565944     1.194219052606     0.757368900565     1.007825032230
         H           -2.304465565944     2.420540052606     1.069234900565     1.007825032230
         H            3.570860434056     2.239271052606     0.200591900565     1.007825032230
         H            3.510058434056     1.040597052606    -1.112885099435     1.007825032230
         H            2.331770434056     2.364367052606    -1.068202099435     1.007825032230
         H           -0.223831565944    -2.493606947394    -1.280019099435     1.007825032230

  Basis Set: AUG-CC-PVTZ
    Blend: AUG-CC-PVTZ
  Basis Set: (AUG-CC-PVTZ AUX)
    Blend: AUG-CC-PVTZ-JKFIT
	 Reference Energy          =    -798.3512359009746433 [Eh]
	 Singles Energy            =      -0.0000000000000000 [Eh]
	 Same-Spin Energy          =      -0.4927488148125119 [Eh]
	 Opposite-Spin Energy      =      -1.5448672406241113 [Eh]
	 Correlation Energy        =      -2.0376160554366232 [Eh]
	 Total Energy              =    -800.3888519564112585 [Eh]

	 ================> DF-SCS-MP2 Energies <==================
	-----------------------------------------------------------
	 SCS Same-Spin Scale       =       0.3333333333333333 [-]
	 SCS Opposite-Spin Scale   =       1.2000000000000000 [-]
	 SCS Same-Spin Energy      =      -0.1642496049375040 [Eh]
	 SCS Opposite-Spin Energy  =      -1.8538406887489334 [Eh]
	 SCS Correlation Energy    =      -2.0180902936864373 [Eh]
	 SCS Total Energy          =    -800.3693261946610846 [Eh]
	-----------------------------------------------------------

  Dipole Moment: [D]
     X:     1.0637      Y:     1.7823      Z:    -2.2100     Total:     3.0318

*** Psi4 exiting successfully. Buy a developer a beer!
