                               Psi4 1.3.2 release

  ==> Input File <==

--------------------------------------------------------------------------
#psi4
#
memory 32 gb

molecule  {
0 1
  P       -0.0032580    -0.8671950     0.1253540
  O       -1.1867680     0.1204360     0.5615740
  O        1.1133490     0.0895100    -0.5478160
  O       -0.6066630    -1.5809190    -1.1923580
  O        0.4670770    -1.7625730     1.2055430
  C       -1.7907810     0.9929110    -0.4324270
  C        1.9592910     0.8227470     0.3828140
  C       -2.8068250     1.8392790     0.2947570
  C        2.8879720     1.6796440    -0.4470910
  H       -1.0763100     1.5444494    -0.8527384
  H       -2.2583930     0.3707270    -1.2026260
  H        1.3234980     1.4321860     1.0341110
  H        2.5053500     0.1039360     0.9973890
  H       -3.3001310     2.5165380    -0.4095030
  H       -3.5654280     1.2070220     0.7630240
  H       -2.3198080     2.4333430     1.0748900
  H        3.5555180     2.2520740     0.2062470
  H        3.4947160     1.0534000    -1.1072300
  H        2.3164280     2.3771700    -1.0625470
  H       -0.2391740    -2.4808040    -1.2743640
units angstrom
no_reorient  #important for SAPT in psi4, default
symmetry c1  #important for SAPT in psi4, default
}

set PROPERTIES_ORIGIN ["COM"]
properties('MP2/aug-cc-pvtz', properties = ['dipole'])
--------------------------------------------------------------------------

    Molecular point group: c1
  Charge       = 0
  Multiplicity = 1
  Basis Set: AUG-CC-PVTZ
    Blend: AUG-CC-PVTZ
  Basis Set: (AUG-CC-PVTZ AUX)
    Blend: AUG-CC-PVTZ-JKFIT

    Orbital Energies [Eh]
    ---------------------

    Doubly Occupied:

       1A    -80.103764     2A    -20.604577     3A    -20.590558
       4A    -20.589836     5A    -20.510687     6A    -11.299346
       7A    -11.289367     8A    -11.230559     9A    -11.229311
      10A     -7.619387    11A     -5.517925    12A     -5.517413
      13A     -5.516383    14A     -1.446822    15A     -1.379243
      16A     -1.376932    17A     -1.291007    18A     -1.044976
      19A     -1.035123    20A     -0.875880    21A     -0.869203
      22A     -0.814882    23A     -0.733471    24A     -0.718209
      25A     -0.682207    26A     -0.664209    27A     -0.651714
      28A     -0.618905    29A     -0.605125    30A     -0.576751
      31A     -0.565320    32A     -0.562152    33A     -0.544665
      34A     -0.540574    35A     -0.534403    36A     -0.522030
      37A     -0.504171    38A     -0.484876    39A     -0.479980
      40A     -0.465080    41A     -0.460114

  @DF-RHF Final Energy:  -798.38339364060460

   => Energetics <=

    Nuclear Repulsion Energy =            628.5764264884902559
    One-Electron Energy =               -2348.5853588962550020
    Two-Electron Energy =                 921.6255387671602648
    Total Energy =                       -798.3833936406045950
  Basis Set: (AUG-CC-PVTZ AUX)
    Blend: AUG-CC-PVTZ-RI
    Molecular point group: c1

    Geometry (in Angstrom), charge = 0, multiplicity = 1:

       Center              X                  Y                   Z               Mass
    ------------   -----------------  -----------------  -----------------  -----------------
         P           -0.002788344414    -0.866832496373     0.125077586841    30.973761998420
         O           -1.186298344414     0.120798503627     0.561297586841    15.994914619570
         O            1.113818655586     0.089872503627    -0.548092413159    15.994914619570
         O           -0.606193344414    -1.580556496373    -1.192634413159    15.994914619570
         O            0.467546655586    -1.762210496373     1.205266586841    15.994914619570
         C           -1.790311344414     0.993273503627    -0.432703413159    12.000000000000
         C            1.959760655586     0.823109503627     0.382537586841    12.000000000000
         C           -2.806355344414     1.839641503627     0.294480586841    12.000000000000
         C            2.888441655586     1.680006503627    -0.447367413159    12.000000000000
         H           -1.075840344414     1.544811903627    -0.853014813159     1.007825032230
         H           -2.257923344414     0.371089503627    -1.202902413159     1.007825032230
         H            1.323967655586     1.432548503627     1.033834586841     1.007825032230
         H            2.505819655586     0.104298503627     0.997112586841     1.007825032230
         H           -3.299661344414     2.516900503627    -0.409779413159     1.007825032230
         H           -3.564958344414     1.207384503627     0.762747586841     1.007825032230
         H           -2.319338344414     2.433705503627     1.074613586841     1.007825032230
         H            3.555987655586     2.252436503627     0.205970586841     1.007825032230
         H            3.495185655586     1.053762503627    -1.107506413159     1.007825032230
         H            2.316897655586     2.377532503627    -1.062823413159     1.007825032230
         H           -0.238704344414    -2.480441496373    -1.274640413159     1.007825032230

  Basis Set: AUG-CC-PVTZ
    Blend: AUG-CC-PVTZ
  Basis Set: (AUG-CC-PVTZ AUX)
    Blend: AUG-CC-PVTZ-JKFIT
	 Reference Energy          =    -798.3833936406045950 [Eh]
	 Singles Energy            =      -0.0000000000000000 [Eh]
	 Same-Spin Energy          =      -0.4895389886801193 [Eh]
	 Opposite-Spin Energy      =      -1.5372864353512767 [Eh]
	 Correlation Energy        =      -2.0268254240313959 [Eh]
	 Total Energy              =    -800.4102190646359531 [Eh]

	 ================> DF-SCS-MP2 Energies <==================
	-----------------------------------------------------------
	 SCS Same-Spin Scale       =       0.3333333333333333 [-]
	 SCS Opposite-Spin Scale   =       1.2000000000000000 [-]
	 SCS Same-Spin Energy      =      -0.1631796628933731 [Eh]
	 SCS Opposite-Spin Energy  =      -1.8447437224215320 [Eh]
	 SCS Correlation Energy    =      -2.0079233853149052 [Eh]
	 SCS Total Energy          =    -800.3913170259195340 [Eh]
	-----------------------------------------------------------

  Dipole Moment: [D]
     X:    -0.0507      Y:     2.6795      Z:    -2.2415     Total:     3.4938

*** Psi4 exiting successfully. Buy a developer a beer!
