                               Psi4 1.3.2 release

  ==> Input File <==

--------------------------------------------------------------------------
#psi4
#
memory 32 gb

molecule  {
0 1
  P       -0.0032580    -0.8671950     0.1253540
  O       -1.1418058     0.1842759     0.5309606
  O        1.0627405     0.1556277    -0.5324714
  O       -0.6066630    -1.5809190    -1.1923580
  O        0.4670770    -1.7625730     1.2055430
  C       -1.7907810     0.9929110    -0.4324270
  C        1.9592910     0.8227470     0.3828140
  C       -2.8068250     1.8392790     0.2947570
  C        2.8879720     1.6796440    -0.4470910
  H       -1.0045510     1.5998440    -0.8949530
  H       -2.2583930     0.3707270    -1.2026260
  H        1.3234980     1.4321860     1.0341110
  H        2.5053500     0.1039360     0.9973890
  H       -3.3001310     2.5165380    -0.4095030
  H       -3.5654280     1.2070220     0.7630240
  H       -2.3198080     2.4333430     1.0748900
  H        3.5555180     2.2520740     0.2062470
  H        3.4947160     1.0534000    -1.1072300
  H        2.3164280     2.3771700    -1.0625470
  H       -0.2391740    -2.4808040    -1.2743640
units angstrom
no_reorient  #important for SAPT in psi4, default
symmetry c1  #important for SAPT in psi4, default
}

set PROPERTIES_ORIGIN ["COM"]
properties('MP2/aug-cc-pvtz', properties = ['dipole'])
--------------------------------------------------------------------------

    Molecular point group: c1
  Charge       = 0
  Multiplicity = 1
  Basis Set: AUG-CC-PVTZ
    Blend: AUG-CC-PVTZ
  Basis Set: (AUG-CC-PVTZ AUX)
    Blend: AUG-CC-PVTZ-JKFIT

    Orbital Energies [Eh]
    ---------------------

    Doubly Occupied:

       1A    -80.108036     2A    -20.609931     3A    -20.586257
       4A    -20.585765     5A    -20.519098     6A    -11.296579
       7A    -11.294633     8A    -11.228754     9A    -11.226523
      10A     -7.623436    11A     -5.522008    12A     -5.521605
      13A     -5.520357    14A     -1.452106    15A     -1.386490
      16A     -1.377959    17A     -1.298296    18A     -1.040516
      19A     -1.030126    20A     -0.875962    21A     -0.863470
      22A     -0.812472    23A     -0.733758    24A     -0.717657
      25A     -0.685239    26A     -0.660202    27A     -0.652130
      28A     -0.620646    29A     -0.607420    30A     -0.578523
      31A     -0.568054    32A     -0.560815    33A     -0.545431
      34A     -0.538644    35A     -0.534732    36A     -0.516107
      37A     -0.500256    38A     -0.476477    39A     -0.472519
      40A     -0.471067    41A     -0.462966

  @DF-RHF Final Energy:  -798.38608061985883

   => Energetics <=

    Nuclear Repulsion Energy =            629.8229714476207164
    One-Electron Energy =               -2351.0520609007076018
    Two-Electron Energy =                 922.8430088332281684
    Total Energy =                       -798.3860806198588307
  Basis Set: (AUG-CC-PVTZ AUX)
    Blend: AUG-CC-PVTZ-RI
    Molecular point group: c1

    Geometry (in Angstrom), charge = 0, multiplicity = 1:

       Center              X                  Y                   Z               Mass
    ------------   -----------------  -----------------  -----------------  -----------------
         P           -0.002671545993    -0.880689259336     0.126939239798    30.973761998420
         O           -1.141219345993     0.170781640664     0.532545839798    15.994914619570
         O            1.063326954007     0.142133440664    -0.530886160202    15.994914619570
         O           -0.606076545993    -1.594413259336    -1.190772760202    15.994914619570
         O            0.467663454007    -1.776067259336     1.207128239798    15.994914619570
         C           -1.790194545993     0.979416740664    -0.430841760202    12.000000000000
         C            1.959877454007     0.809252740664     0.384399239798    12.000000000000
         C           -2.806238545993     1.825784740664     0.296342239798    12.000000000000
         C            2.888558454007     1.666149740664    -0.445505760202    12.000000000000
         H           -1.003964545993     1.586349740664    -0.893367760202     1.007825032230
         H           -2.257806545993     0.357232740664    -1.201040760202     1.007825032230
         H            1.324084454007     1.418691740664     1.035696239798     1.007825032230
         H            2.505936454007     0.090441740664     0.998974239798     1.007825032230
         H           -3.299544545993     2.503043740664    -0.407917760202     1.007825032230
         H           -3.564841545993     1.193527740664     0.764609239798     1.007825032230
         H           -2.319221545993     2.419848740664     1.076475239798     1.007825032230
         H            3.556104454007     2.238579740664     0.207832239798     1.007825032230
         H            3.495302454007     1.039905740664    -1.105644760202     1.007825032230
         H            2.317014454007     2.363675740664    -1.060961760202     1.007825032230
         H           -0.238587545993    -2.494298259336    -1.272778760202     1.007825032230

  Basis Set: AUG-CC-PVTZ
    Blend: AUG-CC-PVTZ
  Basis Set: (AUG-CC-PVTZ AUX)
    Blend: AUG-CC-PVTZ-JKFIT
	 Reference Energy          =    -798.3860806198588307 [Eh]
	 Singles Energy            =      -0.0000000000000000 [Eh]
	 Same-Spin Energy          =      -0.4897855824724345 [Eh]
	 Opposite-Spin Energy      =      -1.5373253368675504 [Eh]
	 Correlation Energy        =      -2.0271109193399850 [Eh]
	 Total Energy              =    -800.4131915391988059 [Eh]

	 ================> DF-SCS-MP2 Energies <==================
	-----------------------------------------------------------
	 SCS Same-Spin Scale       =       0.3333333333333333 [-]
	 SCS Opposite-Spin Scale   =       1.2000000000000000 [-]
	 SCS Same-Spin Energy      =      -0.1632618608241448 [Eh]
	 SCS Opposite-Spin Energy  =      -1.8447904042410603 [Eh]
	 SCS Correlation Energy    =      -2.0080522650652051 [Eh]
	 SCS Total Energy          =    -800.3941328849240335 [Eh]
	-----------------------------------------------------------

  Dipole Moment: [D]
     X:     0.0157      Y:     2.1785      Z:    -2.1355     Total:     3.0506

*** Psi4 exiting successfully. Buy a developer a beer!
