                               Psi4 1.3.2 release

  ==> Input File <==

--------------------------------------------------------------------------
#psi4
#
memory 32 gb

molecule  {
0 1
  P       -0.0032580    -0.8671950     0.1253540
  O       -1.1869624     0.1258047     0.5486674
  O        1.1133490     0.0895100    -0.5478160
  O       -0.6066630    -1.5809190    -1.1923580
  O        0.4756738    -1.7677605     1.1974226
  C       -1.7907810     0.9929110    -0.4324270
  C        1.9592910     0.8227470     0.3828140
  C       -2.8068250     1.8392790     0.2947570
  C        2.8879720     1.6796440    -0.4470910
  H       -1.0045510     1.5998440    -0.8949530
  H       -2.2583930     0.3707270    -1.2026260
  H        1.3234980     1.4321860     1.0341110
  H        2.5053500     0.1039360     0.9973890
  H       -3.3001310     2.5165380    -0.4095030
  H       -3.5654280     1.2070220     0.7630240
  H       -2.3198080     2.4333430     1.0748900
  H        3.5555180     2.2520740     0.2062470
  H        3.4947160     1.0534000    -1.1072300
  H        2.3164280     2.3771700    -1.0625470
  H       -0.2391740    -2.4808040    -1.2743640
units angstrom
no_reorient  #important for SAPT in psi4, default
symmetry c1  #important for SAPT in psi4, default
}

set PROPERTIES_ORIGIN ["COM"]
properties('MP2/aug-cc-pvtz', properties = ['dipole'])
--------------------------------------------------------------------------

    Molecular point group: c1
  Charge       = 0
  Multiplicity = 1
  Basis Set: AUG-CC-PVTZ
    Blend: AUG-CC-PVTZ
  Basis Set: (AUG-CC-PVTZ AUX)
    Blend: AUG-CC-PVTZ-JKFIT

    Orbital Energies [Eh]
    ---------------------

    Doubly Occupied:

       1A    -80.104882     2A    -20.604326     3A    -20.591386
       4A    -20.589886     5A    -20.512327     6A    -11.300244
       7A    -11.299156     8A    -11.230353     9A    -11.229604
      10A     -7.620442    11A     -5.519006    12A     -5.518486
      13A     -5.517418    14A     -1.448083    15A     -1.380807
      16A     -1.377727    17A     -1.292432    18A     -1.041731
      19A     -1.033406    20A     -0.873862    21A     -0.864404
      22A     -0.813034    23A     -0.731321    24A     -0.716310
      25A     -0.682715    26A     -0.658585    27A     -0.651727
      28A     -0.618970    29A     -0.607126    30A     -0.576563
      31A     -0.565565    32A     -0.562581    33A     -0.545413
      34A     -0.539295    35A     -0.534323    36A     -0.519151
      37A     -0.503022    38A     -0.480588    39A     -0.478279
      40A     -0.466377    41A     -0.461156

  @DF-RHF Final Energy:  -798.38904977883260

   => Energetics <=

    Nuclear Repulsion Energy =            628.3410289511056135
    One-Electron Energy =               -2348.1360207750658446
    Two-Electron Energy =                 921.4059420451275173
    Total Energy =                       -798.3890497788326002
  Basis Set: (AUG-CC-PVTZ AUX)
    Blend: AUG-CC-PVTZ-RI
    Molecular point group: c1

    Geometry (in Angstrom), charge = 0, multiplicity = 1:

       Center              X                  Y                   Z               Mass
    ------------   -----------------  -----------------  -----------------  -----------------
         P           -0.004130313148    -0.867213738488     0.127537150853    30.973761998420
         O           -1.187834713148     0.125785961512     0.550850550853    15.994914619570
         O            1.112476686852     0.089491261512    -0.545632849147    15.994914619570
         O           -0.607535313148    -1.580937738487    -1.190174849147    15.994914619570
         O            0.474801486852    -1.767779238487     1.199605750853    15.994914619570
         C           -1.791653313148     0.992892261512    -0.430243849147    12.000000000000
         C            1.958418686852     0.822728261513     0.384997150853    12.000000000000
         C           -2.807697313148     1.839260261513     0.296940150853    12.000000000000
         C            2.887099686852     1.679625261513    -0.444907849147    12.000000000000
         H           -1.005423313148     1.599825261512    -0.892769849147     1.007825032230
         H           -2.259265313148     0.370708261512    -1.200442849147     1.007825032230
         H            1.322625686852     1.432167261513     1.036294150853     1.007825032230
         H            2.504477686852     0.103917261512     0.999572150853     1.007825032230
         H           -3.301003313148     2.516519261513    -0.407319849147     1.007825032230
         H           -3.566300313148     1.207003261512     0.765207150853     1.007825032230
         H           -2.320680313148     2.433324261512     1.077073150853     1.007825032230
         H            3.554645686852     2.252055261512     0.208430150853     1.007825032230
         H            3.493843686852     1.053381261512    -1.105046849147     1.007825032230
         H            2.315555686852     2.377151261513    -1.060363849147     1.007825032230
         H           -0.240046313148    -2.480822738488    -1.272180849147     1.007825032230

  Basis Set: AUG-CC-PVTZ
    Blend: AUG-CC-PVTZ
  Basis Set: (AUG-CC-PVTZ AUX)
    Blend: AUG-CC-PVTZ-JKFIT
	 Reference Energy          =    -798.3890497788326002 [Eh]
	 Singles Energy            =      -0.0000000000000000 [Eh]
	 Same-Spin Energy          =      -0.4896606896431896 [Eh]
	 Opposite-Spin Energy      =      -1.5377030661773898 [Eh]
	 Correlation Energy        =      -2.0273637558205793 [Eh]
	 Total Energy              =    -800.4164135346532021 [Eh]

	 ================> DF-SCS-MP2 Energies <==================
	-----------------------------------------------------------
	 SCS Same-Spin Scale       =       0.3333333333333333 [-]
	 SCS Opposite-Spin Scale   =       1.2000000000000000 [-]
	 SCS Same-Spin Energy      =      -0.1632202298810632 [Eh]
	 SCS Opposite-Spin Energy  =      -1.8452436794128677 [Eh]
	 SCS Correlation Energy    =      -2.0084639092939307 [Eh]
	 SCS Total Energy          =    -800.3975136881265371 [Eh]
	-----------------------------------------------------------

  Dipole Moment: [D]
     X:    -0.0655      Y:     2.6231      Z:    -2.1511     Total:     3.3929

*** Psi4 exiting successfully. Buy a developer a beer!
