                               Psi4 1.3.2 release

  ==> Input File <==

--------------------------------------------------------------------------
#psi4
#
memory 32 gb

molecule  {
0 1
  P       -0.0202388    -0.8821070     0.0736281
  O       -1.1867680     0.1204360     0.5615740
  O        1.1133490     0.0895100    -0.5478160
  O       -0.6066630    -1.5809190    -1.1923580
  O        0.4670770    -1.7625730     1.2055430
  C       -1.7907810     0.9929110    -0.4324270
  C        1.9835098     0.8433510     0.3431782
  C       -2.8068250     1.8392790     0.2947570
  C        2.8879720     1.6796440    -0.4470910
  H       -1.0045510     1.5998440    -0.8949530
  H       -2.2583930     0.3707270    -1.2026260
  H        1.3234980     1.4321860     1.0341110
  H        2.5053500     0.1039360     0.9973890
  H       -3.3001310     2.5165380    -0.4095030
  H       -3.5654280     1.2070220     0.7630240
  H       -2.3198080     2.4333430     1.0748900
  H        3.5555180     2.2520740     0.2062470
  H        3.4947160     1.0534000    -1.1072300
  H        2.3164280     2.3771700    -1.0625470
  H       -0.2391740    -2.4808040    -1.2743640
units angstrom
no_reorient  #important for SAPT in psi4, default
symmetry c1  #important for SAPT in psi4, default
}

set PROPERTIES_ORIGIN ["COM"]
properties('MP2/aug-cc-pvtz', properties = ['dipole'])
--------------------------------------------------------------------------

    Molecular point group: c1
  Charge       = 0
  Multiplicity = 1
  Basis Set: AUG-CC-PVTZ
    Blend: AUG-CC-PVTZ
  Basis Set: (AUG-CC-PVTZ AUX)
    Blend: AUG-CC-PVTZ-JKFIT

    Orbital Energies [Eh]
    ---------------------

    Doubly Occupied:

       1A    -80.105866     2A    -20.619998     3A    -20.589020
       4A    -20.586468     5A    -20.503607     6A    -11.299949
       7A    -11.299913     8A    -11.229136     9A    -11.228231
      10A     -7.621081    11A     -5.519863    12A     -5.519123
      13A     -5.517840    14A     -1.458985    15A     -1.392302
      16A     -1.373021    17A     -1.270133    18A     -1.048173
      19A     -1.035224    20A     -0.874601    21A     -0.861296
      22A     -0.819999    23A     -0.738033    24A     -0.714811
      25A     -0.682293    26A     -0.667800    27A     -0.652261
      28A     -0.621265    29A     -0.604758    30A     -0.587484
      31A     -0.567390    32A     -0.561713    33A     -0.545589
      34A     -0.540321    35A     -0.532561    36A     -0.517435
      37A     -0.503525    38A     -0.478065    39A     -0.467698
      40A     -0.452577    41A     -0.447292

  @DF-RHF Final Energy:  -798.38124870484535

   => Energetics <=

    Nuclear Repulsion Energy =            628.0297173943471307
    One-Electron Energy =               -2347.5085325603654383
    Two-Electron Energy =                 921.0975664611728462
    Total Energy =                       -798.3812487048453477
  Basis Set: (AUG-CC-PVTZ AUX)
    Blend: AUG-CC-PVTZ-RI
    Molecular point group: c1

    Geometry (in Angstrom), charge = 0, multiplicity = 1:

       Center              X                  Y                   Z               Mass
    ------------   -----------------  -----------------  -----------------  -----------------
         P           -0.018710888930    -0.880713561589     0.087116469924    30.973761998420
         O           -1.185240088930     0.121829438411     0.575062369924    15.994914619570
         O            1.114876911070     0.090903438411    -0.534327630076    15.994914619570
         O           -0.605135088930    -1.579525561589    -1.178869630076    15.994914619570
         O            0.468604911070    -1.761179561589     1.219031369924    15.994914619570
         C           -1.789253088930     0.994304438411    -0.418938630076    12.000000000000
         C            1.985037711070     0.844744438411     0.356666569924    12.000000000000
         C           -2.805297088930     1.840672438411     0.308245369924    12.000000000000
         C            2.889499911070     1.681037438411    -0.433602630076    12.000000000000
         H           -1.003023088930     1.601237438411    -0.881464630076     1.007825032230
         H           -2.256865088930     0.372120438411    -1.189137630076     1.007825032230
         H            1.325025911070     1.433579438411     1.047599369924     1.007825032230
         H            2.506877911070     0.105329438411     1.010877369924     1.007825032230
         H           -3.298603088930     2.517931438411    -0.396014630076     1.007825032230
         H           -3.563900088930     1.208415438411     0.776512369924     1.007825032230
         H           -2.318280088930     2.434736438411     1.088378369924     1.007825032230
         H            3.557045911070     2.253467438411     0.219735369924     1.007825032230
         H            3.496243911070     1.054793438411    -1.093741630076     1.007825032230
         H            2.317955911070     2.378563438411    -1.049058630076     1.007825032230
         H           -0.237646088930    -2.479410561589    -1.260875630076     1.007825032230

  Basis Set: AUG-CC-PVTZ
    Blend: AUG-CC-PVTZ
  Basis Set: (AUG-CC-PVTZ AUX)
    Blend: AUG-CC-PVTZ-JKFIT
	 Reference Energy          =    -798.3812487048453477 [Eh]
	 Singles Energy            =      -0.0000000000000000 [Eh]
	 Same-Spin Energy          =      -0.4903729787293465 [Eh]
	 Opposite-Spin Energy      =      -1.5384866477440924 [Eh]
	 Correlation Energy        =      -2.0288596264734391 [Eh]
	 Total Energy              =    -800.4101083313188383 [Eh]

	 ================> DF-SCS-MP2 Energies <==================
	-----------------------------------------------------------
	 SCS Same-Spin Scale       =       0.3333333333333333 [-]
	 SCS Opposite-Spin Scale   =       1.2000000000000000 [-]
	 SCS Same-Spin Energy      =      -0.1634576595764488 [Eh]
	 SCS Opposite-Spin Energy  =      -1.8461839772929107 [Eh]
	 SCS Correlation Energy    =      -2.0096416368693597 [Eh]
	 SCS Total Energy          =    -800.3908903417146803 [Eh]
	-----------------------------------------------------------

  Dipole Moment: [D]
     X:    -0.1642      Y:     2.5038      Z:    -2.7370     Total:     3.7131

*** Psi4 exiting successfully. Buy a developer a beer!
