                               Psi4 1.3.2 release

  ==> Input File <==

--------------------------------------------------------------------------
#psi4
#
memory 32 gb

molecule  {
0 1
  P       -0.0032580    -0.8671950     0.1253540
  O       -1.1867680     0.1204360     0.5615740
  O        1.1133490     0.0895100    -0.5478160
  O       -0.6113285    -1.5555201    -1.2036769
  O        0.4736880    -1.7418788     1.2195093
  C       -1.7907810     0.9929110    -0.4324270
  C        1.9592910     0.8227470     0.3828140
  C       -2.8068250     1.8392790     0.2947570
  C        2.8879720     1.6796440    -0.4470910
  H       -1.0045510     1.5998440    -0.8949530
  H       -2.2583930     0.3707270    -1.2026260
  H        1.3234980     1.4321860     1.0341110
  H        2.5053500     0.1039360     0.9973890
  H       -3.3001310     2.5165380    -0.4095030
  H       -3.5654280     1.2070220     0.7630240
  H       -2.3198080     2.4333430     1.0748900
  H        3.5555180     2.2520740     0.2062470
  H        3.4947160     1.0534000    -1.1072300
  H        2.3164280     2.3771700    -1.0625470
  H       -0.2391740    -2.4808040    -1.2743640
units angstrom
no_reorient  #important for SAPT in psi4, default
symmetry c1  #important for SAPT in psi4, default
}

set PROPERTIES_ORIGIN ["COM"]
properties('MP2/aug-cc-pvtz', properties = ['dipole'])
--------------------------------------------------------------------------

    Molecular point group: c1
  Charge       = 0
  Multiplicity = 1
  Basis Set: AUG-CC-PVTZ
    Blend: AUG-CC-PVTZ
  Basis Set: (AUG-CC-PVTZ AUX)
    Blend: AUG-CC-PVTZ-JKFIT

    Orbital Energies [Eh]
    ---------------------

    Doubly Occupied:

       1A    -80.103765     2A    -20.608998     3A    -20.589438
       4A    -20.588954     5A    -20.512592     6A    -11.300329
       7A    -11.298116     8A    -11.229745     9A    -11.229306
      10A     -7.619473    11A     -5.518034    12A     -5.517483
      13A     -5.516452    14A     -1.446099    15A     -1.376377
      16A     -1.375823    17A     -1.292382    18A     -1.040739
      19A     -1.032842    20A     -0.871650    21A     -0.863092
      22A     -0.809653    23A     -0.727756    24A     -0.713731
      25A     -0.681406    26A     -0.657657    27A     -0.651855
      28A     -0.618092    29A     -0.604493    30A     -0.576532
      31A     -0.565821    32A     -0.561715    33A     -0.544267
      34A     -0.538557    35A     -0.533735    36A     -0.518751
      37A     -0.502990    38A     -0.480121    39A     -0.478391
      40A     -0.466631    41A     -0.460904

  @DF-RHF Final Energy:  -798.38613484656344

   => Energetics <=

    Nuclear Repulsion Energy =            628.3119689188901020
    One-Electron Energy =               -2348.1467118854561704
    Two-Electron Energy =                 921.4486081200025183
    Total Energy =                       -798.3861348465634364
  Basis Set: (AUG-CC-PVTZ AUX)
    Blend: AUG-CC-PVTZ-RI
    Molecular point group: c1

    Geometry (in Angstrom), charge = 0, multiplicity = 1:

       Center              X                  Y                   Z               Mass
    ------------   -----------------  -----------------  -----------------  -----------------
         P           -0.003459851565    -0.871981067260     0.125078885168    30.973761998420
         O           -1.186969851565     0.115649932740     0.561298885168    15.994914619570
         O            1.113147148435     0.084723932740    -0.548091114832    15.994914619570
         O           -0.611530351565    -1.560306167260    -1.203952014832    15.994914619570
         O            0.473486148435    -1.746664867260     1.219234185168    15.994914619570
         C           -1.790982851565     0.988124932740    -0.432702114832    12.000000000000
         C            1.959089148435     0.817960932740     0.382538885168    12.000000000000
         C           -2.807026851565     1.834492932740     0.294481885168    12.000000000000
         C            2.887770148435     1.674857932740    -0.447366114832    12.000000000000
         H           -1.004752851565     1.595057932740    -0.895228114832     1.007825032230
         H           -2.258594851565     0.365940932740    -1.202901114832     1.007825032230
         H            1.323296148435     1.427399932740     1.033835885168     1.007825032230
         H            2.505148148435     0.099149932740     0.997113885168     1.007825032230
         H           -3.300332851565     2.511751932740    -0.409778114832     1.007825032230
         H           -3.565629851565     1.202235932740     0.762748885168     1.007825032230
         H           -2.320009851565     2.428556932740     1.074614885168     1.007825032230
         H            3.555316148435     2.247287932740     0.205971885168     1.007825032230
         H            3.494514148435     1.048613932740    -1.107505114832     1.007825032230
         H            2.316226148435     2.372383932740    -1.062822114832     1.007825032230
         H           -0.239375851565    -2.485590067260    -1.274639114832     1.007825032230

  Basis Set: AUG-CC-PVTZ
    Blend: AUG-CC-PVTZ
  Basis Set: (AUG-CC-PVTZ AUX)
    Blend: AUG-CC-PVTZ-JKFIT
	 Reference Energy          =    -798.3861348465634364 [Eh]
	 Singles Energy            =      -0.0000000000000000 [Eh]
	 Same-Spin Energy          =      -0.4901537597441480 [Eh]
	 Opposite-Spin Energy      =      -1.5389458438001054 [Eh]
	 Correlation Energy        =      -2.0290996035442532 [Eh]
	 Total Energy              =    -800.4152344501077323 [Eh]

	 ================> DF-SCS-MP2 Energies <==================
	-----------------------------------------------------------
	 SCS Same-Spin Scale       =       0.3333333333333333 [-]
	 SCS Opposite-Spin Scale   =       1.2000000000000000 [-]
	 SCS Same-Spin Energy      =      -0.1633845865813827 [Eh]
	 SCS Opposite-Spin Energy  =      -1.8467350125601263 [Eh]
	 SCS Correlation Energy    =      -2.0101195991415088 [Eh]
	 SCS Total Energy          =    -800.3962544457049262 [Eh]
	-----------------------------------------------------------

  Dipole Moment: [D]
     X:    -0.0775      Y:     2.4951      Z:    -2.2315     Total:     3.3483

*** Psi4 exiting successfully. Buy a developer a beer!
