                               Psi4 1.4a3.dev225

  ==> Input File <==

--------------------------------------------------------------------------
#psi4
#
memory 32 gb

molecule  {
0 1
  P       -0.0193980    -0.9573280    -0.1096150
  O        1.2162340    -0.0269160    -0.5415020
  O       -1.1156210     0.0613730     0.5053800
  O        0.5163150    -1.6599550     1.2462920
  O       -0.4960840    -1.8598830    -1.1802340
  C        1.8380650     0.8393470     0.4463000
  C       -1.9139900     0.7949960    -0.4653280
  C        2.8342980     1.7043970    -0.2898420
  C       -2.8451070     1.6924310     0.3153960
  H        1.0765899     1.4267472     0.9248077
  H        2.3223620     0.2121780     1.1993520
  H       -1.2444800     1.3745780    -1.1102950
  H       -2.4582310     0.0769500    -1.0841060
  H        3.3419030     2.3695990     0.4147870
  H        3.5818500     1.0824000    -0.7858930
  H        2.3288000     2.3113610    -1.0437700
  H       -3.4753290     2.2644580    -0.3716610
  H       -3.4879190     1.0956960     0.9656320
  H       -2.2756200     2.3909680     0.9321420
  H        0.1488640    -2.5599310     1.3156750
units angstrom
no_reorient  #important for SAPT in psi4, default
symmetry c1  #important for SAPT in psi4, default
}

set PROPERTIES_ORIGIN ["COM"]
properties('MP2/aug-cc-pvtz', properties = ['dipole'])
--------------------------------------------------------------------------

    Molecular point group: c1
  Charge       = 0
  Multiplicity = 1
  Basis Set: AUG-CC-PVTZ
    Blend: AUG-CC-PVTZ
  Basis Set: (AUG-CC-PVTZ AUX)
    Blend: AUG-CC-PVTZ-JKFIT

    Orbital Energies [Eh]
    ---------------------

    Doubly Occupied:

       1A    -80.104984     2A    -20.604936     3A    -20.590787
       4A    -20.590455     5A    -20.511483     6A    -11.298967
       7A    -11.298372     8A    -11.229803     9A    -11.229506
      10A     -7.620433    11A     -5.518951    12A     -5.518444
      13A     -5.517459    14A     -1.445954    15A     -1.379032
      16A     -1.376535    17A     -1.291915    18A     -1.041980
      19A     -1.034055    20A     -0.873510    21A     -0.865326
      22A     -0.813016    23A     -0.729962    24A     -0.715748
      25A     -0.682881    26A     -0.658529    27A     -0.651997
      28A     -0.618210    29A     -0.605435    30A     -0.576487
      31A     -0.565815    32A     -0.563653    33A     -0.544607
      34A     -0.539603    35A     -0.534961    36A     -0.519182
      37A     -0.503553    38A     -0.481302    39A     -0.479314
      40A     -0.465767    41A     -0.460744

  @DF-RHF Final Energy:  -798.38885590758014

   => Energetics <=

    Nuclear Repulsion Energy =            627.6965521481508858
    One-Electron Energy =               -2346.8635110386821907
    Two-Electron Energy =                 920.7781029829511681
    Total Energy =                       -798.3888559075801368
  Basis Set: (AUG-CC-PVTZ AUX)
    Blend: AUG-CC-PVTZ-RI
    Molecular point group: c1

    Geometry (in Angstrom), charge = 0, multiplicity = 1:

       Center              X                  Y                   Z               Mass
    ------------   -----------------  -----------------  -----------------  -----------------
         P           -0.020364877700    -0.873666908262    -0.100067017143    30.973761998420
         O            1.215267122300     0.056745091738    -0.531954017143    15.994914619570
         O           -1.116587877700     0.145034091738     0.514927982857    15.994914619570
         O            0.515348122300    -1.576293908262     1.255839982857    15.994914619570
         O           -0.497050877700    -1.776221908262    -1.170686017143    15.994914619570
         C            1.837098122300     0.923008091738     0.455847982857    12.000000000000
         C           -1.914956877700     0.878657091738    -0.455780017143    12.000000000000
         C            2.833331122300     1.788058091738    -0.280294017143    12.000000000000
         C           -2.846073877700     1.776092091738     0.324943982857    12.000000000000
         H            1.075623022300     1.510408291738     0.934355682857     1.007825032230
         H            2.321395122300     0.295839091738     1.208899982857     1.007825032230
         H           -1.245446877700     1.458239091738    -1.100747017143     1.007825032230
         H           -2.459197877700     0.160611091738    -1.074558017143     1.007825032230
         H            3.340936122300     2.453260091738     0.424334982857     1.007825032230
         H            3.580883122300     1.166061091738    -0.776345017143     1.007825032230
         H            2.327833122300     2.395022091738    -1.034222017143     1.007825032230
         H           -3.476295877700     2.348119091738    -0.362113017143     1.007825032230
         H           -3.488885877700     1.179357091738     0.975179982857     1.007825032230
         H           -2.276586877700     2.474629091738     0.941689982857     1.007825032230
         H            0.147897122300    -2.476269908262     1.325222982857     1.007825032230

  Basis Set: AUG-CC-PVTZ
    Blend: AUG-CC-PVTZ
  Basis Set: (AUG-CC-PVTZ AUX)
    Blend: AUG-CC-PVTZ-JKFIT
	 Reference Energy          =    -798.3888559075801368 [Eh]
	 Singles Energy            =      -0.0000000000000000 [Eh]
	 Same-Spin Energy          =      -0.4896360469665624 [Eh]
	 Opposite-Spin Energy      =      -1.5377938349587998 [Eh]
	 Correlation Energy        =      -2.0274298819253622 [Eh]
	 Total Energy              =    -800.4162857895055367 [Eh]

	 ================> DF-SCS-MP2 Energies <==================
	-----------------------------------------------------------
	 SCS Same-Spin Scale       =       0.3333333333333333 [-]
	 SCS Opposite-Spin Scale   =       1.2000000000000000 [-]
	 SCS Same-Spin Energy      =      -0.1632120156555208 [Eh]
	 SCS Opposite-Spin Energy  =      -1.8453526019505597 [Eh]
	 SCS Correlation Energy    =      -2.0085646176060807 [Eh]
	 SCS Total Energy          =    -800.3974205251862486 [Eh]
	-----------------------------------------------------------

  Dipole Moment: [D]
     X:     0.1387      Y:     2.6639      Z:     2.1074     Total:     3.3995

*** Psi4 exiting successfully. Buy a developer a beer!
