                               Psi4 1.3.2 release

  ==> Input File <==

--------------------------------------------------------------------------
#psi4
#
memory 32 gb

molecule  {
0 1
  P        0.0150832    -0.8511175     0.1762598
  O       -1.1867680     0.1204360     0.5615740
  O        1.1133490     0.0895100    -0.5478160
  O       -0.6066630    -1.5809190    -1.1923580
  O        0.4670770    -1.7625730     1.2055430
  C       -1.7907810     0.9929110    -0.4324270
  C        1.9340416     0.8012497     0.4213160
  C       -2.8068250     1.8392790     0.2947570
  C        2.8879720     1.6796440    -0.4470910
  H       -1.0045510     1.5998440    -0.8949530
  H       -2.2583930     0.3707270    -1.2026260
  H        1.3234980     1.4321860     1.0341110
  H        2.5053500     0.1039360     0.9973890
  H       -3.3001310     2.5165380    -0.4095030
  H       -3.5654280     1.2070220     0.7630240
  H       -2.3198080     2.4333430     1.0748900
  H        3.5555180     2.2520740     0.2062470
  H        3.4947160     1.0534000    -1.1072300
  H        2.3164280     2.3771700    -1.0625470
  H       -0.2391740    -2.4808040    -1.2743640
units angstrom
no_reorient  #important for SAPT in psi4, default
symmetry c1  #important for SAPT in psi4, default
}

set PROPERTIES_ORIGIN ["COM"]
properties('MP2/aug-cc-pvtz', properties = ['dipole'])
--------------------------------------------------------------------------

    Molecular point group: c1
  Charge       = 0
  Multiplicity = 1
  Basis Set: AUG-CC-PVTZ
    Blend: AUG-CC-PVTZ
  Basis Set: (AUG-CC-PVTZ AUX)
    Blend: AUG-CC-PVTZ-JKFIT

    Orbital Energies [Eh]
    ---------------------

    Doubly Occupied:

       1A    -80.102415     2A    -20.594769     3A    -20.593123
       4A    -20.588982     5A    -20.518308     6A    -11.302574
       7A    -11.299433     8A    -11.232890     9A    -11.230710
      10A     -7.618950    11A     -5.517254    12A     -5.516853
      13A     -5.516168    14A     -1.443952    15A     -1.381114
      16A     -1.360227    17A     -1.310884    18A     -1.041501
      19A     -1.027308    20A     -0.873885    21A     -0.867340
      22A     -0.807596    23A     -0.723483    24A     -0.715209
      25A     -0.684352    26A     -0.657687    27A     -0.643576
      28A     -0.619407    29A     -0.606095    30A     -0.567310
      31A     -0.566828    32A     -0.562600    33A     -0.547759
      34A     -0.540485    35A     -0.527650    36A     -0.517714
      37A     -0.502206    38A     -0.489459    39A     -0.480748
      40A     -0.475991    41A     -0.472272

  @DF-RHF Final Energy:  -798.38200164006503

   => Energetics <=

    Nuclear Repulsion Energy =            628.2677482565047740
    One-Electron Energy =               -2348.0053636802326764
    Two-Electron Energy =                 921.3556137836628750
    Total Energy =                       -798.3820016400650275
  Basis Set: (AUG-CC-PVTZ AUX)
    Blend: AUG-CC-PVTZ-RI
    Molecular point group: c1

    Geometry (in Angstrom), charge = 0, multiplicity = 1:

       Center              X                  Y                   Z               Mass
    ------------   -----------------  -----------------  -----------------  -----------------
         P            0.013362354518    -0.852675550069     0.163024222101    30.973761998420
         O           -1.188488845482     0.118877949931     0.548338422101    15.994914619570
         O            1.111628154518     0.087951949931    -0.561051577899    15.994914619570
         O           -0.608383845482    -1.582477050069    -1.205593577899    15.994914619570
         O            0.465356154518    -1.764131050069     1.192307422101    15.994914619570
         C           -1.792501845482     0.991352949931    -0.445662577899    12.000000000000
         C            1.932320754518     0.799691649931     0.408080422101    12.000000000000
         C           -2.808545845482     1.837720949931     0.281521422101    12.000000000000
         C            2.886251154518     1.678085949931    -0.460326577899    12.000000000000
         H           -1.006271845482     1.598285949931    -0.908188577899     1.007825032230
         H           -2.260113845482     0.369168949931    -1.215861577899     1.007825032230
         H            1.321777154518     1.430627949931     1.020875422101     1.007825032230
         H            2.503629154518     0.102377949931     0.984153422101     1.007825032230
         H           -3.301851845482     2.514979949931    -0.422738577899     1.007825032230
         H           -3.567148845482     1.205463949931     0.749788422101     1.007825032230
         H           -2.321528845482     2.431784949931     1.061654422101     1.007825032230
         H            3.553797154518     2.250515949931     0.193011422101     1.007825032230
         H            3.492995154518     1.051841949931    -1.120465577899     1.007825032230
         H            2.314707154518     2.375611949931    -1.075782577899     1.007825032230
         H           -0.240894845482    -2.482362050069    -1.287599577899     1.007825032230

  Basis Set: AUG-CC-PVTZ
    Blend: AUG-CC-PVTZ
  Basis Set: (AUG-CC-PVTZ AUX)
    Blend: AUG-CC-PVTZ-JKFIT
	 Reference Energy          =    -798.3820016400650275 [Eh]
	 Singles Energy            =      -0.0000000000000000 [Eh]
	 Same-Spin Energy          =      -0.4894243840217219 [Eh]
	 Opposite-Spin Energy      =      -1.5381780207482596 [Eh]
	 Correlation Energy        =      -2.0276024047699814 [Eh]
	 Total Energy              =    -800.4096040448349640 [Eh]

	 ================> DF-SCS-MP2 Energies <==================
	-----------------------------------------------------------
	 SCS Same-Spin Scale       =       0.3333333333333333 [-]
	 SCS Opposite-Spin Scale   =       1.2000000000000000 [-]
	 SCS Same-Spin Energy      =      -0.1631414613405740 [Eh]
	 SCS Opposite-Spin Energy  =      -1.8458136248979113 [Eh]
	 SCS Correlation Energy    =      -2.0089550862384855 [Eh]
	 SCS Total Energy          =    -800.3909567263035569 [Eh]
	-----------------------------------------------------------

  Dipole Moment: [D]
     X:     0.0619      Y:     2.8161      Z:    -1.6976     Total:     3.2888

*** Psi4 exiting successfully. Buy a developer a beer!
