                               Psi4 1.3.2 release

  ==> Input File <==

--------------------------------------------------------------------------
#psi4
#
memory 32 gb

molecule  {
0 1
  P       -0.0032580    -0.8671950     0.1253540
  O       -1.1867680     0.1204360     0.5615740
  O        1.1327935     0.0785580    -0.5305361
  O       -0.6066630    -1.5809190    -1.1923580
  O        0.4909370    -1.7531087     1.2026902
  C       -1.7907810     0.9929110    -0.4324270
  C        1.9592910     0.8227470     0.3828140
  C       -2.8068250     1.8392790     0.2947570
  C        2.8879720     1.6796440    -0.4470910
  H       -1.0045510     1.5998440    -0.8949530
  H       -2.2583930     0.3707270    -1.2026260
  H        1.3234980     1.4321860     1.0341110
  H        2.5053500     0.1039360     0.9973890
  H       -3.3001310     2.5165380    -0.4095030
  H       -3.5654280     1.2070220     0.7630240
  H       -2.3198080     2.4333430     1.0748900
  H        3.5555180     2.2520740     0.2062470
  H        3.4947160     1.0534000    -1.1072300
  H        2.3164280     2.3771700    -1.0625470
  H       -0.2391740    -2.4808040    -1.2743640
units angstrom
no_reorient  #important for SAPT in psi4, default
symmetry c1  #important for SAPT in psi4, default
}

set PROPERTIES_ORIGIN ["COM"]
properties('MP2/aug-cc-pvtz', properties = ['dipole'])
--------------------------------------------------------------------------

    Molecular point group: c1
  Charge       = 0
  Multiplicity = 1
  Basis Set: AUG-CC-PVTZ
    Blend: AUG-CC-PVTZ
  Basis Set: (AUG-CC-PVTZ AUX)
    Blend: AUG-CC-PVTZ-JKFIT

    Orbital Energies [Eh]
    ---------------------

    Doubly Occupied:

       1A    -80.105014     2A    -20.607022     3A    -20.593169
       4A    -20.588457     5A    -20.509975     6A    -11.302705
       7A    -11.296178     8A    -11.230847     9A    -11.228946
      10A     -7.620562    11A     -5.519102    12A     -5.518576
      13A     -5.517572    14A     -1.448511    15A     -1.381751
      16A     -1.379954    17A     -1.290718    18A     -1.042024
      19A     -1.032893    20A     -0.874174    21A     -0.864627
      22A     -0.813279    23A     -0.733242    24A     -0.716160
      25A     -0.683223    26A     -0.659508    27A     -0.652271
      28A     -0.619871    29A     -0.606656    30A     -0.576985
      31A     -0.566123    32A     -0.562451    33A     -0.545199
      34A     -0.540161    35A     -0.535269    36A     -0.518835
      37A     -0.502935    38A     -0.481124    39A     -0.478152
      40A     -0.464705    41A     -0.458319

  @DF-RHF Final Energy:  -798.38923599244015

   => Energetics <=

    Nuclear Repulsion Energy =            628.3159027189138897
    One-Electron Energy =               -2348.0757883696874160
    Two-Electron Energy =                 921.3706496583332637
    Total Energy =                       -798.3892359924401489
  Basis Set: (AUG-CC-PVTZ AUX)
    Blend: AUG-CC-PVTZ-RI
    Molecular point group: c1

    Geometry (in Angstrom), charge = 0, multiplicity = 1:

       Center              X                  Y                   Z               Mass
    ------------   -----------------  -----------------  -----------------  -----------------
         P           -0.007754423357    -0.867040445834     0.123855722922    30.973761998420
         O           -1.191264423357     0.120590554166     0.560075722922    15.994914619570
         O            1.128297076643     0.078712554166    -0.532034377078    15.994914619570
         O           -0.611159423357    -1.580764445834    -1.193856277078    15.994914619570
         O            0.486440576643    -1.752954145834     1.201191922922    15.994914619570
         C           -1.795277423357     0.993065554166    -0.433925277078    12.000000000000
         C            1.954794576643     0.822901554166     0.381315722922    12.000000000000
         C           -2.811321423357     1.839433554166     0.293258722922    12.000000000000
         C            2.883475576643     1.679798554166    -0.448589277078    12.000000000000
         H           -1.009047423357     1.599998554166    -0.896451277078     1.007825032230
         H           -2.262889423357     0.370881554166    -1.204124277078     1.007825032230
         H            1.319001576643     1.432340554166     1.032612722922     1.007825032230
         H            2.500853576643     0.104090554166     0.995890722922     1.007825032230
         H           -3.304627423357     2.516692554166    -0.411001277078     1.007825032230
         H           -3.569924423357     1.207176554166     0.761525722922     1.007825032230
         H           -2.324304423357     2.433497554166     1.073391722922     1.007825032230
         H            3.551021576643     2.252228554166     0.204748722922     1.007825032230
         H            3.490219576643     1.053554554166    -1.108728277078     1.007825032230
         H            2.311931576643     2.377324554166    -1.064045277078     1.007825032230
         H           -0.243670423357    -2.480649445834    -1.275862277078     1.007825032230

  Basis Set: AUG-CC-PVTZ
    Blend: AUG-CC-PVTZ
  Basis Set: (AUG-CC-PVTZ AUX)
    Blend: AUG-CC-PVTZ-JKFIT
	 Reference Energy          =    -798.3892359924401489 [Eh]
	 Singles Energy            =      -0.0000000000000000 [Eh]
	 Same-Spin Energy          =      -0.4895812628320111 [Eh]
	 Opposite-Spin Energy      =      -1.5374866951152506 [Eh]
	 Correlation Energy        =      -2.0270679579472617 [Eh]
	 Total Energy              =    -800.4163039503873733 [Eh]

	 ================> DF-SCS-MP2 Energies <==================
	-----------------------------------------------------------
	 SCS Same-Spin Scale       =       0.3333333333333333 [-]
	 SCS Opposite-Spin Scale   =       1.2000000000000000 [-]
	 SCS Same-Spin Energy      =      -0.1631937542773370 [Eh]
	 SCS Opposite-Spin Energy  =      -1.8449840341383006 [Eh]
	 SCS Correlation Energy    =      -2.0081777884156375 [Eh]
	 SCS Total Energy          =    -800.3974137808557998 [Eh]
	-----------------------------------------------------------

  Dipole Moment: [D]
     X:    -0.2439      Y:     2.6136      Z:    -2.2635     Total:     3.4661

*** Psi4 exiting successfully. Buy a developer a beer!
