                               Psi4 1.3.2 release

  ==> Input File <==

--------------------------------------------------------------------------
#psi4
#
memory 32 gb

molecule  {
0 1
  P       -0.0032580    -0.8671950     0.1253540
  O       -1.1867680     0.1204360     0.5615740
  O        1.1706385     0.0557931    -0.4953822
  O       -0.6066630    -1.5809190    -1.1923580
  O        0.5381982    -1.7333734     1.1960011
  C       -1.7907810     0.9929110    -0.4324270
  C        1.9592910     0.8227470     0.3828140
  C       -2.8068250     1.8392790     0.2947570
  C        2.8879720     1.6796440    -0.4470910
  H       -1.0045510     1.5998440    -0.8949530
  H       -2.2583930     0.3707270    -1.2026260
  H        1.3234980     1.4321860     1.0341110
  H        2.5053500     0.1039360     0.9973890
  H       -3.3001310     2.5165380    -0.4095030
  H       -3.5654280     1.2070220     0.7630240
  H       -2.3198080     2.4333430     1.0748900
  H        3.5555180     2.2520740     0.2062470
  H        3.4947160     1.0534000    -1.1072300
  H        2.3164280     2.3771700    -1.0625470
  H       -0.2391740    -2.4808040    -1.2743640
units angstrom
no_reorient  #important for SAPT in psi4, default
symmetry c1  #important for SAPT in psi4, default
}

set PROPERTIES_ORIGIN ["COM"]
properties('MP2/aug-cc-pvtz', properties = ['dipole'])
--------------------------------------------------------------------------

    Molecular point group: c1
  Charge       = 0
  Multiplicity = 1
  Basis Set: AUG-CC-PVTZ
    Blend: AUG-CC-PVTZ
  Basis Set: (AUG-CC-PVTZ AUX)
    Blend: AUG-CC-PVTZ-JKFIT

    Orbital Energies [Eh]
    ---------------------

    Doubly Occupied:

       1A    -80.106946     2A    -20.611522     3A    -20.597134
       4A    -20.584191     5A    -20.507864     6A    -11.305346
       7A    -11.290225     8A    -11.232533     9A    -11.225973
      10A     -7.622348    11A     -5.520894    12A     -5.520351
      13A     -5.519356    14A     -1.451520    15A     -1.387819
      16A     -1.384071    17A     -1.289566    18A     -1.043412
      19A     -1.030578    20A     -0.876592    21A     -0.865971
      22A     -0.813610    23A     -0.737428    24A     -0.718053
      25A     -0.685082    26A     -0.662276    27A     -0.654189
      28A     -0.621636    29A     -0.608951    30A     -0.577918
      31A     -0.567329    32A     -0.562650    33A     -0.546329
      34A     -0.541188    35A     -0.536917    36A     -0.518514
      37A     -0.500284    38A     -0.482578    39A     -0.474731
      40A     -0.463207    41A     -0.452904

  @DF-RHF Final Energy:  -798.38751589943195

   => Energetics <=

    Nuclear Repulsion Energy =            628.7489466577193298
    One-Electron Energy =               -2348.8729506012673482
    Two-Electron Energy =                 921.7364880441159585
    Total Energy =                       -798.3875158994319463
  Basis Set: (AUG-CC-PVTZ AUX)
    Blend: AUG-CC-PVTZ-RI
    Molecular point group: c1

    Geometry (in Angstrom), charge = 0, multiplicity = 1:

       Center              X                  Y                   Z               Mass
    ------------   -----------------  -----------------  -----------------  -----------------
         P           -0.016591549156    -0.866725862921     0.120900039100    30.973761998420
         O           -1.200101549156     0.120905137079     0.557120039100    15.994914619570
         O            1.157304950844     0.056262237079    -0.499836160900    15.994914619570
         O           -0.619996549156    -1.580449862921    -1.196811960900    15.994914619570
         O            0.524864650844    -1.732904262921     1.191547139100    15.994914619570
         C           -1.804114549156     0.993380137079    -0.436880960900    12.000000000000
         C            1.945957450844     0.823216137079     0.378360039100    12.000000000000
         C           -2.820158549156     1.839748137079     0.290303039100    12.000000000000
         C            2.874638450844     1.680113137079    -0.451544960900    12.000000000000
         H           -1.017884549156     1.600313137079    -0.899406960900     1.007825032230
         H           -2.271726549156     0.371196137079    -1.207079960900     1.007825032230
         H            1.310164450844     1.432655137079     1.029657039100     1.007825032230
         H            2.492016450844     0.104405137079     0.992935039100     1.007825032230
         H           -3.313464549156     2.517007137079    -0.413956960900     1.007825032230
         H           -3.578761549156     1.207491137079     0.758570039100     1.007825032230
         H           -2.333141549156     2.433812137079     1.070436039100     1.007825032230
         H            3.542184450844     2.252543137079     0.201793039100     1.007825032230
         H            3.481382450844     1.053869137079    -1.111683960900     1.007825032230
         H            2.303094450844     2.377639137079    -1.067000960900     1.007825032230
         H           -0.252507549156    -2.480334862921    -1.278817960900     1.007825032230

  Basis Set: AUG-CC-PVTZ
    Blend: AUG-CC-PVTZ
  Basis Set: (AUG-CC-PVTZ AUX)
    Blend: AUG-CC-PVTZ-JKFIT
	 Reference Energy          =    -798.3875158994319463 [Eh]
	 Singles Energy            =      -0.0000000000000000 [Eh]
	 Same-Spin Energy          =      -0.4894519642144392 [Eh]
	 Opposite-Spin Energy      =      -1.5367742653303968 [Eh]
	 Correlation Energy        =      -2.0262262295448359 [Eh]
	 Total Energy              =    -800.4137421289767644 [Eh]

	 ================> DF-SCS-MP2 Energies <==================
	-----------------------------------------------------------
	 SCS Same-Spin Scale       =       0.3333333333333333 [-]
	 SCS Opposite-Spin Scale   =       1.2000000000000000 [-]
	 SCS Same-Spin Energy      =      -0.1631506547381464 [Eh]
	 SCS Opposite-Spin Energy  =      -1.8441291183964761 [Eh]
	 SCS Correlation Energy    =      -2.0072797731346226 [Eh]
	 SCS Total Energy          =    -800.3947956725666018 [Eh]
	-----------------------------------------------------------

  Dipole Moment: [D]
     X:    -0.6034      Y:     2.5402      Z:    -2.3644     Total:     3.5224

*** Psi4 exiting successfully. Buy a developer a beer!
