                               Psi4 1.3.2 release

  ==> Input File <==

--------------------------------------------------------------------------
#psi4
#
memory 32 gb

molecule  {
0 1
  P       -0.0032580    -0.8671950     0.1253540
  O       -1.2010404     0.0985456     0.5715168
  O        1.1295450     0.0668789    -0.5525228
  O       -0.6066630    -1.5809190    -1.1923580
  O        0.4670770    -1.7625730     1.2055430
  C       -1.7907810     0.9929110    -0.4324270
  C        1.9592910     0.8227470     0.3828140
  C       -2.8068250     1.8392790     0.2947570
  C        2.8879720     1.6796440    -0.4470910
  H       -1.0045510     1.5998440    -0.8949530
  H       -2.2583930     0.3707270    -1.2026260
  H        1.3234980     1.4321860     1.0341110
  H        2.5053500     0.1039360     0.9973890
  H       -3.3001310     2.5165380    -0.4095030
  H       -3.5654280     1.2070220     0.7630240
  H       -2.3198080     2.4333430     1.0748900
  H        3.5555180     2.2520740     0.2062470
  H        3.4947160     1.0534000    -1.1072300
  H        2.3164280     2.3771700    -1.0625470
  H       -0.2391740    -2.4808040    -1.2743640
units angstrom
no_reorient  #important for SAPT in psi4, default
symmetry c1  #important for SAPT in psi4, default
}

set PROPERTIES_ORIGIN ["COM"]
properties('MP2/aug-cc-pvtz', properties = ['dipole'])
--------------------------------------------------------------------------

    Molecular point group: c1
  Charge       = 0
  Multiplicity = 1
  Basis Set: AUG-CC-PVTZ
    Blend: AUG-CC-PVTZ
  Basis Set: (AUG-CC-PVTZ AUX)
    Blend: AUG-CC-PVTZ-JKFIT

    Orbital Energies [Eh]
    ---------------------

    Doubly Occupied:

       1A    -80.102697     2A    -20.602872     3A    -20.592692
       4A    -20.591568     5A    -20.508140     6A    -11.303675
       7A    -11.300224     8A    -11.231175     9A    -11.231093
      10A     -7.618399    11A     -5.516937    12A     -5.516366
      13A     -5.515410    14A     -1.445262    15A     -1.377181
      16A     -1.375981    17A     -1.288741    18A     -1.042190
      19A     -1.034827    20A     -0.872185    21A     -0.864159
      22A     -0.813041    23A     -0.729911    24A     -0.713965
      25A     -0.681228    26A     -0.658024    27A     -0.650111
      28A     -0.618363    29A     -0.604414    30A     -0.576372
      31A     -0.565469    32A     -0.562034    33A     -0.544525
      34A     -0.539678    35A     -0.533546    36A     -0.521097
      37A     -0.505017    38A     -0.482685    39A     -0.481832
      40A     -0.462770    41A     -0.458244

  @DF-RHF Final Energy:  -798.38768009611135

   => Energetics <=

    Nuclear Repulsion Energy =            627.5320041052057149
    One-Electron Energy =               -2346.5711655202367183
    Two-Electron Energy =                 920.6514813189196502
    Total Energy =                       -798.3876800961113531
  Basis Set: (AUG-CC-PVTZ AUX)
    Blend: AUG-CC-PVTZ-RI
    Molecular point group: c1

    Geometry (in Angstrom), charge = 0, multiplicity = 1:

       Center              X                  Y                   Z               Mass
    ------------   -----------------  -----------------  -----------------  -----------------
         P           -0.003457577546    -0.862571968752     0.124810094130    30.973761998420
         O           -1.201239977546     0.103168631248     0.570972894130    15.994914619570
         O            1.129345422454     0.071501931248    -0.553066705870    15.994914619570
         O           -0.606862577546    -1.576295968752    -1.192901905870    15.994914619570
         O            0.466877422454    -1.757949968752     1.204999094130    15.994914619570
         C           -1.790980577546     0.997534031248    -0.432970905870    12.000000000000
         C            1.959091422454     0.827370031248     0.382270094130    12.000000000000
         C           -2.807024577546     1.843902031248     0.294213094130    12.000000000000
         C            2.887772422454     1.684267031248    -0.447634905870    12.000000000000
         H           -1.004750577546     1.604467031248    -0.895496905870     1.007825032230
         H           -2.258592577546     0.375350031248    -1.203169905870     1.007825032230
         H            1.323298422454     1.436809031248     1.033567094130     1.007825032230
         H            2.505150422454     0.108559031248     0.996845094130     1.007825032230
         H           -3.300330577546     2.521161031248    -0.410046905870     1.007825032230
         H           -3.565627577546     1.211645031248     0.762480094130     1.007825032230
         H           -2.320007577546     2.437966031248     1.074346094130     1.007825032230
         H            3.555318422454     2.256697031248     0.205703094130     1.007825032230
         H            3.494516422454     1.058023031248    -1.107773905870     1.007825032230
         H            2.316228422454     2.381793031248    -1.063090905870     1.007825032230
         H           -0.239373577546    -2.476180968752    -1.274907905870     1.007825032230

  Basis Set: AUG-CC-PVTZ
    Blend: AUG-CC-PVTZ
  Basis Set: (AUG-CC-PVTZ AUX)
    Blend: AUG-CC-PVTZ-JKFIT
	 Reference Energy          =    -798.3876800961113531 [Eh]
	 Singles Energy            =      -0.0000000000000000 [Eh]
	 Same-Spin Energy          =      -0.4897636683405759 [Eh]
	 Opposite-Spin Energy      =      -1.5383613149504889 [Eh]
	 Correlation Energy        =      -2.0281249832910646 [Eh]
	 Total Energy              =    -800.4158050794023893 [Eh]

	 ================> DF-SCS-MP2 Energies <==================
	-----------------------------------------------------------
	 SCS Same-Spin Scale       =       0.3333333333333333 [-]
	 SCS Opposite-Spin Scale   =       1.2000000000000000 [-]
	 SCS Same-Spin Energy      =      -0.1632545561135253 [Eh]
	 SCS Opposite-Spin Energy  =      -1.8460335779405865 [Eh]
	 SCS Correlation Energy    =      -2.0092881340541120 [Eh]
	 SCS Total Energy          =    -800.3969682301654984 [Eh]
	-----------------------------------------------------------

  Dipole Moment: [D]
     X:    -0.0875      Y:     2.8096      Z:    -2.2373     Total:     3.5926

*** Psi4 exiting successfully. Buy a developer a beer!
