                               Psi4 1.3.2 release

  ==> Input File <==

--------------------------------------------------------------------------
#psi4
#
memory 32 gb

molecule  {
0 1
  P       -0.0183741    -0.8441298     0.1194813
  O       -1.1867680     0.1204360     0.5615740
  O        1.1133490     0.0895100    -0.5478160
  O       -0.6066630    -1.5809190    -1.1923580
  O        0.4670770    -1.7625730     1.2055430
  C       -1.7907810     0.9929110    -0.4324270
  C        1.9592910     0.8227470     0.3828140
  C       -2.8068250     1.8392790     0.2947570
  C        2.8879720     1.6796440    -0.4470910
  H       -1.0045510     1.5998440    -0.8949530
  H       -2.2583930     0.3707270    -1.2026260
  H        1.3234980     1.4321860     1.0341110
  H        2.5053500     0.1039360     0.9973890
  H       -3.3001310     2.5165380    -0.4095030
  H       -3.5654280     1.2070220     0.7630240
  H       -2.3198080     2.4333430     1.0748900
  H        3.5555180     2.2520740     0.2062470
  H        3.4947160     1.0534000    -1.1072300
  H        2.3164280     2.3771700    -1.0625470
  H       -0.2482633    -2.4830591    -1.2885821
units angstrom
no_reorient  #important for SAPT in psi4, default
symmetry c1  #important for SAPT in psi4, default
}

set PROPERTIES_ORIGIN ["COM"]
properties('MP2/aug-cc-pvtz', properties = ['dipole'])
--------------------------------------------------------------------------

    Molecular point group: c1
  Charge       = 0
  Multiplicity = 1
  Basis Set: AUG-CC-PVTZ
    Blend: AUG-CC-PVTZ
  Basis Set: (AUG-CC-PVTZ AUX)
    Blend: AUG-CC-PVTZ-JKFIT

    Orbital Energies [Eh]
    ---------------------

    Doubly Occupied:

       1A    -80.104158     2A    -20.602293     3A    -20.597104
       4A    -20.590704     5A    -20.504758     6A    -11.305411
       7A    -11.299521     8A    -11.232613     9A    -11.230645
      10A     -7.619471    11A     -5.518065    12A     -5.517615
      13A     -5.516304    14A     -1.450628    15A     -1.384910
      16A     -1.378088    17A     -1.276012    18A     -1.045062
      19A     -1.035421    20A     -0.875292    21A     -0.867299
      22A     -0.815411    23A     -0.733915    24A     -0.719793
      25A     -0.684115    26A     -0.660155    27A     -0.648280
      28A     -0.618947    29A     -0.610978    30A     -0.576666
      31A     -0.565143    32A     -0.560968    33A     -0.544940
      34A     -0.540263    35A     -0.533912    36A     -0.521689
      37A     -0.504883    38A     -0.484929    39A     -0.480712
      40A     -0.455241    41A     -0.451843

  @DF-RHF Final Energy:  -798.38760918046728

   => Energetics <=

    Nuclear Repulsion Energy =            628.5200541220139030
    One-Electron Energy =               -2348.4870170029498695
    Two-Electron Energy =                 921.5793537004688005
    Total Energy =                       -798.3876091804672797
  Basis Set: (AUG-CC-PVTZ AUX)
    Blend: AUG-CC-PVTZ-RI
    Molecular point group: c1

    Geometry (in Angstrom), charge = 0, multiplicity = 1:

       Center              X                  Y                   Z               Mass
    ------------   -----------------  -----------------  -----------------  -----------------
         P           -0.015274973387    -0.848752844589     0.120754969166    30.973761998420
         O           -1.183668873387     0.115812955411     0.562847669166    15.994914619570
         O            1.116448126613     0.084886955411    -0.546542330834    15.994914619570
         O           -0.603563873387    -1.585542044589    -1.191084330834    15.994914619570
         O            0.470176126613    -1.767196044589     1.206816669166    15.994914619570
         C           -1.787681873387     0.988287955411    -0.431153330834    12.000000000000
         C            1.962390126613     0.818123955411     0.384087669166    12.000000000000
         C           -2.803725873387     1.834655955411     0.296030669166    12.000000000000
         C            2.891071126613     1.675020955411    -0.445817330834    12.000000000000
         H           -1.001451873387     1.595220955411    -0.893679330834     1.007825032230
         H           -2.255293873387     0.366103955411    -1.201352330834     1.007825032230
         H            1.326597126613     1.427562955411     1.035384669166     1.007825032230
         H            2.508449126613     0.099312955411     0.998662669166     1.007825032230
         H           -3.297031873387     2.511914955411    -0.408229330834     1.007825032230
         H           -3.562328873387     1.202398955411     0.764297669166     1.007825032230
         H           -2.316708873387     2.428719955411     1.076163669166     1.007825032230
         H            3.558617126613     2.247450955411     0.207520669166     1.007825032230
         H            3.497815126613     1.048776955411    -1.105956330834     1.007825032230
         H            2.319527126613     2.372546955411    -1.061273330834     1.007825032230
         H           -0.245164173387    -2.487682144589    -1.287308430834     1.007825032230

  Basis Set: AUG-CC-PVTZ
    Blend: AUG-CC-PVTZ
  Basis Set: (AUG-CC-PVTZ AUX)
    Blend: AUG-CC-PVTZ-JKFIT
	 Reference Energy          =    -798.3876091804672797 [Eh]
	 Singles Energy            =      -0.0000000000000000 [Eh]
	 Same-Spin Energy          =      -0.4898054988885401 [Eh]
	 Opposite-Spin Energy      =      -1.5379710585766169 [Eh]
	 Correlation Energy        =      -2.0277765574651569 [Eh]
	 Total Energy              =    -800.4153857379324108 [Eh]

	 ================> DF-SCS-MP2 Energies <==================
	-----------------------------------------------------------
	 SCS Same-Spin Scale       =       0.3333333333333333 [-]
	 SCS Opposite-Spin Scale   =       1.2000000000000000 [-]
	 SCS Same-Spin Energy      =      -0.1632684996295134 [Eh]
	 SCS Opposite-Spin Energy  =      -1.8455652702919401 [Eh]
	 SCS Correlation Energy    =      -2.0088337699214533 [Eh]
	 SCS Total Energy          =    -800.3964429503887459 [Eh]
	-----------------------------------------------------------

  Dipole Moment: [D]
     X:    -0.2635      Y:     2.9221      Z:    -2.3129     Total:     3.7360

*** Psi4 exiting successfully. Buy a developer a beer!
