                               Psi4 1.3.2 release

  ==> Input File <==

--------------------------------------------------------------------------
#psi4
#
memory 32 gb

molecule  {
0 1
  P       -0.0032580    -0.8671950     0.1253540
  O       -1.1867680     0.1204360     0.5615740
  O        1.2514426     0.2078281    -0.6310686
  O       -0.6066630    -1.5809190    -1.1923580
  O        0.4670770    -1.7625730     1.2055430
  C       -1.7907810     0.9929110    -0.4324270
  C        1.9592910     0.8227470     0.3828140
  C       -2.8068250     1.8392790     0.2947570
  C        2.8879720     1.6796440    -0.4470910
  H       -1.0045510     1.5998440    -0.8949530
  H       -2.2583930     0.3707270    -1.2026260
  H        1.3234980     1.4321860     1.0341110
  H        2.5053500     0.1039360     0.9973890
  H       -3.3001310     2.5165380    -0.4095030
  H       -3.5654280     1.2070220     0.7630240
  H       -2.3198080     2.4333430     1.0748900
  H        3.5555180     2.2520740     0.2062470
  H        3.4947160     1.0534000    -1.1072300
  H        2.3164280     2.3771700    -1.0625470
  H       -0.2391740    -2.4808040    -1.2743640
units angstrom
no_reorient  #important for SAPT in psi4, default
symmetry c1  #important for SAPT in psi4, default
}

set PROPERTIES_ORIGIN ["COM"]
properties('MP2/aug-cc-pvtz', properties = ['dipole'])
--------------------------------------------------------------------------

    Molecular point group: c1
  Charge       = 0
  Multiplicity = 1
  Basis Set: AUG-CC-PVTZ
    Blend: AUG-CC-PVTZ
  Basis Set: (AUG-CC-PVTZ AUX)
    Blend: AUG-CC-PVTZ-JKFIT

    Orbital Energies [Eh]
    ---------------------

    Doubly Occupied:

       1A    -80.125283     2A    -20.618941     3A    -20.606416
       4A    -20.586905     5A    -20.529454     6A    -11.307474
       7A    -11.276944     8A    -11.234266     9A    -11.214451
      10A     -7.639094    11A     -5.537491    12A     -5.536822
      13A     -5.535826    14A     -1.446839    15A     -1.391053
      16A     -1.372164    17A     -1.307070    18A     -1.044969
      19A     -1.009952    20A     -0.874091    21A     -0.850495
      22A     -0.823342    23A     -0.730860    24A     -0.713863
      25A     -0.682370    26A     -0.663365    27A     -0.656326
      28A     -0.615288    29A     -0.607877    30A     -0.584413
      31A     -0.571863    32A     -0.557763    33A     -0.550203
      34A     -0.531508    35A     -0.529600    36A     -0.520896
      37A     -0.498732    38A     -0.484834    39A     -0.478900
      40A     -0.459946    41A     -0.454924

  @DF-RHF Final Energy:  -798.35196531154293

   => Energetics <=

    Nuclear Repulsion Energy =            622.9465366065007856
    One-Electron Energy =               -2337.0712507101570736
    Two-Electron Energy =                 915.7727487921133616
    Total Energy =                       -798.3519653115429264
  Basis Set: (AUG-CC-PVTZ AUX)
    Blend: AUG-CC-PVTZ-RI
    Molecular point group: c1

    Geometry (in Angstrom), charge = 0, multiplicity = 1:

       Center              X                  Y                   Z               Mass
    ------------   -----------------  -----------------  -----------------  -----------------
         P           -0.017596987131    -0.879480654961     0.133998436342    30.973761998420
         O           -1.201106987131     0.108150345039     0.570218436342    15.994914619570
         O            1.237103612869     0.195542445039    -0.622424163658    15.994914619570
         O           -0.621001987131    -1.593204654961    -1.183713563658    15.994914619570
         O            0.452738012869    -1.774858654961     1.214187436342    15.994914619570
         C           -1.805119987131     0.980625345039    -0.423782563658    12.000000000000
         C            1.944952012869     0.810461345039     0.391458436342    12.000000000000
         C           -2.821163987131     1.826993345039     0.303401436342    12.000000000000
         C            2.873633012869     1.667358345039    -0.438446563658    12.000000000000
         H           -1.018889987131     1.587558345039    -0.886308563658     1.007825032230
         H           -2.272731987131     0.358441345039    -1.193981563658     1.007825032230
         H            1.309159012869     1.419900345039     1.042755436342     1.007825032230
         H            2.491011012869     0.091650345039     1.006033436342     1.007825032230
         H           -3.314469987131     2.504252345039    -0.400858563658     1.007825032230
         H           -3.579766987131     1.194736345039     0.771668436342     1.007825032230
         H           -2.334146987131     2.421057345039     1.083534436342     1.007825032230
         H            3.541179012869     2.239788345039     0.214891436342     1.007825032230
         H            3.480377012869     1.041114345039    -1.098585563658     1.007825032230
         H            2.302089012869     2.364884345039    -1.053902563658     1.007825032230
         H           -0.253512987131    -2.493089654961    -1.265719563658     1.007825032230

  Basis Set: AUG-CC-PVTZ
    Blend: AUG-CC-PVTZ
  Basis Set: (AUG-CC-PVTZ AUX)
    Blend: AUG-CC-PVTZ-JKFIT
	 Reference Energy          =    -798.3519653115429264 [Eh]
	 Singles Energy            =      -0.0000000000000000 [Eh]
	 Same-Spin Energy          =      -0.4929539594073060 [Eh]
	 Opposite-Spin Energy      =      -1.5455010230883417 [Eh]
	 Correlation Energy        =      -2.0384549824956477 [Eh]
	 Total Energy              =    -800.3904202940385630 [Eh]

	 ================> DF-SCS-MP2 Energies <==================
	-----------------------------------------------------------
	 SCS Same-Spin Scale       =       0.3333333333333333 [-]
	 SCS Opposite-Spin Scale   =       1.2000000000000000 [-]
	 SCS Same-Spin Energy      =      -0.1643179864691020 [Eh]
	 SCS Opposite-Spin Energy  =      -1.8546012277060100 [Eh]
	 SCS Correlation Energy    =      -2.0189192141751118 [Eh]
	 SCS Total Energy          =    -800.3708845257179973 [Eh]
	-----------------------------------------------------------

  Dipole Moment: [D]
     X:    -1.1850      Y:     1.8355      Z:    -2.0234     Total:     2.9778

*** Psi4 exiting successfully. Buy a developer a beer!
