                               Psi4 1.3.2 release

  ==> Input File <==

--------------------------------------------------------------------------
#psi4
#
memory 32 gb

molecule  {
0 1
  P       -0.0032580    -0.8671950     0.1253540
  O       -1.1943868     0.1159993     0.5507245
  O        1.1133490     0.0895100    -0.5478160
  O       -0.6184922    -1.5733801    -1.1909491
  O        0.4670770    -1.7625730     1.2055430
  C       -1.7907810     0.9929110    -0.4324270
  C        1.9592910     0.8227470     0.3828140
  C       -2.8068250     1.8392790     0.2947570
  C        2.8879720     1.6796440    -0.4470910
  H       -1.0045510     1.5998440    -0.8949530
  H       -2.2583930     0.3707270    -1.2026260
  H        1.3234980     1.4321860     1.0341110
  H        2.5053500     0.1039360     0.9973890
  H       -3.3001310     2.5165380    -0.4095030
  H       -3.5654280     1.2070220     0.7630240
  H       -2.3198080     2.4333430     1.0748900
  H        3.5555180     2.2520740     0.2062470
  H        3.4947160     1.0534000    -1.1072300
  H        2.3164280     2.3771700    -1.0625470
  H       -0.2391740    -2.4808040    -1.2743640
units angstrom
no_reorient  #important for SAPT in psi4, default
symmetry c1  #important for SAPT in psi4, default
}

set PROPERTIES_ORIGIN ["COM"]
properties('MP2/aug-cc-pvtz', properties = ['dipole'])
--------------------------------------------------------------------------

    Molecular point group: c1
  Charge       = 0
  Multiplicity = 1
  Basis Set: AUG-CC-PVTZ
    Blend: AUG-CC-PVTZ
  Basis Set: (AUG-CC-PVTZ AUX)
    Blend: AUG-CC-PVTZ-JKFIT

    Orbital Energies [Eh]
    ---------------------

    Doubly Occupied:

       1A    -80.104329     2A    -20.605571     3A    -20.590994
       4A    -20.590010     5A    -20.512241     6A    -11.299927
       7A    -11.299647     8A    -11.230716     9A    -11.229275
      10A     -7.619955    11A     -5.518528    12A     -5.517979
      13A     -5.516929    14A     -1.447153    15A     -1.378266
      16A     -1.377625    17A     -1.292240    18A     -1.041461
      19A     -1.033512    20A     -0.873165    21A     -0.863949
      22A     -0.811416    23A     -0.730309    24A     -0.715064
      25A     -0.681953    26A     -0.658242    27A     -0.651701
      28A     -0.619261    29A     -0.605564    30A     -0.576580
      31A     -0.565612    32A     -0.562529    33A     -0.544873
      34A     -0.539362    35A     -0.534262    36A     -0.519255
      37A     -0.502889    38A     -0.480869    39A     -0.478272
      40A     -0.466184    41A     -0.461304

  @DF-RHF Final Energy:  -798.38794233489716

   => Energetics <=

    Nuclear Repulsion Energy =            628.2434726911700409
    One-Electron Energy =               -2347.9648912158745588
    Two-Electron Energy =                 921.3334761898072429
    Total Energy =                       -798.3879423348971613
  Basis Set: (AUG-CC-PVTZ AUX)
    Blend: AUG-CC-PVTZ-RI
    Molecular point group: c1

    Geometry (in Angstrom), charge = 0, multiplicity = 1:

       Center              X                  Y                   Z               Mass
    ------------   -----------------  -----------------  -----------------  -----------------
         P           -0.001238426442    -0.867517044762     0.126334060192    30.973761998420
         O           -1.192367226442     0.115677255238     0.551704560192    15.994914619570
         O            1.115368573558     0.089187955238    -0.546835939808    15.994914619570
         O           -0.616472626442    -1.573702144762    -1.189969039808    15.994914619570
         O            0.469096573558    -1.762895044762     1.206523060192    15.994914619570
         C           -1.788761426442     0.992588955238    -0.431446939808    12.000000000000
         C            1.961310573558     0.822424955238     0.383794060192    12.000000000000
         C           -2.804805426442     1.838956955238     0.295737060192    12.000000000000
         C            2.889991573558     1.679321955238    -0.446110939808    12.000000000000
         H           -1.002531426442     1.599521955238    -0.893972939808     1.007825032230
         H           -2.256373426442     0.370404955238    -1.201645939808     1.007825032230
         H            1.325517573558     1.431863955238     1.035091060192     1.007825032230
         H            2.507369573558     0.103613955238     0.998369060192     1.007825032230
         H           -3.298111426442     2.516215955238    -0.408522939808     1.007825032230
         H           -3.563408426442     1.206699955238     0.764004060192     1.007825032230
         H           -2.317788426442     2.433020955238     1.075870060192     1.007825032230
         H            3.557537573558     2.251751955238     0.207227060192     1.007825032230
         H            3.496735573558     1.053077955238    -1.106249939808     1.007825032230
         H            2.318447573558     2.376847955238    -1.061566939808     1.007825032230
         H           -0.237154426442    -2.481126044762    -1.273383939808     1.007825032230

  Basis Set: AUG-CC-PVTZ
    Blend: AUG-CC-PVTZ
  Basis Set: (AUG-CC-PVTZ AUX)
    Blend: AUG-CC-PVTZ-JKFIT
	 Reference Energy          =    -798.3879423348971613 [Eh]
	 Singles Energy            =      -0.0000000000000000 [Eh]
	 Same-Spin Energy          =      -0.4898672674244283 [Eh]
	 Opposite-Spin Energy      =      -1.5382230632804823 [Eh]
	 Correlation Energy        =      -2.0280903307049107 [Eh]
	 Total Energy              =    -800.4160326656020743 [Eh]

	 ================> DF-SCS-MP2 Energies <==================
	-----------------------------------------------------------
	 SCS Same-Spin Scale       =       0.3333333333333333 [-]
	 SCS Opposite-Spin Scale   =       1.2000000000000000 [-]
	 SCS Same-Spin Energy      =      -0.1632890891414761 [Eh]
	 SCS Opposite-Spin Energy  =      -1.8458676759365786 [Eh]
	 SCS Correlation Energy    =      -2.0091567650780546 [Eh]
	 SCS Total Energy          =    -800.3970990999752075 [Eh]
	-----------------------------------------------------------

  Dipole Moment: [D]
     X:     0.0079      Y:     2.6161      Z:    -2.1875     Total:     3.4102

*** Psi4 exiting successfully. Buy a developer a beer!
