                               Psi4 1.3.2 release

  ==> Input File <==

--------------------------------------------------------------------------
#psi4
#
memory 32 gb

molecule  {
0 1
  P       -0.0032580    -0.8671950     0.1253540
  O       -1.1867680     0.1204360     0.5615740
  O        1.1133490     0.0895100    -0.5478160
  O       -0.6090188    -1.5682462    -1.1980679
  O        0.4704005    -1.7522596     1.2125675
  C       -1.7907810     0.9929110    -0.4324270
  C        1.9592910     0.8227470     0.3828140
  C       -2.8068250     1.8392790     0.2947570
  C        2.8879720     1.6796440    -0.4470910
  H       -1.0045510     1.5998440    -0.8949530
  H       -2.2583930     0.3707270    -1.2026260
  H        1.3234980     1.4321860     1.0341110
  H        2.5053500     0.1039360     0.9973890
  H       -3.3001310     2.5165380    -0.4095030
  H       -3.5654280     1.2070220     0.7630240
  H       -2.3198080     2.4333430     1.0748900
  H        3.5555180     2.2520740     0.2062470
  H        3.4947160     1.0534000    -1.1072300
  H        2.3164280     2.3771700    -1.0625470
  H       -0.2391740    -2.4808040    -1.2743640
units angstrom
no_reorient  #important for SAPT in psi4, default
symmetry c1  #important for SAPT in psi4, default
}

set PROPERTIES_ORIGIN ["COM"]
properties('MP2/aug-cc-pvtz', properties = ['dipole'])
--------------------------------------------------------------------------

    Molecular point group: c1
  Charge       = 0
  Multiplicity = 1
  Basis Set: AUG-CC-PVTZ
    Blend: AUG-CC-PVTZ
  Basis Set: (AUG-CC-PVTZ AUX)
    Blend: AUG-CC-PVTZ-JKFIT

    Orbital Energies [Eh]
    ---------------------

    Doubly Occupied:

       1A    -80.103912     2A    -20.606886     3A    -20.590291
       4A    -20.589660     5A    -20.511784     6A    -11.300839
       7A    -11.298671     8A    -11.230102     9A    -11.229644
      10A     -7.619577    11A     -5.518127    12A     -5.517596
      13A     -5.516565    14A     -1.446548    15A     -1.377877
      16A     -1.376455    17A     -1.291811    18A     -1.041208
      19A     -1.033268    20A     -0.872338    21A     -0.863552
      22A     -0.811320    23A     -0.729344    24A     -0.714472
      25A     -0.681829    26A     -0.657829    27A     -0.651721
      28A     -0.618472    29A     -0.605018    30A     -0.576633
      31A     -0.565652    32A     -0.561990    33A     -0.544573
      34A     -0.538928    35A     -0.534000    36A     -0.519229
      37A     -0.503376    38A     -0.480482    39A     -0.478858
      40A     -0.465954    41A     -0.460633

  @DF-RHF Final Energy:  -798.38762756283575

   => Energetics <=

    Nuclear Repulsion Energy =            628.2103593404741559
    One-Electron Energy =               -2347.9219276609169356
    Two-Electron Energy =                 921.3239407576071471
    Total Energy =                       -798.3876275628357462
  Basis Set: (AUG-CC-PVTZ AUX)
    Blend: AUG-CC-PVTZ-RI
    Molecular point group: c1

    Geometry (in Angstrom), charge = 0, multiplicity = 1:

       Center              X                  Y                   Z               Mass
    ------------   -----------------  -----------------  -----------------  -----------------
         P           -0.003358320283    -0.869581728761     0.125217278390    30.973761998420
         O           -1.186868320283     0.118049271239     0.561437278390    15.994914619570
         O            1.113248679717     0.087123271239    -0.547952721610    15.994914619570
         O           -0.609119120283    -1.570632928761    -1.198204621610    15.994914619570
         O            0.470300179717    -1.754646328761     1.212430778390    15.994914619570
         C           -1.790881320283     0.990524271239    -0.432563721610    12.000000000000
         C            1.959190679717     0.820360271239     0.382677278390    12.000000000000
         C           -2.806925320283     1.836892271239     0.294620278390    12.000000000000
         C            2.887871679717     1.677257271239    -0.447227721610    12.000000000000
         H           -1.004651320283     1.597457271239    -0.895089721610     1.007825032230
         H           -2.258493320283     0.368340271239    -1.202762721610     1.007825032230
         H            1.323397679717     1.429799271239     1.033974278390     1.007825032230
         H            2.505249679717     0.101549271239     0.997252278390     1.007825032230
         H           -3.300231320283     2.514151271239    -0.409639721610     1.007825032230
         H           -3.565528320283     1.204635271239     0.762887278390     1.007825032230
         H           -2.319908320283     2.430956271239     1.074753278390     1.007825032230
         H            3.555417679717     2.249687271239     0.206110278390     1.007825032230
         H            3.494615679717     1.051013271239    -1.107366721610     1.007825032230
         H            2.316327679717     2.374783271239    -1.062683721610     1.007825032230
         H           -0.239274320283    -2.483190728761    -1.274500721610     1.007825032230

  Basis Set: AUG-CC-PVTZ
    Blend: AUG-CC-PVTZ
  Basis Set: (AUG-CC-PVTZ AUX)
    Blend: AUG-CC-PVTZ-JKFIT
	 Reference Energy          =    -798.3876275628357462 [Eh]
	 Singles Energy            =      -0.0000000000000000 [Eh]
	 Same-Spin Energy          =      -0.4899244847587093 [Eh]
	 Opposite-Spin Energy      =      -1.5384411261321786 [Eh]
	 Correlation Energy        =      -2.0283656108908881 [Eh]
	 Total Energy              =    -800.4159931737266334 [Eh]

	 ================> DF-SCS-MP2 Energies <==================
	-----------------------------------------------------------
	 SCS Same-Spin Scale       =       0.3333333333333333 [-]
	 SCS Opposite-Spin Scale   =       1.2000000000000000 [-]
	 SCS Same-Spin Energy      =      -0.1633081615862364 [Eh]
	 SCS Opposite-Spin Energy  =      -1.8461293513586143 [Eh]
	 SCS Correlation Energy    =      -2.0094375129448507 [Eh]
	 SCS Total Energy          =    -800.3970650757805743 [Eh]
	-----------------------------------------------------------

  Dipole Moment: [D]
     X:    -0.0703      Y:     2.5720      Z:    -2.2222     Total:     3.3998

*** Psi4 exiting successfully. Buy a developer a beer!
