                               Psi4 1.3.2 release

  ==> Input File <==

--------------------------------------------------------------------------
#psi4
#
memory 32 gb

molecule  {
0 1
  P       -0.0032580    -0.8671950     0.1253540
  O       -1.2284863     0.0538890     0.5909918
  O        1.1608969     0.0207700    -0.5613155
  O       -0.6066630    -1.5809190    -1.1923580
  O        0.4670770    -1.7625730     1.2055430
  C       -1.7907810     0.9929110    -0.4324270
  C        1.9592910     0.8227470     0.3828140
  C       -2.8068250     1.8392790     0.2947570
  C        2.8879720     1.6796440    -0.4470910
  H       -1.0045510     1.5998440    -0.8949530
  H       -2.2583930     0.3707270    -1.2026260
  H        1.3234980     1.4321860     1.0341110
  H        2.5053500     0.1039360     0.9973890
  H       -3.3001310     2.5165380    -0.4095030
  H       -3.5654280     1.2070220     0.7630240
  H       -2.3198080     2.4333430     1.0748900
  H        3.5555180     2.2520740     0.2062470
  H        3.4947160     1.0534000    -1.1072300
  H        2.3164280     2.3771700    -1.0625470
  H       -0.2391740    -2.4808040    -1.2743640
units angstrom
no_reorient  #important for SAPT in psi4, default
symmetry c1  #important for SAPT in psi4, default
}

set PROPERTIES_ORIGIN ["COM"]
properties('MP2/aug-cc-pvtz', properties = ['dipole'])
--------------------------------------------------------------------------

    Molecular point group: c1
  Charge       = 0
  Multiplicity = 1
  Basis Set: AUG-CC-PVTZ
    Blend: AUG-CC-PVTZ
  Basis Set: (AUG-CC-PVTZ AUX)
    Blend: AUG-CC-PVTZ-JKFIT

    Orbital Energies [Eh]
    ---------------------

    Doubly Occupied:

       1A    -80.099893     2A    -20.599025     3A    -20.595387
       4A    -20.593706     5A    -20.502357     6A    -11.308426
       7A    -11.302398     8A    -11.233613     9A    -11.232457
      10A     -7.615762    11A     -5.514317    12A     -5.513596
      13A     -5.512801    14A     -1.441667    15A     -1.374386
      16A     -1.371231    17A     -1.283589    18A     -1.043448
      19A     -1.036975    20A     -0.870664    21A     -0.864481
      22A     -0.812713    23A     -0.727506    24A     -0.711185
      25A     -0.679131    26A     -0.657969    27A     -0.646763
      28A     -0.617411    29A     -0.601669    30A     -0.576139
      31A     -0.566235    32A     -0.560910    33A     -0.543789
      34A     -0.540272    35A     -0.531709    36A     -0.523979
      37A     -0.507709    38A     -0.487434    39A     -0.484640
      40A     -0.457679    41A     -0.453545

  @DF-RHF Final Energy:  -798.38268681558156

   => Energetics <=

    Nuclear Repulsion Energy =            626.3540366830164885
    One-Electron Energy =               -2344.2763181382078983
    Two-Electron Energy =                 919.5395946396097315
    Total Energy =                       -798.3826868155815646
  Basis Set: (AUG-CC-PVTZ AUX)
    Blend: AUG-CC-PVTZ-RI
    Molecular point group: c1

    Geometry (in Angstrom), charge = 0, multiplicity = 1:

       Center              X                  Y                   Z               Mass
    ------------   -----------------  -----------------  -----------------  -----------------
         P           -0.003863162726    -0.853147201325     0.123700882005    30.973761998420
         O           -1.229091462726     0.067936798675     0.589338682005    15.994914619570
         O            1.160291737274     0.034817798675    -0.562968617995    15.994914619570
         O           -0.607268162726    -1.566871201325    -1.194011117995    15.994914619570
         O            0.466471837274    -1.748525201325     1.203889882005    15.994914619570
         C           -1.791386162726     1.006958798675    -0.434080117995    12.000000000000
         C            1.958685837274     0.836794798675     0.381160882005    12.000000000000
         C           -2.807430162726     1.853326798675     0.293103882005    12.000000000000
         C            2.887366837274     1.693691798675    -0.448744117995    12.000000000000
         H           -1.005156162726     1.613891798675    -0.896606117995     1.007825032230
         H           -2.258998162726     0.384774798675    -1.204279117995     1.007825032230
         H            1.322892837274     1.446233798675     1.032457882005     1.007825032230
         H            2.504744837274     0.117983798675     0.995735882005     1.007825032230
         H           -3.300736162726     2.530585798675    -0.411156117995     1.007825032230
         H           -3.566033162726     1.221069798675     0.761370882005     1.007825032230
         H           -2.320413162726     2.447390798675     1.073236882005     1.007825032230
         H            3.554912837274     2.266121798675     0.204593882005     1.007825032230
         H            3.494110837274     1.067447798675    -1.108883117995     1.007825032230
         H            2.315822837274     2.391217798675    -1.064200117995     1.007825032230
         H           -0.239779162726    -2.466756201325    -1.276017117995     1.007825032230

  Basis Set: AUG-CC-PVTZ
    Blend: AUG-CC-PVTZ
  Basis Set: (AUG-CC-PVTZ AUX)
    Blend: AUG-CC-PVTZ-JKFIT
	 Reference Energy          =    -798.3826868155815646 [Eh]
	 Singles Energy            =      -0.0000000000000000 [Eh]
	 Same-Spin Energy          =      -0.4900136946032242 [Eh]
	 Opposite-Spin Energy      =      -1.5394534761156782 [Eh]
	 Correlation Energy        =      -2.0294671707189025 [Eh]
	 Total Energy              =    -800.4121539863004955 [Eh]

	 ================> DF-SCS-MP2 Energies <==================
	-----------------------------------------------------------
	 SCS Same-Spin Scale       =       0.3333333333333333 [-]
	 SCS Opposite-Spin Scale   =       1.2000000000000000 [-]
	 SCS Same-Spin Energy      =      -0.1633378982010747 [Eh]
	 SCS Opposite-Spin Energy  =      -1.8473441713388137 [Eh]
	 SCS Correlation Energy    =      -2.0106820695398886 [Eh]
	 SCS Total Energy          =    -800.3933688851215038 [Eh]
	-----------------------------------------------------------

  Dipole Moment: [D]
     X:    -0.1335      Y:     3.1332      Z:    -2.2841     Total:     3.8797

*** Psi4 exiting successfully. Buy a developer a beer!
