                               Psi4 1.3.2 release

  ==> Input File <==

--------------------------------------------------------------------------
#psi4
#
memory 32 gb

molecule  {
0 1
  P       -0.0005835    -0.8856856     0.1780580
  O       -1.1867680     0.1204360     0.5615740
  O        1.1133490     0.0895100    -0.5478160
  O       -0.6066630    -1.5809190    -1.1923580
  O        0.4670770    -1.7625730     1.2055430
  C       -1.8215655     1.0111352    -0.3964288
  C        1.9592910     0.8227470     0.3828140
  C       -2.8068250     1.8392790     0.2947570
  C        2.8879720     1.6796440    -0.4470910
  H       -1.0045510     1.5998440    -0.8949530
  H       -2.2583930     0.3707270    -1.2026260
  H        1.3234980     1.4321860     1.0341110
  H        2.5053500     0.1039360     0.9973890
  H       -3.3001310     2.5165380    -0.4095030
  H       -3.5654280     1.2070220     0.7630240
  H       -2.3198080     2.4333430     1.0748900
  H        3.5555180     2.2520740     0.2062470
  H        3.4947160     1.0534000    -1.1072300
  H        2.3164280     2.3771700    -1.0625470
  H       -0.2391740    -2.4808040    -1.2743640
units angstrom
no_reorient  #important for SAPT in psi4, default
symmetry c1  #important for SAPT in psi4, default
}

set PROPERTIES_ORIGIN ["COM"]
properties('MP2/aug-cc-pvtz', properties = ['dipole'])
--------------------------------------------------------------------------

    Molecular point group: c1
  Charge       = 0
  Multiplicity = 1
  Basis Set: AUG-CC-PVTZ
    Blend: AUG-CC-PVTZ
  Basis Set: (AUG-CC-PVTZ AUX)
    Blend: AUG-CC-PVTZ-JKFIT

    Orbital Energies [Eh]
    ---------------------

    Doubly Occupied:

       1A    -80.102891     2A    -20.596547     3A    -20.589008
       4A    -20.584885     5A    -20.522225     6A    -11.303368
       7A    -11.295467     8A    -11.228477     9A    -11.228068
      10A     -7.619523    11A     -5.517811    12A     -5.517305
      13A     -5.516962    14A     -1.439192    15A     -1.371290
      16A     -1.364253    17A     -1.321935    18A     -1.050452
      19A     -1.031067    20A     -0.869058    21A     -0.859053
      22A     -0.803758    23A     -0.720172    24A     -0.710855
      25A     -0.677687    26A     -0.652063    27A     -0.649071
      28A     -0.616365    29A     -0.606910    30A     -0.573929
      31A     -0.571499    32A     -0.564659    33A     -0.547686
      34A     -0.535677    35A     -0.528202    36A     -0.521379
      37A     -0.504916    38A     -0.487826    39A     -0.480581
      40A     -0.469149    41A     -0.466785

  @DF-RHF Final Energy:  -798.38037631565567

   => Energetics <=

    Nuclear Repulsion Energy =            627.4526112021144399
    One-Electron Energy =               -2346.4299617934434536
    Two-Electron Energy =                 920.5969742756733467
    Total Energy =                       -798.3803763156556670
  Basis Set: (AUG-CC-PVTZ AUX)
    Blend: AUG-CC-PVTZ-RI
    Molecular point group: c1

    Geometry (in Angstrom), charge = 0, multiplicity = 1:

       Center              X                  Y                   Z               Mass
    ------------   -----------------  -----------------  -----------------  -----------------
         P            0.001277059625    -0.883387196899     0.164655897154    30.973761998420
         O           -1.184907440375     0.122734403101     0.548171897154    15.994914619570
         O            1.115209559625     0.091808403101    -0.561218102846    15.994914619570
         O           -0.604802440375    -1.578620596899    -1.205760102846    15.994914619570
         O            0.468937559625    -1.760274596899     1.192140897154    15.994914619570
         C           -1.819704940375     1.013433603101    -0.409830902846    12.000000000000
         C            1.961151559625     0.825045403101     0.369411897154    12.000000000000
         C           -2.804964440375     1.841577403101     0.281354897154    12.000000000000
         C            2.889832559625     1.681942403101    -0.460493102846    12.000000000000
         H           -1.002690440375     1.602142403101    -0.908355102846     1.007825032230
         H           -2.256532440375     0.373025403101    -1.216028102846     1.007825032230
         H            1.325358559625     1.434484403101     1.020708897154     1.007825032230
         H            2.507210559625     0.106234403101     0.983986897154     1.007825032230
         H           -3.298270440375     2.518836403101    -0.422905102846     1.007825032230
         H           -3.563567440375     1.209320403101     0.749621897154     1.007825032230
         H           -2.317947440375     2.435641403101     1.061487897154     1.007825032230
         H            3.557378559625     2.254372403101     0.192844897154     1.007825032230
         H            3.496576559625     1.055698403101    -1.120632102846     1.007825032230
         H            2.318288559625     2.379468403101    -1.075949102846     1.007825032230
         H           -0.237313440375    -2.478505596899    -1.287766102846     1.007825032230

  Basis Set: AUG-CC-PVTZ
    Blend: AUG-CC-PVTZ
  Basis Set: (AUG-CC-PVTZ AUX)
    Blend: AUG-CC-PVTZ-JKFIT
	 Reference Energy          =    -798.3803763156556670 [Eh]
	 Singles Energy            =      -0.0000000000000000 [Eh]
	 Same-Spin Energy          =      -0.4897138024050926 [Eh]
	 Opposite-Spin Energy      =      -1.5381067467648486 [Eh]
	 Correlation Energy        =      -2.0278205491699413 [Eh]
	 Total Energy              =    -800.4081968648256407 [Eh]

	 ================> DF-SCS-MP2 Energies <==================
	-----------------------------------------------------------
	 SCS Same-Spin Scale       =       0.3333333333333333 [-]
	 SCS Opposite-Spin Scale   =       1.2000000000000000 [-]
	 SCS Same-Spin Energy      =      -0.1632379341350308 [Eh]
	 SCS Opposite-Spin Energy  =      -1.8457280961178182 [Eh]
	 SCS Correlation Energy    =      -2.0089660302528491 [Eh]
	 SCS Total Energy          =    -800.3893423459085170 [Eh]
	-----------------------------------------------------------

  Dipole Moment: [D]
     X:    -0.1536      Y:     2.4851      Z:    -1.7004     Total:     3.0151

*** Psi4 exiting successfully. Buy a developer a beer!
