                               Psi4 1.3.2 release

  ==> Input File <==

--------------------------------------------------------------------------
#psi4
#
memory 32 gb

molecule  {
0 1
  P       -0.0032580    -0.8671950     0.1253540
  O       -1.1867680     0.1204360     0.5615740
  O        1.1133490     0.0895100    -0.5478160
  O       -0.6440138    -1.6250986    -1.2739244
  O        0.4670770    -1.7625730     1.2055430
  C       -1.7907810     0.9929110    -0.4324270
  C        1.9592910     0.8227470     0.3828140
  C       -2.8068250     1.8392790     0.2947570
  C        2.8879720     1.6796440    -0.4470910
  H       -1.0045510     1.5998440    -0.8949530
  H       -2.2583930     0.3707270    -1.2026260
  H        1.3234980     1.4321860     1.0341110
  H        2.5053500     0.1039360     0.9973890
  H       -3.3001310     2.5165380    -0.4095030
  H       -3.5654280     1.2070220     0.7630240
  H       -2.3198080     2.4333430     1.0748900
  H        3.5555180     2.2520740     0.2062470
  H        3.4947160     1.0534000    -1.1072300
  H        2.3164280     2.3771700    -1.0625470
  H       -0.2391740    -2.4808040    -1.2743640
units angstrom
no_reorient  #important for SAPT in psi4, default
symmetry c1  #important for SAPT in psi4, default
}

set PROPERTIES_ORIGIN ["COM"]
properties('MP2/aug-cc-pvtz', properties = ['dipole'])
--------------------------------------------------------------------------

    Molecular point group: c1
  Charge       = 0
  Multiplicity = 1
  Basis Set: AUG-CC-PVTZ
    Blend: AUG-CC-PVTZ
  Basis Set: (AUG-CC-PVTZ AUX)
    Blend: AUG-CC-PVTZ-JKFIT

    Orbital Energies [Eh]
    ---------------------

    Doubly Occupied:

       1A    -80.114829     2A    -20.598334     3A    -20.596969
       4A    -20.596040     5A    -20.519565     6A    -11.303429
       7A    -11.302986     8A    -11.232821     9A    -11.231579
      10A     -7.628971    11A     -5.527342    12A     -5.526999
      13A     -5.525909    14A     -1.441006    15A     -1.381620
      16A     -1.367825    17A     -1.298109    18A     -1.044282
      19A     -1.036237    20A     -0.873974    21A     -0.866355
      22A     -0.805696    23A     -0.725438    24A     -0.713425
      25A     -0.683606    26A     -0.657845    27A     -0.645297
      28A     -0.622372    29A     -0.609135    30A     -0.570666
      31A     -0.566539    32A     -0.562886    33A     -0.548038
      34A     -0.540367    35A     -0.531671    36A     -0.522748
      37A     -0.507008    38A     -0.484039    39A     -0.482581
      40A     -0.470264    41A     -0.466356

  @DF-RHF Final Energy:  -798.37828371472722

   => Energetics <=

    Nuclear Repulsion Energy =            624.1832055737269229
    One-Electron Energy =               -2339.6606603349491706
    Two-Electron Energy =                 917.0991710464951439
    Total Energy =                       -798.3782837147272176
  Basis Set: (AUG-CC-PVTZ AUX)
    Blend: AUG-CC-PVTZ-RI
    Molecular point group: c1

    Geometry (in Angstrom), charge = 0, multiplicity = 1:

       Center              X                  Y                   Z               Mass
    ------------   -----------------  -----------------  -----------------  -----------------
         P            0.000620536780    -0.862607470435     0.133823347317    30.973761998420
         O           -1.182889463220     0.125023529565     0.570043347317    15.994914619570
         O            1.117227536780     0.094097529565    -0.539346652683    15.994914619570
         O           -0.640135263220    -1.620511070435    -1.265455052683    15.994914619570
         O            0.470955536780    -1.757985470435     1.214012347317    15.994914619570
         C           -1.786902463220     0.997498529565    -0.423957652683    12.000000000000
         C            1.963169536780     0.827334529565     0.391283347317    12.000000000000
         C           -2.802946463220     1.843866529565     0.303226347317    12.000000000000
         C            2.891850536780     1.684231529565    -0.438621652683    12.000000000000
         H           -1.000672463220     1.604431529565    -0.886483652683     1.007825032230
         H           -2.254514463220     0.375314529565    -1.194156652683     1.007825032230
         H            1.327376536780     1.436773529565     1.042580347317     1.007825032230
         H            2.509228536780     0.108523529565     1.005858347317     1.007825032230
         H           -3.296252463220     2.521125529565    -0.401033652683     1.007825032230
         H           -3.561549463220     1.211609529565     0.771493347317     1.007825032230
         H           -2.315929463220     2.437930529565     1.083359347317     1.007825032230
         H            3.559396536780     2.256661529565     0.214716347317     1.007825032230
         H            3.498594536780     1.057987529565    -1.098760652683     1.007825032230
         H            2.320306536780     2.381757529565    -1.054077652683     1.007825032230
         H           -0.235295463220    -2.476216470435    -1.265894652683     1.007825032230

  Basis Set: AUG-CC-PVTZ
    Blend: AUG-CC-PVTZ
  Basis Set: (AUG-CC-PVTZ AUX)
    Blend: AUG-CC-PVTZ-JKFIT
	 Reference Energy          =    -798.3782837147272176 [Eh]
	 Singles Energy            =      -0.0000000000000000 [Eh]
	 Same-Spin Energy          =      -0.4903423672685263 [Eh]
	 Opposite-Spin Energy      =      -1.5406168111621927 [Eh]
	 Correlation Energy        =      -2.0309591784307193 [Eh]
	 Total Energy              =    -800.4092428931579661 [Eh]

	 ================> DF-SCS-MP2 Energies <==================
	-----------------------------------------------------------
	 SCS Same-Spin Scale       =       0.3333333333333333 [-]
	 SCS Opposite-Spin Scale   =       1.2000000000000000 [-]
	 SCS Same-Spin Energy      =      -0.1634474557561754 [Eh]
	 SCS Opposite-Spin Energy  =      -1.8487401733946311 [Eh]
	 SCS Correlation Energy    =      -2.0121876291508065 [Eh]
	 SCS Total Energy          =    -800.3904713438780618 [Eh]
	-----------------------------------------------------------

  Dipole Moment: [D]
     X:     0.1345      Y:     3.0264      Z:    -1.7499     Total:     3.4985

*** Psi4 exiting successfully. Buy a developer a beer!
