                               Psi4 1.3.2 release

  ==> Input File <==

--------------------------------------------------------------------------
#psi4
#
memory 32 gb

molecule  {
0 1
  P       -0.0032580    -0.8671950     0.1253540
  O       -1.1867680     0.1204360     0.5615740
  O        1.0983593     0.0696803    -0.5984951
  O       -0.5705696    -1.5511288    -1.2238148
  O        0.4670770    -1.7625730     1.2055430
  C       -1.7907810     0.9929110    -0.4324270
  C        1.9592910     0.8227470     0.3828140
  C       -2.8068250     1.8392790     0.2947570
  C        2.8879720     1.6796440    -0.4470910
  H       -1.0045510     1.5998440    -0.8949530
  H       -2.2583930     0.3707270    -1.2026260
  H        1.3234980     1.4321860     1.0341110
  H        2.5053500     0.1039360     0.9973890
  H       -3.3001310     2.5165380    -0.4095030
  H       -3.5654280     1.2070220     0.7630240
  H       -2.3198080     2.4333430     1.0748900
  H        3.5555180     2.2520740     0.2062470
  H        3.4947160     1.0534000    -1.1072300
  H        2.3164280     2.3771700    -1.0625470
  H       -0.2391740    -2.4808040    -1.2743640
units angstrom
no_reorient  #important for SAPT in psi4, default
symmetry c1  #important for SAPT in psi4, default
}

set PROPERTIES_ORIGIN ["COM"]
properties('MP2/aug-cc-pvtz', properties = ['dipole'])
--------------------------------------------------------------------------

    Molecular point group: c1
  Charge       = 0
  Multiplicity = 1
  Basis Set: AUG-CC-PVTZ
    Blend: AUG-CC-PVTZ
  Basis Set: (AUG-CC-PVTZ AUX)
    Blend: AUG-CC-PVTZ-JKFIT

    Orbital Energies [Eh]
    ---------------------

    Doubly Occupied:

       1A    -80.101372     2A    -20.600470     3A    -20.591233
       4A    -20.588867     5A    -20.513143     6A    -11.303858
       7A    -11.300634     8A    -11.232114     9A    -11.229688
      10A     -7.617207    11A     -5.515809    12A     -5.515199
      13A     -5.514152    14A     -1.442700    15A     -1.376279
      16A     -1.363243    17A     -1.292168    18A     -1.041406
      19A     -1.034655    20A     -0.869145    21A     -0.863072
      22A     -0.810453    23A     -0.720295    24A     -0.713027
      25A     -0.679308    26A     -0.654629    27A     -0.649142
      28A     -0.612604    29A     -0.606177    30A     -0.575012
      31A     -0.564031    32A     -0.561043    33A     -0.544832
      34A     -0.536650    35A     -0.527928    36A     -0.522242
      37A     -0.505187    38A     -0.484233    39A     -0.480128
      40A     -0.466824    41A     -0.462213

  @DF-RHF Final Energy:  -798.38274185121566

   => Energetics <=

    Nuclear Repulsion Energy =            627.5369269084694679
    One-Electron Energy =               -2346.6745951098205296
    Two-Electron Energy =                 920.7549263501354062
    Total Energy =                       -798.3827418512156555
  Basis Set: (AUG-CC-PVTZ AUX)
    Blend: AUG-CC-PVTZ-RI
    Molecular point group: c1

    Geometry (in Angstrom), charge = 0, multiplicity = 1:

       Center              X                  Y                   Z               Mass
    ------------   -----------------  -----------------  -----------------  -----------------
         P           -0.005449171068    -0.868229186296     0.133882482176    30.973761998420
         O           -1.188959171068     0.119401813704     0.570102482176    15.994914619570
         O            1.096168128932     0.068646113704    -0.589966617824    15.994914619570
         O           -0.572760771068    -1.552162986296    -1.215286317824    15.994914619570
         O            0.464885828932    -1.763607186296     1.214071482176    15.994914619570
         C           -1.792972171068     0.991876813704    -0.423898517824    12.000000000000
         C            1.957099828932     0.821712813704     0.391342482176    12.000000000000
         C           -2.809016171068     1.838244813704     0.303285482176    12.000000000000
         C            2.885780828932     1.678609813704    -0.438562517824    12.000000000000
         H           -1.006742171068     1.598809813704    -0.886424517824     1.007825032230
         H           -2.260584171068     0.369692813704    -1.194097517824     1.007825032230
         H            1.321306828932     1.431151813704     1.042639482176     1.007825032230
         H            2.503158828932     0.102901813704     1.005917482176     1.007825032230
         H           -3.302322171068     2.515503813704    -0.400974517824     1.007825032230
         H           -3.567619171068     1.205987813704     0.771552482176     1.007825032230
         H           -2.321999171068     2.432308813704     1.083418482176     1.007825032230
         H            3.553326828932     2.251039813704     0.214775482176     1.007825032230
         H            3.492524828932     1.052365813704    -1.098701517824     1.007825032230
         H            2.314236828932     2.376135813704    -1.054018517824     1.007825032230
         H           -0.241365171068    -2.481838186296    -1.265835517824     1.007825032230

  Basis Set: AUG-CC-PVTZ
    Blend: AUG-CC-PVTZ
  Basis Set: (AUG-CC-PVTZ AUX)
    Blend: AUG-CC-PVTZ-JKFIT
	 Reference Energy          =    -798.3827418512156555 [Eh]
	 Singles Energy            =      -0.0000000000000000 [Eh]
	 Same-Spin Energy          =      -0.4904078559544596 [Eh]
	 Opposite-Spin Energy      =      -1.5401018319970023 [Eh]
	 Correlation Energy        =      -2.0305096879514619 [Eh]
	 Total Energy              =    -800.4132515391671632 [Eh]

	 ================> DF-SCS-MP2 Energies <==================
	-----------------------------------------------------------
	 SCS Same-Spin Scale       =       0.3333333333333333 [-]
	 SCS Opposite-Spin Scale   =       1.2000000000000000 [-]
	 SCS Same-Spin Energy      =      -0.1634692853181532 [Eh]
	 SCS Opposite-Spin Energy  =      -1.8481221983964027 [Eh]
	 SCS Correlation Energy    =      -2.0115914837145557 [Eh]
	 SCS Total Energy          =    -800.3943333349302520 [Eh]
	-----------------------------------------------------------

  Dipole Moment: [D]
     X:    -0.0151      Y:     2.6956      Z:    -1.9926     Total:     3.3522

*** Psi4 exiting successfully. Buy a developer a beer!
