                               Psi4 1.3.2 release

  ==> Input File <==

--------------------------------------------------------------------------
#psi4
#
memory 32 gb

molecule  {
0 1
  P       -0.0032580    -0.8671950     0.1253540
  O       -1.1867680     0.1204360     0.5615740
  O        1.1341000     0.0790530    -0.5580929
  O       -0.6066630    -1.5809190    -1.1923580
  O        0.4670770    -1.7625730     1.2055430
  C       -1.7907810     0.9929110    -0.4324270
  C        1.9592910     0.8227470     0.3828140
  C       -2.8068250     1.8392790     0.2947570
  C        2.8879720     1.6796440    -0.4470910
  H       -1.0045510     1.5998440    -0.8949530
  H       -2.2583930     0.3707270    -1.2026260
  H        1.3391204     1.4386366     1.0430448
  H        2.5053500     0.1039360     0.9973890
  H       -3.3001310     2.5165380    -0.4095030
  H       -3.5654280     1.2070220     0.7630240
  H       -2.3198080     2.4333430     1.0748900
  H        3.5555180     2.2520740     0.2062470
  H        3.4947160     1.0534000    -1.1072300
  H        2.3164280     2.3771700    -1.0625470
  H       -0.2391740    -2.4808040    -1.2743640
units angstrom
no_reorient  #important for SAPT in psi4, default
symmetry c1  #important for SAPT in psi4, default
}

set PROPERTIES_ORIGIN ["COM"]
properties('MP2/aug-cc-pvtz', properties = ['dipole'])
--------------------------------------------------------------------------

    Molecular point group: c1
  Charge       = 0
  Multiplicity = 1
  Basis Set: AUG-CC-PVTZ
    Blend: AUG-CC-PVTZ
  Basis Set: (AUG-CC-PVTZ AUX)
    Blend: AUG-CC-PVTZ-JKFIT

    Orbital Energies [Eh]
    ---------------------

    Doubly Occupied:

       1A    -80.105539     2A    -20.605121     3A    -20.593206
       4A    -20.591014     5A    -20.511401     6A    -11.302301
       7A    -11.298097     8A    -11.230638     9A    -11.229403
      10A     -7.620956    11A     -5.519514    12A     -5.518936
      13A     -5.517940    14A     -1.446187    15A     -1.380028
      16A     -1.376069    17A     -1.291600    18A     -1.041661
      19A     -1.033148    20A     -0.871973    21A     -0.863925
      22A     -0.814149    23A     -0.730464    24A     -0.715144
      25A     -0.681733    26A     -0.658499    27A     -0.651289
      28A     -0.617729    29A     -0.606608    30A     -0.576778
      31A     -0.565563    32A     -0.561674    33A     -0.545226
      34A     -0.538922    35A     -0.533780    36A     -0.519873
      37A     -0.503807    38A     -0.481164    39A     -0.479915
      40A     -0.465498    41A     -0.460153

  @DF-RHF Final Energy:  -798.38746045541575

   => Energetics <=

    Nuclear Repulsion Energy =            627.5076889145382211
    One-Electron Energy =               -2346.4770480404640693
    Two-Electron Energy =                 920.5818986705100997
    Total Energy =                       -798.3874604554157486
  Basis Set: (AUG-CC-PVTZ AUX)
    Blend: AUG-CC-PVTZ-RI
    Molecular point group: c1

    Geometry (in Angstrom), charge = 0, multiplicity = 1:

       Center              X                  Y                   Z               Mass
    ------------   -----------------  -----------------  -----------------  -----------------
         P           -0.005514759697    -0.866151309507     0.126362447976    30.973761998420
         O           -1.189024759697     0.121479690493     0.562582447976    15.994914619570
         O            1.131843240303     0.080096690493    -0.557084452024    15.994914619570
         O           -0.608919759697    -1.579875309507    -1.191349552024    15.994914619570
         O            0.464820240303    -1.761529309507     1.206551447976    15.994914619570
         C           -1.793037759697     0.993954690493    -0.431418552024    12.000000000000
         C            1.957034240303     0.823790690493     0.383822447976    12.000000000000
         C           -2.809081759697     1.840322690493     0.295765447976    12.000000000000
         C            2.885715240303     1.680687690493    -0.446082552024    12.000000000000
         H           -1.006807759697     1.600887690493    -0.893944552024     1.007825032230
         H           -2.260649759697     0.371770690493    -1.201617552024     1.007825032230
         H            1.336863640303     1.439680290493     1.044053247976     1.007825032230
         H            2.503093240303     0.104979690493     0.998397447976     1.007825032230
         H           -3.302387759697     2.517581690493    -0.408494552024     1.007825032230
         H           -3.567684759697     1.208065690493     0.764032447976     1.007825032230
         H           -2.322064759697     2.434386690493     1.075898447976     1.007825032230
         H            3.553261240303     2.253117690493     0.207255447976     1.007825032230
         H            3.492459240303     1.054443690493    -1.106221552024     1.007825032230
         H            2.314171240303     2.378213690493    -1.061538552024     1.007825032230
         H           -0.241430759697    -2.479760309507    -1.273355552024     1.007825032230

  Basis Set: AUG-CC-PVTZ
    Blend: AUG-CC-PVTZ
  Basis Set: (AUG-CC-PVTZ AUX)
    Blend: AUG-CC-PVTZ-JKFIT
	 Reference Energy          =    -798.3874604554157486 [Eh]
	 Singles Energy            =      -0.0000000000000000 [Eh]
	 Same-Spin Energy          =      -0.4898903569285801 [Eh]
	 Opposite-Spin Energy      =      -1.5384829165365845 [Eh]
	 Correlation Energy        =      -2.0283732734651645 [Eh]
	 Total Energy              =    -800.4158337288808980 [Eh]

	 ================> DF-SCS-MP2 Energies <==================
	-----------------------------------------------------------
	 SCS Same-Spin Scale       =       0.3333333333333333 [-]
	 SCS Opposite-Spin Scale   =       1.2000000000000000 [-]
	 SCS Same-Spin Energy      =      -0.1632967856428600 [Eh]
	 SCS Opposite-Spin Energy  =      -1.8461794998439014 [Eh]
	 SCS Correlation Energy    =      -2.0094762854867616 [Eh]
	 SCS Total Energy          =    -800.3969367409025608 [Eh]
	-----------------------------------------------------------

  Dipole Moment: [D]
     X:    -0.1673      Y:     2.6482      Z:    -2.1854     Total:     3.4376

*** Psi4 exiting successfully. Buy a developer a beer!
