                               Psi4 1.4a3.dev225

  ==> Input File <==

--------------------------------------------------------------------------
#psi4
#
memory 32 gb

molecule  {
0 1
  P       -0.0193980    -0.9573280    -0.1096150
  O        1.2162340    -0.0269160    -0.5415020
  O       -1.1156210     0.0613730     0.5053800
  O        0.5163150    -1.6599550     1.2462920
  O       -0.4960840    -1.8598830    -1.1802340
  C        1.8380650     0.8393470     0.4463000
  C       -1.9139900     0.7949960    -0.4653280
  C        2.8342980     1.7043970    -0.2898420
  C       -2.8451070     1.6924310     0.3153960
  H        1.0978566     1.4103421     0.9114437
  H        2.3223620     0.2121780     1.1993520
  H       -1.2444800     1.3745780    -1.1102950
  H       -2.4582310     0.0769500    -1.0841060
  H        3.3419030     2.3695990     0.4147870
  H        3.5818500     1.0824000    -0.7858930
  H        2.3288000     2.3113610    -1.0437700
  H       -3.4753290     2.2644580    -0.3716610
  H       -3.4879190     1.0956960     0.9656320
  H       -2.2756200     2.3909680     0.9321420
  H        0.1488640    -2.5599310     1.3156750
units angstrom
no_reorient  #important for SAPT in psi4, default
symmetry c1  #important for SAPT in psi4, default
}

set PROPERTIES_ORIGIN ["COM"]
properties('MP2/aug-cc-pvtz', properties = ['dipole'])
--------------------------------------------------------------------------

    Molecular point group: c1
  Charge       = 0
  Multiplicity = 1
  Basis Set: AUG-CC-PVTZ
    Blend: AUG-CC-PVTZ
  Basis Set: (AUG-CC-PVTZ AUX)
    Blend: AUG-CC-PVTZ-JKFIT

    Orbital Energies [Eh]
    ---------------------

    Doubly Occupied:

       1A    -80.104890     2A    -20.604902     3A    -20.590515
       4A    -20.590379     5A    -20.511399     6A    -11.299003
       7A    -11.294801     8A    -11.229833     9A    -11.229297
      10A     -7.620340    11A     -5.518858    12A     -5.518351
      13A     -5.517367    14A     -1.445897    15A     -1.378996
      16A     -1.376470    17A     -1.291847    18A     -1.042810
      19A     -1.034545    20A     -0.874095    21A     -0.867005
      22A     -0.813597    23A     -0.730650    24A     -0.716712
      25A     -0.682877    26A     -0.660357    27A     -0.652021
      28A     -0.618231    29A     -0.605305    30A     -0.576494
      31A     -0.565754    32A     -0.563626    33A     -0.544548
      34A     -0.539952    35A     -0.534956    36A     -0.520009
      37A     -0.503740    38A     -0.482448    39A     -0.479553
      40A     -0.465738    41A     -0.460676

  @DF-RHF Final Energy:  -798.38796954700376

   => Energetics <=

    Nuclear Repulsion Energy =            627.8318263600485807
    One-Electron Energy =               -2347.1218998689869295
    Two-Electron Energy =                 920.9021039619345856
    Total Energy =                       -798.3879695470037632
  Basis Set: (AUG-CC-PVTZ AUX)
    Blend: AUG-CC-PVTZ-RI
    Molecular point group: c1

    Geometry (in Angstrom), charge = 0, multiplicity = 1:

       Center              X                  Y                   Z               Mass
    ------------   -----------------  -----------------  -----------------  -----------------
         P           -0.020504018071    -0.873559575592    -0.099979581297    30.973761998420
         O            1.215127981929     0.056852424408    -0.531866581297    15.994914619570
         O           -1.116727018071     0.145141424408     0.515015418703    15.994914619570
         O            0.515208981929    -1.576186575592     1.255927418703    15.994914619570
         O           -0.497190018071    -1.776114575592    -1.170598581297    15.994914619570
         C            1.836958981929     0.923115424408     0.455935418703    12.000000000000
         C           -1.915096018071     0.878764424408    -0.455692581297    12.000000000000
         C            2.833191981929     1.788165424408    -0.280206581297    12.000000000000
         C           -2.846213018071     1.776199424408     0.325031418703    12.000000000000
         H            1.096750581929     1.494110524408     0.921079118703     1.007825032230
         H            2.321255981929     0.295946424408     1.208987418703     1.007825032230
         H           -1.245586018071     1.458346424408    -1.100659581297     1.007825032230
         H           -2.459337018071     0.160718424408    -1.074470581297     1.007825032230
         H            3.340796981929     2.453367424408     0.424422418703     1.007825032230
         H            3.580743981929     1.166168424408    -0.776257581297     1.007825032230
         H            2.327693981929     2.395129424408    -1.034134581297     1.007825032230
         H           -3.476435018071     2.348226424408    -0.362025581297     1.007825032230
         H           -3.489025018071     1.179464424408     0.975267418703     1.007825032230
         H           -2.276726018071     2.474736424408     0.941777418703     1.007825032230
         H            0.147757981929    -2.476162575592     1.325310418703     1.007825032230

  Basis Set: AUG-CC-PVTZ
    Blend: AUG-CC-PVTZ
  Basis Set: (AUG-CC-PVTZ AUX)
    Blend: AUG-CC-PVTZ-JKFIT
	 Reference Energy          =    -798.3879695470037632 [Eh]
	 Singles Energy            =      -0.0000000000000000 [Eh]
	 Same-Spin Energy          =      -0.4895825485889732 [Eh]
	 Opposite-Spin Energy      =      -1.5375779767555717 [Eh]
	 Correlation Energy        =      -2.0271605253445451 [Eh]
	 Total Energy              =    -800.4151300723483473 [Eh]

	 ================> DF-SCS-MP2 Energies <==================
	-----------------------------------------------------------
	 SCS Same-Spin Scale       =       0.3333333333333333 [-]
	 SCS Opposite-Spin Scale   =       1.2000000000000000 [-]
	 SCS Same-Spin Energy      =      -0.1631941828629910 [Eh]
	 SCS Opposite-Spin Energy  =      -1.8450935721066859 [Eh]
	 SCS Correlation Energy    =      -2.0082877549696772 [Eh]
	 SCS Total Energy          =    -800.3962573019734918 [Eh]
	-----------------------------------------------------------

  Dipole Moment: [D]
     X:     0.1350      Y:     2.6730      Z:     2.1166     Total:     3.4122

*** Psi4 exiting successfully. Buy a developer a beer!
