                               Psi4 1.3.2 release

  ==> Input File <==

--------------------------------------------------------------------------
#psi4
#
memory 32 gb

molecule  {
0 1
  P       -0.0032580    -0.8671950     0.1253540
  O       -1.1867680     0.1204360     0.5615740
  O        1.0928556     0.1001903    -0.5372557
  O       -0.6066630    -1.5809190    -1.1923580
  O        0.4670770    -1.7625730     1.2055430
  C       -1.7907810     0.9929110    -0.4324270
  C        1.9592910     0.8227470     0.3828140
  C       -2.8068250     1.8392790     0.2947570
  C        2.8879720     1.6796440    -0.4470910
  H       -1.0045510     1.5998440    -0.8949530
  H       -2.2583930     0.3707270    -1.2026260
  H        1.3080693     1.4255497     1.0249788
  H        2.5053500     0.1039360     0.9973890
  H       -3.3001310     2.5165380    -0.4095030
  H       -3.5654280     1.2070220     0.7630240
  H       -2.3198080     2.4333430     1.0748900
  H        3.5555180     2.2520740     0.2062470
  H        3.4947160     1.0534000    -1.1072300
  H        2.3164280     2.3771700    -1.0625470
  H       -0.2391740    -2.4808040    -1.2743640
units angstrom
no_reorient  #important for SAPT in psi4, default
symmetry c1  #important for SAPT in psi4, default
}

set PROPERTIES_ORIGIN ["COM"]
properties('MP2/aug-cc-pvtz', properties = ['dipole'])
--------------------------------------------------------------------------

    Molecular point group: c1
  Charge       = 0
  Multiplicity = 1
  Basis Set: AUG-CC-PVTZ
    Blend: AUG-CC-PVTZ
  Basis Set: (AUG-CC-PVTZ AUX)
    Blend: AUG-CC-PVTZ-JKFIT

    Orbital Energies [Eh]
    ---------------------

    Doubly Occupied:

       1A    -80.102636     2A    -20.604354     3A    -20.589686
       4A    -20.589079     5A    -20.510569     6A    -11.300400
       7A    -11.300322     8A    -11.231492     9A    -11.229328
      10A     -7.618467    11A     -5.516983    12A     -5.516541
      13A     -5.515468    14A     -1.447987    15A     -1.379950
      16A     -1.376801    17A     -1.290890    18A     -1.042002
      19A     -1.033903    20A     -0.874511    21A     -0.863738
      22A     -0.811908    23A     -0.731525    24A     -0.715260
      25A     -0.682681    26A     -0.657665    27A     -0.651604
      28A     -0.619962    29A     -0.604465    30A     -0.576764
      31A     -0.565482    32A     -0.562794    33A     -0.544565
      34A     -0.539665    35A     -0.534666    36A     -0.519465
      37A     -0.503647    38A     -0.480891    39A     -0.478177
      40A     -0.464961    41A     -0.460452

  @DF-RHF Final Energy:  -798.38941064566336

   => Energetics <=

    Nuclear Repulsion Energy =            628.7124577640319103
    One-Electron Energy =               -2348.9203249636616420
    Two-Electron Energy =                 921.8184565539662572
    Total Energy =                       -798.3894106456633608
  Basis Set: (AUG-CC-PVTZ AUX)
    Blend: AUG-CC-PVTZ-RI
    Molecular point group: c1

    Geometry (in Angstrom), charge = 0, multiplicity = 1:

       Center              X                  Y                   Z               Mass
    ------------   -----------------  -----------------  -----------------  -----------------
         P           -0.001028931380    -0.868260508850     0.124316986413    30.973761998420
         O           -1.184538931380     0.119370491150     0.560536986413    15.994914619570
         O            1.095084668620     0.099124791150    -0.538292713587    15.994914619570
         O           -0.604433931380    -1.581984508850    -1.193395013587    15.994914619570
         O            0.469306068620    -1.763638508850     1.204505986413    15.994914619570
         C           -1.788551931380     0.991845491150    -0.433464013587    12.000000000000
         C            1.961520068620     0.821681491150     0.381776986413    12.000000000000
         C           -2.804595931380     1.838213491150     0.293719986413    12.000000000000
         C            2.890201068620     1.678578491150    -0.448128013587    12.000000000000
         H           -1.002321931380     1.598778491150    -0.895990013587     1.007825032230
         H           -2.256163931380     0.369661491150    -1.203663013587     1.007825032230
         H            1.310298368620     1.424484191150     1.023941786413     1.007825032230
         H            2.507579068620     0.102870491150     0.996351986413     1.007825032230
         H           -3.297901931380     2.515472491150    -0.410540013587     1.007825032230
         H           -3.563198931380     1.205956491150     0.761986986413     1.007825032230
         H           -2.317578931380     2.432277491150     1.073852986413     1.007825032230
         H            3.557747068620     2.251008491150     0.205209986413     1.007825032230
         H            3.496945068620     1.052334491150    -1.108267013587     1.007825032230
         H            2.318657068620     2.376104491150    -1.063584013587     1.007825032230
         H           -0.236944931380    -2.481869508850    -1.275401013587     1.007825032230

  Basis Set: AUG-CC-PVTZ
    Blend: AUG-CC-PVTZ
  Basis Set: (AUG-CC-PVTZ AUX)
    Blend: AUG-CC-PVTZ-JKFIT
	 Reference Energy          =    -798.3894106456633608 [Eh]
	 Singles Energy            =      -0.0000000000000000 [Eh]
	 Same-Spin Energy          =      -0.4895441939830437 [Eh]
	 Opposite-Spin Energy      =      -1.5374877008748924 [Eh]
	 Correlation Energy        =      -2.0270318948579362 [Eh]
	 Total Energy              =    -800.4164425405213024 [Eh]

	 ================> DF-SCS-MP2 Energies <==================
	-----------------------------------------------------------
	 SCS Same-Spin Scale       =       0.3333333333333333 [-]
	 SCS Opposite-Spin Scale   =       1.2000000000000000 [-]
	 SCS Same-Spin Energy      =      -0.1631813979943479 [Eh]
	 SCS Opposite-Spin Energy  =      -1.8449852410498708 [Eh]
	 SCS Correlation Energy    =      -2.0081666390442185 [Eh]
	 SCS Total Energy          =    -800.3975772847076087 [Eh]
	-----------------------------------------------------------

  Dipole Moment: [D]
     X:     0.0399      Y:     2.6485      Z:    -2.2408     Total:     3.4694

*** Psi4 exiting successfully. Buy a developer a beer!
