                               Psi4 1.3.2 release

  ==> Input File <==

--------------------------------------------------------------------------
#psi4
#
memory 32 gb

molecule  {
0 1
  P       -0.0032580    -0.8671950     0.1253540
  O       -1.1867680     0.1204360     0.5615740
  O        1.1133490     0.0895100    -0.5478160
  O       -0.6066630    -1.5809190    -1.1923580
  O        0.4670770    -1.7625730     1.2055430
  C       -1.7907810     0.9929110    -0.4324270
  C        1.8430735     0.7220132     0.2549618
  C       -2.8068250     1.8392790     0.2947570
  C        2.8879720     1.6796440    -0.4470910
  H       -1.0045510     1.5998440    -0.8949530
  H       -2.2583930     0.3707270    -1.2026260
  H        1.3234980     1.4321860     1.0341110
  H        2.5053500     0.1039360     0.9973890
  H       -3.3001310     2.5165380    -0.4095030
  H       -3.5654280     1.2070220     0.7630240
  H       -2.3198080     2.4333430     1.0748900
  H        3.5555180     2.2520740     0.2062470
  H        3.4947160     1.0534000    -1.1072300
  H        2.3164280     2.3771700    -1.0625470
  H       -0.2391740    -2.4808040    -1.2743640
units angstrom
no_reorient  #important for SAPT in psi4, default
symmetry c1  #important for SAPT in psi4, default
}

set PROPERTIES_ORIGIN ["COM"]
properties('MP2/aug-cc-pvtz', properties = ['dipole'])
--------------------------------------------------------------------------

    Molecular point group: c1
  Charge       = 0
  Multiplicity = 1
  Basis Set: AUG-CC-PVTZ
    Blend: AUG-CC-PVTZ
  Basis Set: (AUG-CC-PVTZ AUX)
    Blend: AUG-CC-PVTZ-JKFIT

    Orbital Energies [Eh]
    ---------------------

    Doubly Occupied:

       1A    -80.118696     2A    -20.614934     3A    -20.611746
       4A    -20.600049     5A    -20.520810     6A    -11.306930
       7A    -11.300673     8A    -11.233152     9A    -11.223887
      10A     -7.634434    11A     -5.532887    12A     -5.532568
      13A     -5.531256    14A     -1.498291    15A     -1.425078
      16A     -1.387975    17A     -1.301748    18A     -1.044423
      19A     -1.013988    20A     -0.893458    21A     -0.869360
      22A     -0.810720    23A     -0.762749    24A     -0.729507
      25A     -0.697945    26A     -0.668728    27A     -0.658019
      28A     -0.656512    29A     -0.611235    30A     -0.581900
      31A     -0.575423    32A     -0.562204    33A     -0.549743
      34A     -0.547013    35A     -0.543267    36A     -0.516951
      37A     -0.490928    38A     -0.477832    39A     -0.473038
      40A     -0.453537    41A     -0.433000

  @DF-RHF Final Energy:  -798.34929454673363

   => Energetics <=

    Nuclear Repulsion Energy =            632.3663945633678622
    One-Electron Energy =               -2355.4381889438127473
    Two-Electron Energy =                 924.7224998337111401
    Total Energy =                       -798.3492945467336313
  Basis Set: (AUG-CC-PVTZ AUX)
    Blend: AUG-CC-PVTZ-RI
    Molecular point group: c1

    Geometry (in Angstrom), charge = 0, multiplicity = 1:

       Center              X                  Y                   Z               Mass
    ------------   -----------------  -----------------  -----------------  -----------------
         P            0.005795749401    -0.859347548898     0.135313736486    30.973761998420
         O           -1.177714250599     0.128283451102     0.571533736486    15.994914619570
         O            1.122402749401     0.097357451102    -0.537856263514    15.994914619570
         O           -0.597609250599    -1.573071548898    -1.182398263514    15.994914619570
         O            0.476130749401    -1.754725548898     1.215502736486    15.994914619570
         C           -1.781727250599     1.000758451102    -0.422467263514    12.000000000000
         C            1.852127249401     0.729860651102     0.264921536486    12.000000000000
         C           -2.797771250599     1.847126451102     0.304716736486    12.000000000000
         C            2.897025749401     1.687491451102    -0.437131263514    12.000000000000
         H           -0.995497250599     1.607691451102    -0.884993263514     1.007825032230
         H           -2.249339250599     0.378574451102    -1.192666263514     1.007825032230
         H            1.332551749401     1.440033451102     1.044070736486     1.007825032230
         H            2.514403749401     0.111783451102     1.007348736486     1.007825032230
         H           -3.291077250599     2.524385451102    -0.399543263514     1.007825032230
         H           -3.556374250599     1.214869451102     0.772983736486     1.007825032230
         H           -2.310754250599     2.441190451102     1.084849736486     1.007825032230
         H            3.564571749401     2.259921451102     0.216206736486     1.007825032230
         H            3.503769749401     1.061247451102    -1.097270263514     1.007825032230
         H            2.325481749401     2.385017451102    -1.052587263514     1.007825032230
         H           -0.230120250599    -2.472956548898    -1.264404263514     1.007825032230

  Basis Set: AUG-CC-PVTZ
    Blend: AUG-CC-PVTZ
  Basis Set: (AUG-CC-PVTZ AUX)
    Blend: AUG-CC-PVTZ-JKFIT
	 Reference Energy          =    -798.3492945467336313 [Eh]
	 Singles Energy            =      -0.0000000000000000 [Eh]
	 Same-Spin Energy          =      -0.4906074344207912 [Eh]
	 Opposite-Spin Energy      =      -1.5380067420748884 [Eh]
	 Correlation Energy        =      -2.0286141764956795 [Eh]
	 Total Energy              =    -800.3779087232293250 [Eh]

	 ================> DF-SCS-MP2 Energies <==================
	-----------------------------------------------------------
	 SCS Same-Spin Scale       =       0.3333333333333333 [-]
	 SCS Opposite-Spin Scale   =       1.2000000000000000 [-]
	 SCS Same-Spin Energy      =      -0.1635358114735971 [Eh]
	 SCS Opposite-Spin Energy  =      -1.8456080904898660 [Eh]
	 SCS Correlation Energy    =      -2.0091439019634629 [Eh]
	 SCS Total Energy          =    -800.3584384486971430 [Eh]
	-----------------------------------------------------------

  Dipole Moment: [D]
     X:    -0.8810      Y:     2.0345      Z:    -2.5544     Total:     3.3824

*** Psi4 exiting successfully. Buy a developer a beer!
