                               Psi4 1.3.2 release

  ==> Input File <==

--------------------------------------------------------------------------
#psi4
#
memory 32 gb

molecule  {
0 1
  P       -0.0032580    -0.8671950     0.1253540
  O       -1.1191147     0.1505921     0.5440184
  O        1.1133490     0.0895100    -0.5478160
  O       -0.6066630    -1.5809190    -1.1923580
  O        0.4670770    -1.7625730     1.2055430
  C       -1.7907810     0.9929110    -0.4324270
  C        1.9592910     0.8227470     0.3828140
  C       -2.8068250     1.8392790     0.2947570
  C        2.8879720     1.6796440    -0.4470910
  H       -0.9664209     1.5734934    -0.8611579
  H       -2.2583930     0.3707270    -1.2026260
  H        1.3234980     1.4321860     1.0341110
  H        2.5053500     0.1039360     0.9973890
  H       -3.3001310     2.5165380    -0.4095030
  H       -3.5654280     1.2070220     0.7630240
  H       -2.3198080     2.4333430     1.0748900
  H        3.5555180     2.2520740     0.2062470
  H        3.4947160     1.0534000    -1.1072300
  H        2.3164280     2.3771700    -1.0625470
  H       -0.2391740    -2.4808040    -1.2743640
units angstrom
no_reorient  #important for SAPT in psi4, default
symmetry c1  #important for SAPT in psi4, default
}

set PROPERTIES_ORIGIN ["COM"]
properties('MP2/aug-cc-pvtz', properties = ['dipole'])
--------------------------------------------------------------------------

    Molecular point group: c1
  Charge       = 0
  Multiplicity = 1
  Basis Set: AUG-CC-PVTZ
    Blend: AUG-CC-PVTZ
  Basis Set: (AUG-CC-PVTZ AUX)
    Blend: AUG-CC-PVTZ-JKFIT

    Orbital Energies [Eh]
    ---------------------

    Doubly Occupied:

       1A    -80.099720     2A    -20.604334     3A    -20.589182
       4A    -20.584180     5A    -20.509206     6A    -11.304596
       7A    -11.296442     8A    -11.233049     9A    -11.228531
      10A     -7.616015    11A     -5.514636    12A     -5.514118
      13A     -5.512941    14A     -1.450951    15A     -1.382957
      16A     -1.374049    17A     -1.289705    18A     -1.044547
      19A     -1.032519    20A     -0.876179    21A     -0.865053
      22A     -0.810984    23A     -0.731423    24A     -0.715255
      25A     -0.684873    26A     -0.657666    27A     -0.650767
      28A     -0.617291    29A     -0.608273    30A     -0.576664
      31A     -0.565349    32A     -0.562742    33A     -0.547388
      34A     -0.538204    35A     -0.533415    36A     -0.520236
      37A     -0.503789    38A     -0.480720    39A     -0.477662
      40A     -0.464226    41A     -0.457548

  @DF-RHF Final Energy:  -798.38869879580250

   => Energetics <=

    Nuclear Repulsion Energy =            629.8842046936337056
    One-Electron Energy =               -2351.2910353726065296
    Two-Electron Energy =                 923.0181318831702129
    Total Energy =                       -798.3886987958024974
  Basis Set: (AUG-CC-PVTZ AUX)
    Blend: AUG-CC-PVTZ-RI
    Molecular point group: c1

    Geometry (in Angstrom), charge = 0, multiplicity = 1:

       Center              X                  Y                   Z               Mass
    ------------   -----------------  -----------------  -----------------  -----------------
         P           -0.010532187878    -0.870153823233     0.126955583808    30.973761998420
         O           -1.126388887878     0.147633276767     0.545619983808    15.994914619570
         O            1.106074812122     0.086551176767    -0.546214416192    15.994914619570
         O           -0.613937187878    -1.583877823233    -1.190756416192    15.994914619570
         O            0.459802812122    -1.765531823233     1.207144583808    15.994914619570
         C           -1.798055187878     0.989952176767    -0.430825416192    12.000000000000
         C            1.952016812122     0.819788176767     0.384415583808    12.000000000000
         C           -2.814099187878     1.836320176767     0.296358583808    12.000000000000
         C            2.880697812122     1.676685176767    -0.445489416192    12.000000000000
         H           -0.973695087878     1.570534576767    -0.859556316192     1.007825032230
         H           -2.265667187878     0.367768176767    -1.201024416192     1.007825032230
         H            1.316223812122     1.429227176767     1.035712583808     1.007825032230
         H            2.498075812122     0.100977176767     0.998990583808     1.007825032230
         H           -3.307405187878     2.513579176767    -0.407901416192     1.007825032230
         H           -3.572702187878     1.204063176767     0.764625583808     1.007825032230
         H           -2.327082187878     2.430384176767     1.076491583808     1.007825032230
         H            3.548243812122     2.249115176767     0.207848583808     1.007825032230
         H            3.487441812122     1.050441176767    -1.105628416192     1.007825032230
         H            2.309153812122     2.374211176767    -1.060945416192     1.007825032230
         H           -0.246448187878    -2.483762823233    -1.272762416192     1.007825032230

  Basis Set: AUG-CC-PVTZ
    Blend: AUG-CC-PVTZ
  Basis Set: (AUG-CC-PVTZ AUX)
    Blend: AUG-CC-PVTZ-JKFIT
	 Reference Energy          =    -798.3886987958024974 [Eh]
	 Singles Energy            =      -0.0000000000000000 [Eh]
	 Same-Spin Energy          =      -0.4893192245679577 [Eh]
	 Opposite-Spin Energy      =      -1.5367232659213905 [Eh]
	 Correlation Energy        =      -2.0260424904893481 [Eh]
	 Total Energy              =    -800.4147412862918145 [Eh]

	 ================> DF-SCS-MP2 Energies <==================
	-----------------------------------------------------------
	 SCS Same-Spin Scale       =       0.3333333333333333 [-]
	 SCS Opposite-Spin Scale   =       1.2000000000000000 [-]
	 SCS Same-Spin Energy      =      -0.1631064081893192 [Eh]
	 SCS Opposite-Spin Energy  =      -1.8440679191056686 [Eh]
	 SCS Correlation Energy    =      -2.0071743272949876 [Eh]
	 SCS Total Energy          =    -800.3958731230974308 [Eh]
	-----------------------------------------------------------

  Dipole Moment: [D]
     X:    -0.3811      Y:     2.6557      Z:    -2.1696     Total:     3.4504

*** Psi4 exiting successfully. Buy a developer a beer!
