                               Psi4 1.3.2 release

  ==> Input File <==

--------------------------------------------------------------------------
#psi4
#
memory 32 gb

molecule  {
0 1
  P       -0.0032580    -0.8671950     0.1253540
  O       -1.1867680     0.1204360     0.5615740
  O        1.1133490     0.0895100    -0.5478160
  O       -0.6066630    -1.5809190    -1.1923580
  O        0.4035084    -1.6415573     1.0595490
  C       -1.7907810     0.9929110    -0.4324270
  C        1.9592910     0.8227470     0.3828140
  C       -2.8068250     1.8392790     0.2947570
  C        2.8879720     1.6796440    -0.4470910
  H       -1.0045510     1.5998440    -0.8949530
  H       -2.2583930     0.3707270    -1.2026260
  H        1.3234980     1.4321860     1.0341110
  H        2.5053500     0.1039360     0.9973890
  H       -3.3001310     2.5165380    -0.4095030
  H       -3.5654280     1.2070220     0.7630240
  H       -2.3198080     2.4333430     1.0748900
  H        3.5555180     2.2520740     0.2062470
  H        3.4947160     1.0534000    -1.1072300
  H        2.3164280     2.3771700    -1.0625470
  H       -0.2391740    -2.4808040    -1.2743640
units angstrom
no_reorient  #important for SAPT in psi4, default
symmetry c1  #important for SAPT in psi4, default
}

set PROPERTIES_ORIGIN ["COM"]
properties('MP2/aug-cc-pvtz', properties = ['dipole'])
--------------------------------------------------------------------------

    Molecular point group: c1
  Charge       = 0
  Multiplicity = 1
  Basis Set: AUG-CC-PVTZ
    Blend: AUG-CC-PVTZ
  Basis Set: (AUG-CC-PVTZ AUX)
    Blend: AUG-CC-PVTZ-JKFIT

    Orbital Energies [Eh]
    ---------------------

    Doubly Occupied:

       1A    -80.055349     2A    -20.589814     3A    -20.578111
       4A    -20.576080     5A    -20.501805     6A    -11.295059
       7A    -11.293283     8A    -11.227122     9A    -11.224788
      10A     -7.587004    11A     -5.487844    12A     -5.482690
      13A     -5.482206    14A     -1.462078    15A     -1.369200
      16A     -1.367393    17A     -1.364894    18A     -1.035133
      19A     -1.028304    20A     -0.864965    21A     -0.857627
      22A     -0.801171    23A     -0.725434    24A     -0.713357
      25A     -0.673894    26A     -0.658703    27A     -0.649035
      28A     -0.621452    29A     -0.601432    30A     -0.583504
      31A     -0.577099    32A     -0.561046    33A     -0.544988
      34A     -0.534621    35A     -0.527557    36A     -0.523214
      37A     -0.515303    38A     -0.501310    39A     -0.486692
      40A     -0.472328    41A     -0.467185

  @DF-RHF Final Energy:  -798.33944503972862

   => Energetics <=

    Nuclear Repulsion Energy =            638.6678348174874600
    One-Electron Energy =               -2369.0744090722746478
    Two-Electron Energy =                 932.0671292150586851
    Total Energy =                       -798.3394450397286164
  Basis Set: (AUG-CC-PVTZ AUX)
    Blend: AUG-CC-PVTZ-RI
    Molecular point group: c1

    Geometry (in Angstrom), charge = 0, multiplicity = 1:

       Center              X                  Y                   Z               Mass
    ------------   -----------------  -----------------  -----------------  -----------------
         P            0.003342900095    -0.879760764172     0.140513280672    30.973761998420
         O           -1.180167099905     0.107870235828     0.576733280672    15.994914619570
         O            1.119949900095     0.076944235828    -0.532656719328    15.994914619570
         O           -0.600062099905    -1.593484764172    -1.177198719328    15.994914619570
         O            0.410109300095    -1.654123064172     1.074708280672    15.994914619570
         C           -1.784180099905     0.980345235828    -0.417267719328    12.000000000000
         C            1.965891900095     0.810181235828     0.397973280672    12.000000000000
         C           -2.800224099905     1.826713235828     0.309916280672    12.000000000000
         C            2.894572900095     1.667078235828    -0.431931719328    12.000000000000
         H           -0.997950099905     1.587278235828    -0.879793719328     1.007825032230
         H           -2.251792099905     0.358161235828    -1.187466719328     1.007825032230
         H            1.330098900095     1.419620235828     1.049270280672     1.007825032230
         H            2.511950900095     0.091370235828     1.012548280672     1.007825032230
         H           -3.293530099905     2.503972235828    -0.394343719328     1.007825032230
         H           -3.558827099905     1.194456235828     0.778183280672     1.007825032230
         H           -2.313207099905     2.420777235828     1.090049280672     1.007825032230
         H            3.562118900095     2.239508235828     0.221406280672     1.007825032230
         H            3.501316900095     1.040834235828    -1.092070719328     1.007825032230
         H            2.323028900095     2.364604235828    -1.047387719328     1.007825032230
         H           -0.232573099905    -2.493369764172    -1.259204719328     1.007825032230

  Basis Set: AUG-CC-PVTZ
    Blend: AUG-CC-PVTZ
  Basis Set: (AUG-CC-PVTZ AUX)
    Blend: AUG-CC-PVTZ-JKFIT
	 Reference Energy          =    -798.3394450397286164 [Eh]
	 Singles Energy            =      -0.0000000000000000 [Eh]
	 Same-Spin Energy          =      -0.4849879826044493 [Eh]
	 Opposite-Spin Energy      =      -1.5270623631463607 [Eh]
	 Correlation Energy        =      -2.0120503457508101 [Eh]
	 Total Energy              =    -800.3514953854794385 [Eh]

	 ================> DF-SCS-MP2 Energies <==================
	-----------------------------------------------------------
	 SCS Same-Spin Scale       =       0.3333333333333333 [-]
	 SCS Opposite-Spin Scale   =       1.2000000000000000 [-]
	 SCS Same-Spin Energy      =      -0.1616626608681498 [Eh]
	 SCS Opposite-Spin Energy  =      -1.8324748357756326 [Eh]
	 SCS Correlation Energy    =      -1.9941374966437824 [Eh]
	 SCS Total Energy          =    -800.3335825363724325 [Eh]
	-----------------------------------------------------------

  Dipole Moment: [D]
     X:     0.2460      Y:     1.9495      Z:    -1.5050     Total:     2.4751

*** Psi4 exiting successfully. Buy a developer a beer!
