                               Psi4 1.3.2 release

  ==> Input File <==

--------------------------------------------------------------------------
#psi4
#
memory 32 gb

molecule  {
0 1
  P       -0.0032580    -0.8671950     0.1253540
  O       -1.1850894     0.0982132     0.6128584
  O        1.1133490     0.0895100    -0.5478160
  O       -0.6066630    -1.5809190    -1.1923580
  O        0.4323381    -1.7411452     1.2371958
  C       -1.7907810     0.9929110    -0.4324270
  C        1.9592910     0.8227470     0.3828140
  C       -2.8068250     1.8392790     0.2947570
  C        2.8879720     1.6796440    -0.4470910
  H       -1.0045510     1.5998440    -0.8949530
  H       -2.2583930     0.3707270    -1.2026260
  H        1.3234980     1.4321860     1.0341110
  H        2.5053500     0.1039360     0.9973890
  H       -3.3001310     2.5165380    -0.4095030
  H       -3.5654280     1.2070220     0.7630240
  H       -2.3198080     2.4333430     1.0748900
  H        3.5555180     2.2520740     0.2062470
  H        3.4947160     1.0534000    -1.1072300
  H        2.3164280     2.3771700    -1.0625470
  H       -0.2391740    -2.4808040    -1.2743640
units angstrom
no_reorient  #important for SAPT in psi4, default
symmetry c1  #important for SAPT in psi4, default
}

set PROPERTIES_ORIGIN ["COM"]
properties('MP2/aug-cc-pvtz', properties = ['dipole'])
--------------------------------------------------------------------------

    Molecular point group: c1
  Charge       = 0
  Multiplicity = 1
  Basis Set: AUG-CC-PVTZ
    Blend: AUG-CC-PVTZ
  Basis Set: (AUG-CC-PVTZ AUX)
    Blend: AUG-CC-PVTZ-JKFIT

    Orbital Energies [Eh]
    ---------------------

    Doubly Occupied:

       1A    -80.101094     2A    -20.606321     3A    -20.592299
       4A    -20.589806     5A    -20.505509     6A    -11.305659
       7A    -11.299523     8A    -11.231428     9A    -11.230888
      10A     -7.616928    11A     -5.515383    12A     -5.514882
      13A     -5.513973    14A     -1.443714    15A     -1.379824
      16A     -1.368459    17A     -1.286086    18A     -1.041596
      19A     -1.034857    20A     -0.871455    21A     -0.861850
      22A     -0.812717    23A     -0.729992    24A     -0.710124
      25A     -0.680627    26A     -0.656278    27A     -0.650445
      28A     -0.618679    29A     -0.599180    30A     -0.577321
      31A     -0.565605    32A     -0.560646    33A     -0.542363
      34A     -0.539355    35A     -0.533572    36A     -0.522193
      37A     -0.506058    38A     -0.484709    39A     -0.480335
      40A     -0.460325    41A     -0.456236

  @DF-RHF Final Energy:  -798.38470030346264

   => Energetics <=

    Nuclear Repulsion Energy =            627.2448689647118272
    One-Electron Energy =               -2346.0625507868353452
    Two-Electron Energy =                 920.4329815186609949
    Total Energy =                       -798.3847003034626368
  Basis Set: (AUG-CC-PVTZ AUX)
    Blend: AUG-CC-PVTZ-RI
    Molecular point group: c1

    Geometry (in Angstrom), charge = 0, multiplicity = 1:

       Center              X                  Y                   Z               Mass
    ------------   -----------------  -----------------  -----------------  -----------------
         P            0.000175026485    -0.867112373344     0.116741877254    30.973761998420
         O           -1.181656373515     0.098295826656     0.604246277254    15.994914619570
         O            1.116782026485     0.089592626656    -0.556428122746    15.994914619570
         O           -0.603229973515    -1.580836373344    -1.200970122746    15.994914619570
         O            0.435771126485    -1.741062573344     1.228583677254    15.994914619570
         C           -1.787347973515     0.992993626656    -0.441039122746    12.000000000000
         C            1.962724026485     0.822829626656     0.374201877254    12.000000000000
         C           -2.803391973515     1.839361626656     0.286144877254    12.000000000000
         C            2.891405026485     1.679726626656    -0.455703122746    12.000000000000
         H           -1.001117973515     1.599926626656    -0.903565122746     1.007825032230
         H           -2.254959973515     0.370809626656    -1.211238122746     1.007825032230
         H            1.326931026485     1.432268626656     1.025498877254     1.007825032230
         H            2.508783026485     0.104018626656     0.988776877254     1.007825032230
         H           -3.296697973515     2.516620626656    -0.418115122746     1.007825032230
         H           -3.561994973515     1.207104626656     0.754411877254     1.007825032230
         H           -2.316374973515     2.433425626656     1.066277877254     1.007825032230
         H            3.558951026485     2.252156626656     0.197634877254     1.007825032230
         H            3.498149026485     1.053482626656    -1.115842122746     1.007825032230
         H            2.319861026485     2.377252626656    -1.071159122746     1.007825032230
         H           -0.235740973515    -2.480721373344    -1.282976122746     1.007825032230

  Basis Set: AUG-CC-PVTZ
    Blend: AUG-CC-PVTZ
  Basis Set: (AUG-CC-PVTZ AUX)
    Blend: AUG-CC-PVTZ-JKFIT
	 Reference Energy          =    -798.3847003034626368 [Eh]
	 Singles Energy            =      -0.0000000000000000 [Eh]
	 Same-Spin Energy          =      -0.4899939616122025 [Eh]
	 Opposite-Spin Energy      =      -1.5392187308492313 [Eh]
	 Correlation Energy        =      -2.0292126924614338 [Eh]
	 Total Energy              =    -800.4139129959240790 [Eh]

	 ================> DF-SCS-MP2 Energies <==================
	-----------------------------------------------------------
	 SCS Same-Spin Scale       =       0.3333333333333333 [-]
	 SCS Opposite-Spin Scale   =       1.2000000000000000 [-]
	 SCS Same-Spin Energy      =      -0.1633313205374008 [Eh]
	 SCS Opposite-Spin Energy  =      -1.8470624770190776 [Eh]
	 SCS Correlation Energy    =      -2.0103937975564783 [Eh]
	 SCS Total Energy          =    -800.3950941010191400 [Eh]
	-----------------------------------------------------------

  Dipole Moment: [D]
     X:    -0.0450      Y:     2.7437      Z:    -2.4503     Total:     3.6788

*** Psi4 exiting successfully. Buy a developer a beer!
