                               Psi4 1.3.2 release

  ==> Input File <==

--------------------------------------------------------------------------
#psi4
#
memory 32 gb

molecule  {
0 1
  P       -0.0032580    -0.8671950     0.1253540
  O       -1.1391834     0.1454656     0.6259444
  O        1.1133490     0.0895100    -0.5478160
  O       -0.5347543    -1.6249913    -1.1987007
  O        0.4670770    -1.7625730     1.2055430
  C       -1.7907810     0.9929110    -0.4324270
  C        1.9592910     0.8227470     0.3828140
  C       -2.8068250     1.8392790     0.2947570
  C        2.8879720     1.6796440    -0.4470910
  H       -1.0045510     1.5998440    -0.8949530
  H       -2.2583930     0.3707270    -1.2026260
  H        1.3234980     1.4321860     1.0341110
  H        2.5053500     0.1039360     0.9973890
  H       -3.3001310     2.5165380    -0.4095030
  H       -3.5654280     1.2070220     0.7630240
  H       -2.3198080     2.4333430     1.0748900
  H        3.5555180     2.2520740     0.2062470
  H        3.4947160     1.0534000    -1.1072300
  H        2.3164280     2.3771700    -1.0625470
  H       -0.2391740    -2.4808040    -1.2743640
units angstrom
no_reorient  #important for SAPT in psi4, default
symmetry c1  #important for SAPT in psi4, default
}

set PROPERTIES_ORIGIN ["COM"]
properties('MP2/aug-cc-pvtz', properties = ['dipole'])
--------------------------------------------------------------------------

    Molecular point group: c1
  Charge       = 0
  Multiplicity = 1
  Basis Set: AUG-CC-PVTZ
    Blend: AUG-CC-PVTZ
  Basis Set: (AUG-CC-PVTZ AUX)
    Blend: AUG-CC-PVTZ-JKFIT

    Orbital Energies [Eh]
    ---------------------

    Doubly Occupied:

       1A    -80.102956     2A    -20.598934     3A    -20.597294
       4A    -20.586677     5A    -20.503158     6A    -11.310212
       7A    -11.296721     8A    -11.234400     9A    -11.228927
      10A     -7.618472    11A     -5.516902    12A     -5.516469
      13A     -5.515553    14A     -1.448110    15A     -1.388679
      16A     -1.370413    17A     -1.284971    18A     -1.044277
      19A     -1.033768    20A     -0.874114    21A     -0.865151
      22A     -0.823191    23A     -0.736275    24A     -0.713237
      25A     -0.683045    26A     -0.656941    27A     -0.649571
      28A     -0.615955    29A     -0.605131    30A     -0.577584
      31A     -0.565819    32A     -0.560621    33A     -0.543848
      34A     -0.539251    35A     -0.533436    36A     -0.524322
      37A     -0.507871    38A     -0.487257    39A     -0.477385
      40A     -0.458746    41A     -0.454192

  @DF-RHF Final Energy:  -798.38361488470571

   => Energetics <=

    Nuclear Repulsion Energy =            627.4049001554416236
    One-Electron Energy =               -2346.2773629346247617
    Two-Electron Energy =                 920.4888478944773169
    Total Energy =                       -798.3836148847057075
  Basis Set: (AUG-CC-PVTZ AUX)
    Blend: AUG-CC-PVTZ-RI
    Molecular point group: c1

    Geometry (in Angstrom), charge = 0, multiplicity = 1:

       Center              X                  Y                   Z               Mass
    ------------   -----------------  -----------------  -----------------  -----------------
         P           -0.015665597984    -0.865217596930     0.119328391340    30.973761998420
         O           -1.151590997984     0.147443003070     0.619918791340    15.994914619570
         O            1.100941402016     0.091487403070    -0.553841608660    15.994914619570
         O           -0.547161897984    -1.623013896930    -1.204726308660    15.994914619570
         O            0.454669402016    -1.760595596930     1.199517391340    15.994914619570
         C           -1.803188597984     0.994888403070    -0.438452608660    12.000000000000
         C            1.946883402016     0.824724403070     0.376788391340    12.000000000000
         C           -2.819232597984     1.841256403070     0.288731391340    12.000000000000
         C            2.875564402016     1.681621403070    -0.453116608660    12.000000000000
         H           -1.016958597984     1.601821403070    -0.900978608660     1.007825032230
         H           -2.270800597984     0.372704403070    -1.208651608660     1.007825032230
         H            1.311090402016     1.434163403070     1.028085391340     1.007825032230
         H            2.492942402016     0.105913403070     0.991363391340     1.007825032230
         H           -3.312538597984     2.518515403070    -0.415528608660     1.007825032230
         H           -3.577835597984     1.208999403070     0.756998391340     1.007825032230
         H           -2.332215597984     2.435320403070     1.068864391340     1.007825032230
         H            3.543110402016     2.254051403070     0.200221391340     1.007825032230
         H            3.482308402016     1.055377403070    -1.113255608660     1.007825032230
         H            2.304020402016     2.379147403070    -1.068572608660     1.007825032230
         H           -0.251581597984    -2.478826596930    -1.280389608660     1.007825032230

  Basis Set: AUG-CC-PVTZ
    Blend: AUG-CC-PVTZ
  Basis Set: (AUG-CC-PVTZ AUX)
    Blend: AUG-CC-PVTZ-JKFIT
	 Reference Energy          =    -798.3836148847057075 [Eh]
	 Singles Energy            =      -0.0000000000000000 [Eh]
	 Same-Spin Energy          =      -0.4889693537158707 [Eh]
	 Opposite-Spin Energy      =      -1.5369648682396586 [Eh]
	 Correlation Energy        =      -2.0259342219555294 [Eh]
	 Total Energy              =    -800.4095491066611885 [Eh]

	 ================> DF-SCS-MP2 Energies <==================
	-----------------------------------------------------------
	 SCS Same-Spin Scale       =       0.3333333333333333 [-]
	 SCS Opposite-Spin Scale   =       1.2000000000000000 [-]
	 SCS Same-Spin Energy      =      -0.1629897845719569 [Eh]
	 SCS Opposite-Spin Energy  =      -1.8443578418875903 [Eh]
	 SCS Correlation Energy    =      -2.0073476264595471 [Eh]
	 SCS Total Energy          =    -800.3909625111652986 [Eh]
	-----------------------------------------------------------

  Dipole Moment: [D]
     X:    -0.4963      Y:     2.8606      Z:    -2.3558     Total:     3.7389

*** Psi4 exiting successfully. Buy a developer a beer!
