                               Psi4 1.3.2 release

  ==> Input File <==

--------------------------------------------------------------------------
#psi4
#
memory 32 gb

molecule  {
0 1
  P       -0.0032580    -0.8671950     0.1253540
  O       -1.1941302     0.1256179     0.5705150
  O        1.1133490     0.0895100    -0.5478160
  O       -0.6066630    -1.5809190    -1.1923580
  O        0.4670770    -1.7625730     1.2055430
  C       -1.7907810     0.9929110    -0.4324270
  C        1.9592910     0.8227470     0.3828140
  C       -2.8037300     1.8332090     0.3060271
  C        2.8879720     1.6796440    -0.4470910
  H       -1.0045510     1.5998440    -0.8949530
  H       -2.2583930     0.3707270    -1.2026260
  H        1.3234980     1.4321860     1.0341110
  H        2.5053500     0.1039360     0.9973890
  H       -3.3001310     2.5165380    -0.4095030
  H       -3.5654280     1.2070220     0.7630240
  H       -2.3198080     2.4333430     1.0748900
  H        3.5555180     2.2520740     0.2062470
  H        3.4947160     1.0534000    -1.1072300
  H        2.3164280     2.3771700    -1.0625470
  H       -0.2391740    -2.4808040    -1.2743640
units angstrom
no_reorient  #important for SAPT in psi4, default
symmetry c1  #important for SAPT in psi4, default
}

set PROPERTIES_ORIGIN ["COM"]
properties('MP2/aug-cc-pvtz', properties = ['dipole'])
--------------------------------------------------------------------------

    Molecular point group: c1
  Charge       = 0
  Multiplicity = 1
  Basis Set: AUG-CC-PVTZ
    Blend: AUG-CC-PVTZ
  Basis Set: (AUG-CC-PVTZ AUX)
    Blend: AUG-CC-PVTZ-JKFIT

    Orbital Energies [Eh]
    ---------------------

    Doubly Occupied:

       1A    -80.105259     2A    -20.605647     3A    -20.591316
       4A    -20.591030     5A    -20.511461     6A    -11.300455
       7A    -11.299595     8A    -11.230728     9A    -11.229225
      10A     -7.620702    11A     -5.519220    12A     -5.518701
      13A     -5.517707    14A     -1.446076    15A     -1.379703
      16A     -1.376303    17A     -1.291672    18A     -1.041006
      19A     -1.033263    20A     -0.872715    21A     -0.863121
      22A     -0.813623    23A     -0.730903    24A     -0.714396
      25A     -0.682208    26A     -0.658552    27A     -0.651835
      28A     -0.619128    29A     -0.604372    30A     -0.577091
      31A     -0.564731    32A     -0.561863    33A     -0.543610
      34A     -0.538515    35A     -0.534931    36A     -0.519724
      37A     -0.504466    38A     -0.480801    39A     -0.479448
      40A     -0.465445    41A     -0.460703

  @DF-RHF Final Energy:  -798.38756667403322

   => Energetics <=

    Nuclear Repulsion Energy =            627.7734382658861705
    One-Electron Energy =               -2347.0195140802247806
    Two-Electron Energy =                 920.8585091403053866
    Total Energy =                       -798.3875666740332235
  Basis Set: (AUG-CC-PVTZ AUX)
    Blend: AUG-CC-PVTZ-RI
    Molecular point group: c1

    Geometry (in Angstrom), charge = 0, multiplicity = 1:

       Center              X                  Y                   Z               Mass
    ------------   -----------------  -----------------  -----------------  -----------------
         P           -0.002734480021    -0.867260127691     0.123547415636    30.973761998420
         O           -1.193606680021     0.125552772309     0.568708415636    15.994914619570
         O            1.113872519979     0.089444872309    -0.549622584364    15.994914619570
         O           -0.606139480021    -1.580984127691    -1.194164584364    15.994914619570
         O            0.467600519979    -1.762638127691     1.203736415636    15.994914619570
         C           -1.790257480021     0.992845872309    -0.434233584364    12.000000000000
         C            1.959814519979     0.822681872309     0.381007415636    12.000000000000
         C           -2.803206480021     1.833143872309     0.304220515636    12.000000000000
         C            2.888495519979     1.679578872309    -0.448897584364    12.000000000000
         H           -1.004027480021     1.599778872309    -0.896759584364     1.007825032230
         H           -2.257869480021     0.370661872309    -1.204432584364     1.007825032230
         H            1.324021519979     1.432120872309     1.032304415636     1.007825032230
         H            2.505873519979     0.103870872309     0.995582415636     1.007825032230
         H           -3.299607480021     2.516472872309    -0.411309584364     1.007825032230
         H           -3.564904480021     1.206956872309     0.761217415636     1.007825032230
         H           -2.319284480021     2.433277872309     1.073083415636     1.007825032230
         H            3.556041519979     2.252008872309     0.204440415636     1.007825032230
         H            3.495239519979     1.053334872309    -1.109036584364     1.007825032230
         H            2.316951519979     2.377104872309    -1.064353584364     1.007825032230
         H           -0.238650480021    -2.480869127691    -1.276170584364     1.007825032230

  Basis Set: AUG-CC-PVTZ
    Blend: AUG-CC-PVTZ
  Basis Set: (AUG-CC-PVTZ AUX)
    Blend: AUG-CC-PVTZ-JKFIT
	 Reference Energy          =    -798.3875666740332235 [Eh]
	 Singles Energy            =      -0.0000000000000000 [Eh]
	 Same-Spin Energy          =      -0.4898812720907792 [Eh]
	 Opposite-Spin Energy      =      -1.5384283009107285 [Eh]
	 Correlation Energy        =      -2.0283095730015077 [Eh]
	 Total Energy              =    -800.4158762470347028 [Eh]

	 ================> DF-SCS-MP2 Energies <==================
	-----------------------------------------------------------
	 SCS Same-Spin Scale       =       0.3333333333333333 [-]
	 SCS Opposite-Spin Scale   =       1.2000000000000000 [-]
	 SCS Same-Spin Energy      =      -0.1632937573635931 [Eh]
	 SCS Opposite-Spin Energy  =      -1.8461139610928741 [Eh]
	 SCS Correlation Energy    =      -2.0094077184564672 [Eh]
	 SCS Total Energy          =    -800.3969743924897102 [Eh]
	-----------------------------------------------------------

  Dipole Moment: [D]
     X:    -0.0067      Y:     2.6101      Z:    -2.2267     Total:     3.4309

*** Psi4 exiting successfully. Buy a developer a beer!
