                               Psi4 1.3.2 release

  ==> Input File <==

--------------------------------------------------------------------------
#psi4
#
memory 32 gb

molecule  {
0 1
  P       -0.0032580    -0.8671950     0.1253540
  O       -1.1867680     0.1204360     0.5615740
  O        1.0443022     0.0303510    -0.5061897
  O       -0.6066630    -1.5809190    -1.1923580
  O        0.4670770    -1.7625730     1.2055430
  C       -1.7907810     0.9929110    -0.4324270
  C        1.9592910     0.8227470     0.3828140
  C       -2.8068250     1.8392790     0.2947570
  C        2.8879720     1.6796440    -0.4470910
  H       -1.0045510     1.5998440    -0.8949530
  H       -2.2583930     0.3707270    -1.2026260
  H        1.3234980     1.4321860     1.0341110
  H        2.5053500     0.1039360     0.9973890
  H       -3.3001310     2.5165380    -0.4095030
  H       -3.5654280     1.2070220     0.7630240
  H       -2.3198080     2.4333430     1.0748900
  H        3.5555180     2.2520740     0.2062470
  H        3.4947160     1.0534000    -1.1072300
  H        2.3164280     2.3771700    -1.0625470
  H       -0.2391740    -2.4808040    -1.2743640
units angstrom
no_reorient  #important for SAPT in psi4, default
symmetry c1  #important for SAPT in psi4, default
}

set PROPERTIES_ORIGIN ["COM"]
properties('MP2/aug-cc-pvtz', properties = ['dipole'])
--------------------------------------------------------------------------

    Molecular point group: c1
  Charge       = 0
  Multiplicity = 1
  Basis Set: AUG-CC-PVTZ
    Blend: AUG-CC-PVTZ
  Basis Set: (AUG-CC-PVTZ AUX)
    Blend: AUG-CC-PVTZ-JKFIT

    Orbital Energies [Eh]
    ---------------------

    Doubly Occupied:

       1A    -80.087832     2A    -20.595101     3A    -20.589728
       4A    -20.581845     5A    -20.499898     6A    -11.313863
       7A    -11.297725     8A    -11.240188     9A    -11.227449
      10A     -7.605974    11A     -5.504455    12A     -5.504253
      13A     -5.502834    14A     -1.455328    15A     -1.380173
      16A     -1.371392    17A     -1.281705    18A     -1.051587
      19A     -1.033982    20A     -0.882676    21A     -0.861832
      22A     -0.806939    23A     -0.731707    24A     -0.716159
      25A     -0.682968    26A     -0.656496    27A     -0.646608
      28A     -0.625476    29A     -0.601476    30A     -0.577070
      31A     -0.569310    32A     -0.561781    33A     -0.545736
      34A     -0.541031    35A     -0.532909    36A     -0.521245
      37A     -0.506040    38A     -0.488374    39A     -0.475635
      40A     -0.457063    41A     -0.453164

  @DF-RHF Final Energy:  -798.38686453383173

   => Energetics <=

    Nuclear Repulsion Energy =            631.1809226336761185
    One-Electron Energy =               -2354.0015582830169478
    Two-Electron Energy =                 924.4337711155091029
    Total Energy =                       -798.3868645338317265
  Basis Set: (AUG-CC-PVTZ AUX)
    Blend: AUG-CC-PVTZ-RI
    Molecular point group: c1

    Geometry (in Angstrom), charge = 0, multiplicity = 1:

       Center              X                  Y                   Z               Mass
    ------------   -----------------  -----------------  -----------------  -----------------
         P            0.003911736943    -0.861052062695     0.121031454513    30.973761998420
         O           -1.179598263057     0.126578937305     0.557251454513    15.994914619570
         O            1.051471936943     0.036493937305    -0.510512245487    15.994914619570
         O           -0.599493263057    -1.574776062695    -1.196680545487    15.994914619570
         O            0.474246736943    -1.756430062695     1.201220454513    15.994914619570
         C           -1.783611263057     0.999053937305    -0.436749545487    12.000000000000
         C            1.966460736943     0.828889937305     0.378491454513    12.000000000000
         C           -2.799655263057     1.845421937305     0.290434454513    12.000000000000
         C            2.895141736943     1.685786937305    -0.451413545487    12.000000000000
         H           -0.997381263057     1.605986937305    -0.899275545487     1.007825032230
         H           -2.251223263057     0.376869937305    -1.206948545487     1.007825032230
         H            1.330667736943     1.438328937305     1.029788454513     1.007825032230
         H            2.512519736943     0.110078937305     0.993066454513     1.007825032230
         H           -3.292961263057     2.522680937305    -0.413825545487     1.007825032230
         H           -3.558258263057     1.213164937305     0.758701454513     1.007825032230
         H           -2.312638263057     2.439485937305     1.070567454513     1.007825032230
         H            3.562687736943     2.258216937305     0.201924454513     1.007825032230
         H            3.501885736943     1.059542937305    -1.111552545487     1.007825032230
         H            2.323597736943     2.383312937305    -1.066869545487     1.007825032230
         H           -0.232004263057    -2.474661062695    -1.278686545487     1.007825032230

  Basis Set: AUG-CC-PVTZ
    Blend: AUG-CC-PVTZ
  Basis Set: (AUG-CC-PVTZ AUX)
    Blend: AUG-CC-PVTZ-JKFIT
	 Reference Energy          =    -798.3868645338317265 [Eh]
	 Singles Energy            =      -0.0000000000000000 [Eh]
	 Same-Spin Energy          =      -0.4883820419587308 [Eh]
	 Opposite-Spin Energy      =      -1.5347835384511981 [Eh]
	 Correlation Energy        =      -2.0231655804099287 [Eh]
	 Total Energy              =    -800.4100301142416356 [Eh]

	 ================> DF-SCS-MP2 Energies <==================
	-----------------------------------------------------------
	 SCS Same-Spin Scale       =       0.3333333333333333 [-]
	 SCS Opposite-Spin Scale   =       1.2000000000000000 [-]
	 SCS Same-Spin Energy      =      -0.1627940139862436 [Eh]
	 SCS Opposite-Spin Energy  =      -1.8417402461414376 [Eh]
	 SCS Correlation Energy    =      -2.0045342601276812 [Eh]
	 SCS Total Energy          =    -800.3913987939594108 [Eh]
	-----------------------------------------------------------

  Dipole Moment: [D]
     X:     0.6121      Y:     3.1411      Z:    -2.3144     Total:     3.9494

*** Psi4 exiting successfully. Buy a developer a beer!
