                               Psi4 1.3.2 release

  ==> Input File <==

--------------------------------------------------------------------------
#psi4
#
memory 32 gb

molecule  {
0 1
  P       -0.0032580    -0.8671950     0.1253540
  O       -1.1414703     0.1402793     0.5501701
  O        1.1133490     0.0895100    -0.5478160
  O       -0.6066630    -1.5809190    -1.1923580
  O        0.4670770    -1.7625730     1.2055430
  C       -1.7907810     0.9929110    -0.4324270
  C        1.9592910     0.8227470     0.3828140
  C       -2.8068250     1.8392790     0.2947570
  C        2.8879720     1.6796440    -0.4470910
  H       -0.9788849     1.5824574    -0.8725581
  H       -2.2583930     0.3707270    -1.2026260
  H        1.3234980     1.4321860     1.0341110
  H        2.5053500     0.1039360     0.9973890
  H       -3.3001310     2.5165380    -0.4095030
  H       -3.5654280     1.2070220     0.7630240
  H       -2.3198080     2.4333430     1.0748900
  H        3.5555180     2.2520740     0.2062470
  H        3.4947160     1.0534000    -1.1072300
  H        2.3164280     2.3771700    -1.0625470
  H       -0.2391740    -2.4808040    -1.2743640
units angstrom
no_reorient  #important for SAPT in psi4, default
symmetry c1  #important for SAPT in psi4, default
}

set PROPERTIES_ORIGIN ["COM"]
properties('MP2/aug-cc-pvtz', properties = ['dipole'])
--------------------------------------------------------------------------

    Molecular point group: c1
  Charge       = 0
  Multiplicity = 1
  Basis Set: AUG-CC-PVTZ
    Blend: AUG-CC-PVTZ
  Basis Set: (AUG-CC-PVTZ AUX)
    Blend: AUG-CC-PVTZ-JKFIT

    Orbital Energies [Eh]
    ---------------------

    Doubly Occupied:

       1A    -80.101132     2A    -20.604426     3A    -20.589854
       4A    -20.586252     5A    -20.509743     6A    -11.303556
       7A    -11.297368     8A    -11.232053     9A    -11.229174
      10A     -7.617197    11A     -5.515783    12A     -5.515283
      13A     -5.514147    14A     -1.449516    15A     -1.381735
      16A     -1.375239    17A     -1.290171    18A     -1.043464
      19A     -1.033077    20A     -0.874681    21A     -0.865144
      22A     -0.811660    23A     -0.731248    24A     -0.715254
      25A     -0.683913    26A     -0.657949    27A     -0.651017
      28A     -0.617551    29A     -0.607643    30A     -0.576651
      31A     -0.565319    32A     -0.562544    33A     -0.546516
      34A     -0.538643    35A     -0.533756    36A     -0.520140
      37A     -0.503604    38A     -0.480934    39A     -0.478333
      40A     -0.464626    41A     -0.458510

  @DF-RHF Final Energy:  -798.38936970907366

   => Energetics <=

    Nuclear Repulsion Energy =            629.3026021995671044
    One-Electron Energy =               -2350.1143356289453550
    Two-Electron Energy =                 922.4223637203047019
    Total Energy =                       -798.3893697090736623
  Basis Set: (AUG-CC-PVTZ AUX)
    Blend: AUG-CC-PVTZ-RI
    Molecular point group: c1

    Geometry (in Angstrom), charge = 0, multiplicity = 1:

       Center              X                  Y                   Z               Mass
    ------------   -----------------  -----------------  -----------------  -----------------
         P           -0.008129314236    -0.869141626906     0.126391400519    30.973761998420
         O           -1.146341614236     0.138332673094     0.551207500519    15.994914619570
         O            1.108477685764     0.087563373094    -0.546778599481    15.994914619570
         O           -0.611534314236    -1.582865626906    -1.191320599481    15.994914619570
         O            0.462205685764    -1.764519626906     1.206580400519    15.994914619570
         C           -1.795652314236     0.990964373094    -0.431389599481    12.000000000000
         C            1.954419685764     0.820800373094     0.383851400519    12.000000000000
         C           -2.811696314236     1.837332373094     0.295794400519    12.000000000000
         C            2.883100685764     1.677697373094    -0.446053599481    12.000000000000
         H           -0.983756214236     1.580510773094    -0.871520699481     1.007825032230
         H           -2.263264314236     0.368780373094    -1.201588599481     1.007825032230
         H            1.318626685764     1.430239373094     1.035148400519     1.007825032230
         H            2.500478685764     0.101989373094     0.998426400519     1.007825032230
         H           -3.305002314236     2.514591373094    -0.408465599481     1.007825032230
         H           -3.570299314236     1.205075373094     0.764061400519     1.007825032230
         H           -2.324679314236     2.431396373094     1.075927400519     1.007825032230
         H            3.550646685764     2.250127373094     0.207284400519     1.007825032230
         H            3.489844685764     1.051453373094    -1.106192599481     1.007825032230
         H            2.311556685764     2.375223373094    -1.061509599481     1.007825032230
         H           -0.244045314236    -2.482750626906    -1.273326599481     1.007825032230

  Basis Set: AUG-CC-PVTZ
    Blend: AUG-CC-PVTZ
  Basis Set: (AUG-CC-PVTZ AUX)
    Blend: AUG-CC-PVTZ-JKFIT
	 Reference Energy          =    -798.3893697090736623 [Eh]
	 Singles Energy            =      -0.0000000000000000 [Eh]
	 Same-Spin Energy          =      -0.4894171354686249 [Eh]
	 Opposite-Spin Energy      =      -1.5370742209230408 [Eh]
	 Correlation Energy        =      -2.0264913563916656 [Eh]
	 Total Energy              =    -800.4158610654653785 [Eh]

	 ================> DF-SCS-MP2 Energies <==================
	-----------------------------------------------------------
	 SCS Same-Spin Scale       =       0.3333333333333333 [-]
	 SCS Opposite-Spin Scale   =       1.2000000000000000 [-]
	 SCS Same-Spin Energy      =      -0.1631390451562083 [Eh]
	 SCS Opposite-Spin Energy  =      -1.8444890651076489 [Eh]
	 SCS Correlation Energy    =      -2.0076281102638571 [Eh]
	 SCS Total Energy          =    -800.3969978193375709 [Eh]
	-----------------------------------------------------------

  Dipole Moment: [D]
     X:    -0.2766      Y:     2.6560      Z:    -2.1852     Total:     3.4505

*** Psi4 exiting successfully. Buy a developer a beer!
