                               Psi4 1.3.2 release

  ==> Input File <==

--------------------------------------------------------------------------
#psi4
#
memory 32 gb

molecule  {
0 1
  P       -0.0076316    -0.8710330     0.1124970
  O       -1.1867680     0.1204360     0.5615740
  O        1.1133490     0.0895100    -0.5478160
  O       -0.6066630    -1.5809190    -1.1923580
  O        0.4670770    -1.7625730     1.2055430
  C       -1.7907810     0.9929110    -0.4324270
  C        1.9654435     0.8279827     0.3730095
  C       -2.8068250     1.8392790     0.2947570
  C        2.8879720     1.6796440    -0.4470910
  H       -1.0045510     1.5998440    -0.8949530
  H       -2.2583930     0.3707270    -1.2026260
  H        1.3234980     1.4321860     1.0341110
  H        2.5053500     0.1039360     0.9973890
  H       -3.3001310     2.5165380    -0.4095030
  H       -3.5654280     1.2070220     0.7630240
  H       -2.3198080     2.4333430     1.0748900
  H        3.5555180     2.2520740     0.2062470
  H        3.4947160     1.0534000    -1.1072300
  H        2.3164280     2.3771700    -1.0625470
  H       -0.2391740    -2.4808040    -1.2743640
units angstrom
no_reorient  #important for SAPT in psi4, default
symmetry c1  #important for SAPT in psi4, default
}

set PROPERTIES_ORIGIN ["COM"]
properties('MP2/aug-cc-pvtz', properties = ['dipole'])
--------------------------------------------------------------------------

    Molecular point group: c1
  Charge       = 0
  Multiplicity = 1
  Basis Set: AUG-CC-PVTZ
    Blend: AUG-CC-PVTZ
  Basis Set: (AUG-CC-PVTZ AUX)
    Blend: AUG-CC-PVTZ-JKFIT

    Orbital Energies [Eh]
    ---------------------

    Doubly Occupied:

       1A    -80.104524     2A    -20.608583     3A    -20.590632
       4A    -20.589343     5A    -20.509125     6A    -11.301016
       7A    -11.299316     8A    -11.229886     9A    -11.229783
      10A     -7.619990    11A     -5.518588    12A     -5.518032
      13A     -5.516927    14A     -1.449008    15A     -1.383418
      16A     -1.376084    17A     -1.286034    18A     -1.042553
      19A     -1.034688    20A     -0.873160    21A     -0.863265
      22A     -0.814663    23A     -0.732933    24A     -0.715022
      25A     -0.681946    26A     -0.659589    27A     -0.652544
      28A     -0.619032    29A     -0.605316    30A     -0.579460
      31A     -0.565581    32A     -0.562132    33A     -0.544120
      34A     -0.540075    35A     -0.534614    36A     -0.519614
      37A     -0.503855    38A     -0.479774    39A     -0.477104
      40A     -0.462181    41A     -0.457133

  @DF-RHF Final Energy:  -798.38827504682467

   => Energetics <=

    Nuclear Repulsion Energy =            628.0855058163244848
    One-Electron Energy =               -2347.6462761869629503
    Two-Electron Energy =                 921.1724953238137914
    Total Energy =                       -798.3882750468246741
  Basis Set: (AUG-CC-PVTZ AUX)
    Blend: AUG-CC-PVTZ-RI
    Molecular point group: c1

    Geometry (in Angstrom), charge = 0, multiplicity = 1:

       Center              X                  Y                   Z               Mass
    ------------   -----------------  -----------------  -----------------  -----------------
         P           -0.007231301114    -0.870669062754     0.115845816758    30.973761998420
         O           -1.186367701114     0.120799937246     0.564922816758    15.994914619570
         O            1.113749298886     0.089873937246    -0.544467183242    15.994914619570
         O           -0.606262701114    -1.580555062754    -1.189009183242    15.994914619570
         O            0.467477298886    -1.762209062754     1.208891816758    15.994914619570
         C           -1.790380701114     0.993274937246    -0.429078183242    12.000000000000
         C            1.965843798886     0.828346637246     0.376358316758    12.000000000000
         C           -2.806424701114     1.839642937246     0.298105816758    12.000000000000
         C            2.888372298886     1.680007937246    -0.443742183242    12.000000000000
         H           -1.004150701114     1.600207937246    -0.891604183242     1.007825032230
         H           -2.257992701114     0.371090937246    -1.199277183242     1.007825032230
         H            1.323898298886     1.432549937246     1.037459816758     1.007825032230
         H            2.505750298886     0.104299937246     1.000737816758     1.007825032230
         H           -3.299730701114     2.516901937246    -0.406154183242     1.007825032230
         H           -3.565027701114     1.207385937246     0.766372816758     1.007825032230
         H           -2.319407701114     2.433706937246     1.078238816758     1.007825032230
         H            3.555918298886     2.252437937246     0.209595816758     1.007825032230
         H            3.495116298886     1.053763937246    -1.103881183242     1.007825032230
         H            2.316828298886     2.377533937246    -1.059198183242     1.007825032230
         H           -0.238773701114    -2.480440062754    -1.271015183242     1.007825032230

  Basis Set: AUG-CC-PVTZ
    Blend: AUG-CC-PVTZ
  Basis Set: (AUG-CC-PVTZ AUX)
    Blend: AUG-CC-PVTZ-JKFIT
	 Reference Energy          =    -798.3882750468246741 [Eh]
	 Singles Energy            =      -0.0000000000000000 [Eh]
	 Same-Spin Energy          =      -0.4898348293137744 [Eh]
	 Opposite-Spin Energy      =      -1.5380190970644336 [Eh]
	 Correlation Energy        =      -2.0278539263782078 [Eh]
	 Total Energy              =    -800.4161289732028308 [Eh]

	 ================> DF-SCS-MP2 Energies <==================
	-----------------------------------------------------------
	 SCS Same-Spin Scale       =       0.3333333333333333 [-]
	 SCS Opposite-Spin Scale   =       1.2000000000000000 [-]
	 SCS Same-Spin Energy      =      -0.1632782764379248 [Eh]
	 SCS Opposite-Spin Energy  =      -1.8456229164773204 [Eh]
	 SCS Correlation Energy    =      -2.0089011929152449 [Eh]
	 SCS Total Energy          =    -800.3971762397399061 [Eh]
	-----------------------------------------------------------

  Dipole Moment: [D]
     X:    -0.0904      Y:     2.6110      Z:    -2.3430     Total:     3.5093

*** Psi4 exiting successfully. Buy a developer a beer!
