                               Psi4 1.4a3.dev225

  ==> Input File <==

--------------------------------------------------------------------------
#psi4
#
memory 32 gb

molecule  {
0 1
  P       -0.0193980    -0.9573280    -0.1096150
  O        1.2162340    -0.0269160    -0.5415020
  O       -1.1156210     0.0613730     0.5053800
  O        0.5096946    -1.6512719     1.2295357
  O       -0.4960840    -1.8598830    -1.1802340
  C        1.8380650     0.8393470     0.4463000
  C       -1.9139900     0.7949960    -0.4653280
  C        2.8342980     1.7043970    -0.2898420
  C       -2.8451070     1.6924310     0.3153960
  H        1.0624120     1.4376840     0.9337170
  H        2.3223620     0.2121780     1.1993520
  H       -1.2444800     1.3745780    -1.1102950
  H       -2.4582310     0.0769500    -1.0841060
  H        3.3419030     2.3695990     0.4147870
  H        3.5818500     1.0824000    -0.7858930
  H        2.3288000     2.3113610    -1.0437700
  H       -3.4753290     2.2644580    -0.3716610
  H       -3.4879190     1.0956960     0.9656320
  H       -2.2756200     2.3909680     0.9321420
  H        0.1488640    -2.5599310     1.3156750
units angstrom
no_reorient  #important for SAPT in psi4, default
symmetry c1  #important for SAPT in psi4, default
}

set PROPERTIES_ORIGIN ["COM"]
properties('MP2/aug-cc-pvtz', properties = ['dipole'])
--------------------------------------------------------------------------

    Molecular point group: c1
  Charge       = 0
  Multiplicity = 1
  Basis Set: AUG-CC-PVTZ
    Blend: AUG-CC-PVTZ
  Basis Set: (AUG-CC-PVTZ AUX)
    Blend: AUG-CC-PVTZ-JKFIT

    Orbital Energies [Eh]
    ---------------------

    Doubly Occupied:

       1A    -80.102607     2A    -20.606232     3A    -20.589816
       4A    -20.589209     5A    -20.509766     6A    -11.300281
       7A    -11.298143     8A    -11.229313     9A    -11.229281
      10A     -7.618468    11A     -5.517049    12A     -5.516452
      13A     -5.515483    14A     -1.448234    15A     -1.380872
      16A     -1.375626    17A     -1.290530    18A     -1.040979
      19A     -1.033184    20A     -0.873198    21A     -0.863732
      22A     -0.814400    23A     -0.730587    24A     -0.715334
      25A     -0.682499    26A     -0.658010    27A     -0.652735
      28A     -0.617628    29A     -0.604850    30A     -0.577982
      31A     -0.565593    32A     -0.563308    33A     -0.543961
      34A     -0.539161    35A     -0.535013    36A     -0.517978
      37A     -0.502731    38A     -0.480101    39A     -0.478060
      40A     -0.464645    41A     -0.459539

  @DF-RHF Final Energy:  -798.38938123174944

   => Energetics <=

    Nuclear Repulsion Energy =            628.4300053703616413
    One-Electron Energy =               -2348.3736331156410415
    Two-Electron Energy =                 921.5542465135299608
    Total Energy =                       -798.3893812317494394
  Basis Set: (AUG-CC-PVTZ AUX)
    Blend: AUG-CC-PVTZ-RI
    Molecular point group: c1

    Geometry (in Angstrom), charge = 0, multiplicity = 1:

       Center              X                  Y                   Z               Mass
    ------------   -----------------  -----------------  -----------------  -----------------
         P           -0.019584677956    -0.874640086103    -0.098385392759    30.973761998420
         O            1.216047322044     0.055771913897    -0.530272392759    15.994914619570
         O           -1.115807677956     0.144060913897     0.516609607241    15.994914619570
         O            0.509507922044    -1.568583986103     1.240765307241    15.994914619570
         O           -0.496270677956    -1.777195086103    -1.169004392759    15.994914619570
         C            1.837878322044     0.922034913897     0.457529607241    12.000000000000
         C           -1.914176677956     0.877683913897    -0.454098392759    12.000000000000
         C            2.834111322044     1.787084913897    -0.278612392759    12.000000000000
         C           -2.845293677956     1.775118913897     0.326625607241    12.000000000000
         H            1.062225322044     1.520371913897     0.944946607241     1.007825032230
         H            2.322175322044     0.294865913897     1.210581607241     1.007825032230
         H           -1.244666677956     1.457265913897    -1.099065392759     1.007825032230
         H           -2.458417677956     0.159637913897    -1.072876392759     1.007825032230
         H            3.341716322044     2.452286913897     0.426016607241     1.007825032230
         H            3.581663322044     1.165087913897    -0.774663392759     1.007825032230
         H            2.328613322044     2.394048913897    -1.032540392759     1.007825032230
         H           -3.475515677956     2.347145913897    -0.360431392759     1.007825032230
         H           -3.488105677956     1.178383913897     0.976861607241     1.007825032230
         H           -2.275806677956     2.473655913897     0.943371607241     1.007825032230
         H            0.148677322044    -2.477243086103     1.326904607241     1.007825032230

  Basis Set: AUG-CC-PVTZ
    Blend: AUG-CC-PVTZ
  Basis Set: (AUG-CC-PVTZ AUX)
    Blend: AUG-CC-PVTZ-JKFIT
	 Reference Energy          =    -798.3893812317494394 [Eh]
	 Singles Energy            =      -0.0000000000000000 [Eh]
	 Same-Spin Energy          =      -0.4895793647824074 [Eh]
	 Opposite-Spin Energy      =      -1.5374843039623358 [Eh]
	 Correlation Energy        =      -2.0270636687447432 [Eh]
	 Total Energy              =    -800.4164449004941844 [Eh]

	 ================> DF-SCS-MP2 Energies <==================
	-----------------------------------------------------------
	 SCS Same-Spin Scale       =       0.3333333333333333 [-]
	 SCS Opposite-Spin Scale   =       1.2000000000000000 [-]
	 SCS Same-Spin Energy      =      -0.1631931215941358 [Eh]
	 SCS Opposite-Spin Energy  =      -1.8449811647548029 [Eh]
	 SCS Correlation Energy    =      -2.0081742863489387 [Eh]
	 SCS Total Energy          =    -800.3975555180983292 [Eh]
	-----------------------------------------------------------

  Dipole Moment: [D]
     X:     0.1767      Y:     2.5783      Z:     2.1992     Total:     3.3934

*** Psi4 exiting successfully. Buy a developer a beer!
