                               Psi4 1.3.2 release

  ==> Input File <==

--------------------------------------------------------------------------
#psi4
#
memory 32 gb

molecule  {
0 1
  P       -0.0032580    -0.8671950     0.1253540
  O       -1.1128909     0.0587861     0.5343443
  O        1.1133490     0.0895100    -0.5478160
  O       -0.6066630    -1.5809190    -1.1923580
  O        0.4670770    -1.7625730     1.2055430
  C       -1.7907810     0.9929110    -0.4324270
  C        1.9592910     0.8227470     0.3828140
  C       -2.8068250     1.8392790     0.2947570
  C        2.8879720     1.6796440    -0.4470910
  H       -1.0045510     1.5998440    -0.8949530
  H       -2.2583930     0.3707270    -1.2026260
  H        1.3234980     1.4321860     1.0341110
  H        2.5053500     0.1039360     0.9973890
  H       -3.3001310     2.5165380    -0.4095030
  H       -3.5654280     1.2070220     0.7630240
  H       -2.3198080     2.4333430     1.0748900
  H        3.5555180     2.2520740     0.2062470
  H        3.4947160     1.0534000    -1.1072300
  H        2.3164280     2.3771700    -1.0625470
  H       -0.2391740    -2.4808040    -1.2743640
units angstrom
no_reorient  #important for SAPT in psi4, default
symmetry c1  #important for SAPT in psi4, default
}

set PROPERTIES_ORIGIN ["COM"]
properties('MP2/aug-cc-pvtz', properties = ['dipole'])
--------------------------------------------------------------------------

    Molecular point group: c1
  Charge       = 0
  Multiplicity = 1
  Basis Set: AUG-CC-PVTZ
    Blend: AUG-CC-PVTZ
  Basis Set: (AUG-CC-PVTZ AUX)
    Blend: AUG-CC-PVTZ-JKFIT

    Orbital Energies [Eh]
    ---------------------

    Doubly Occupied:

       1A    -80.086624     2A    -20.595748     3A    -20.589967
       4A    -20.580931     5A    -20.499480     6A    -11.316944
       7A    -11.295124     8A    -11.240027     9A    -11.227769
      10A     -7.605029    11A     -5.503887    12A     -5.502967
      13A     -5.501816    14A     -1.455888    15A     -1.379691
      16A     -1.370843    17A     -1.281091    18A     -1.053284
      19A     -1.032286    20A     -0.879938    21A     -0.864578
      22A     -0.807479    23A     -0.731369    24A     -0.716067
      25A     -0.681913    26A     -0.657197    27A     -0.646417
      28A     -0.615503    29A     -0.609159    30A     -0.577844
      31A     -0.569999    32A     -0.560812    33A     -0.547001
      34A     -0.538219    35A     -0.531968    36A     -0.526237
      37A     -0.504299    38A     -0.489618    39A     -0.476900
      40A     -0.455977    41A     -0.450884

  @DF-RHF Final Energy:  -798.38563333961270

   => Energetics <=

    Nuclear Repulsion Energy =            631.1675833394936035
    One-Electron Energy =               -2353.9888849356011633
    Two-Electron Energy =                 924.4356682564948642
    Total Energy =                       -798.3856333396126956
  Basis Set: (AUG-CC-PVTZ AUX)
    Blend: AUG-CC-PVTZ-RI
    Molecular point group: c1

    Geometry (in Angstrom), charge = 0, multiplicity = 1:

       Center              X                  Y                   Z               Mass
    ------------   -----------------  -----------------  -----------------  -----------------
         P           -0.010928973651    -0.860793416479     0.128181217210    30.973761998420
         O           -1.120561873651     0.065187683521     0.537171517210    15.994914619570
         O            1.105678026349     0.095911583521    -0.544988782790    15.994914619570
         O           -0.614333973651    -1.574517416479    -1.189530782790    15.994914619570
         O            0.459406026349    -1.756171416479     1.208370217210    15.994914619570
         C           -1.798451973651     0.999312583521    -0.429599782790    12.000000000000
         C            1.951620026349     0.829148583521     0.385641217210    12.000000000000
         C           -2.814495973651     1.845680583521     0.297584217210    12.000000000000
         C            2.880301026349     1.686045583521    -0.444263782790    12.000000000000
         H           -1.012221973651     1.606245583521    -0.892125782790     1.007825032230
         H           -2.266063973651     0.377128583521    -1.199798782790     1.007825032230
         H            1.315827026349     1.438587583521     1.036938217210     1.007825032230
         H            2.497679026349     0.110337583521     1.000216217210     1.007825032230
         H           -3.307801973651     2.522939583521    -0.406675782790     1.007825032230
         H           -3.573098973651     1.213423583521     0.765851217210     1.007825032230
         H           -2.327478973651     2.439744583521     1.077717217210     1.007825032230
         H            3.547847026349     2.258475583521     0.209074217210     1.007825032230
         H            3.487045026349     1.059801583521    -1.104402782790     1.007825032230
         H            2.308757026349     2.383571583521    -1.059719782790     1.007825032230
         H           -0.246844973651    -2.474402416479    -1.271536782790     1.007825032230

  Basis Set: AUG-CC-PVTZ
    Blend: AUG-CC-PVTZ
  Basis Set: (AUG-CC-PVTZ AUX)
    Blend: AUG-CC-PVTZ-JKFIT
	 Reference Energy          =    -798.3856333396126956 [Eh]
	 Singles Energy            =      -0.0000000000000000 [Eh]
	 Same-Spin Energy          =      -0.4884628436305766 [Eh]
	 Opposite-Spin Energy      =      -1.5350104072810355 [Eh]
	 Correlation Energy        =      -2.0234732509116120 [Eh]
	 Total Energy              =    -800.4091065905242885 [Eh]

	 ================> DF-SCS-MP2 Energies <==================
	-----------------------------------------------------------
	 SCS Same-Spin Scale       =       0.3333333333333333 [-]
	 SCS Opposite-Spin Scale   =       1.2000000000000000 [-]
	 SCS Same-Spin Energy      =      -0.1628209478768589 [Eh]
	 SCS Opposite-Spin Energy  =      -1.8420124887372427 [Eh]
	 SCS Correlation Energy    =      -2.0048334366141014 [Eh]
	 SCS Total Energy          =    -800.3904667762268446 [Eh]
	-----------------------------------------------------------

  Dipole Moment: [D]
     X:    -0.7445      Y:     3.1852      Z:    -2.2080     Total:     3.9465

*** Psi4 exiting successfully. Buy a developer a beer!
