                               Psi4 1.4a3.dev225

  ==> Input File <==

--------------------------------------------------------------------------
#psi4
#
memory 32 gb

molecule  {
0 1
  P       -0.0193980    -0.9573280    -0.1096150
  O        1.2162340    -0.0269160    -0.5415020
  O       -1.1156210     0.0613730     0.5053800
  O        0.5163150    -1.6599550     1.2462920
  O       -0.4960840    -1.8598830    -1.1802340
  C        1.8380650     0.8393470     0.4463000
  C       -1.9139900     0.7949960    -0.4653280
  C        2.8342980     1.7043970    -0.2898420
  C       -2.8451070     1.6924310     0.3153960
  H        1.0269674     1.4650259     0.9559903
  H        2.3223620     0.2121780     1.1993520
  H       -1.2444800     1.3745780    -1.1102950
  H       -2.4582310     0.0769500    -1.0841060
  H        3.3419030     2.3695990     0.4147870
  H        3.5818500     1.0824000    -0.7858930
  H        2.3288000     2.3113610    -1.0437700
  H       -3.4753290     2.2644580    -0.3716610
  H       -3.4879190     1.0956960     0.9656320
  H       -2.2756200     2.3909680     0.9321420
  H        0.1488640    -2.5599310     1.3156750
units angstrom
no_reorient  #important for SAPT in psi4, default
symmetry c1  #important for SAPT in psi4, default
}

set PROPERTIES_ORIGIN ["COM"]
properties('MP2/aug-cc-pvtz', properties = ['dipole'])
--------------------------------------------------------------------------

    Molecular point group: c1
  Charge       = 0
  Multiplicity = 1
  Basis Set: AUG-CC-PVTZ
    Blend: AUG-CC-PVTZ
  Basis Set: (AUG-CC-PVTZ AUX)
    Blend: AUG-CC-PVTZ-JKFIT

    Orbital Energies [Eh]
    ---------------------

    Doubly Occupied:

       1A    -80.105241     2A    -20.605037     3A    -20.591881
       4A    -20.590298     5A    -20.511706     6A    -11.306483
       7A    -11.298861     8A    -11.230084     9A    -11.229709
      10A     -7.620685    11A     -5.519204    12A     -5.518698
      13A     -5.517710    14A     -1.446135    15A     -1.379179
      16A     -1.376737    17A     -1.292104    18A     -1.040722
      19A     -1.032915    20A     -0.872917    21A     -0.861717
      22A     -0.811758    23A     -0.728820    24A     -0.713599
      25A     -0.682902    26A     -0.654461    27A     -0.651613
      28A     -0.618150    29A     -0.605834    30A     -0.576487
      31A     -0.565985    32A     -0.563753    33A     -0.544792
      34A     -0.538953    35A     -0.535001    36A     -0.517355
      37A     -0.503235    38A     -0.480191    39A     -0.476397
      40A     -0.465779    41A     -0.460916

  @DF-RHF Final Energy:  -798.38645199788016

   => Energetics <=

    Nuclear Repulsion Energy =            627.3985286778492991
    One-Electron Energy =               -2346.2819527140859464
    Two-Electron Energy =                 920.4969720383564891
    Total Energy =                       -798.3864519978801582
  Basis Set: (AUG-CC-PVTZ AUX)
    Blend: AUG-CC-PVTZ-RI
    Molecular point group: c1

    Geometry (in Angstrom), charge = 0, multiplicity = 1:

       Center              X                  Y                   Z               Mass
    ------------   -----------------  -----------------  -----------------  -----------------
         P           -0.020040215526    -0.873917352032    -0.100271033683    30.973761998420
         O            1.215591784474     0.056494647968    -0.532158033683    15.994914619570
         O           -1.116263215526     0.144783647968     0.514723966317    15.994914619570
         O            0.515672784474    -1.576544352032     1.255635966317    15.994914619570
         O           -0.496726215526    -1.776472352032    -1.170890033683    15.994914619570
         C            1.837422784474     0.922757647968     0.455643966317    12.000000000000
         C           -1.914632215526     0.878406647968    -0.455984033683    12.000000000000
         C            2.833655784474     1.787807647968    -0.280498033683    12.000000000000
         C           -2.845749215526     1.775841647968     0.324739966317    12.000000000000
         H            1.026325184474     1.548436547968     0.965334266317     1.007825032230
         H            2.321719784474     0.295588647968     1.208695966317     1.007825032230
         H           -1.245122215526     1.457988647968    -1.100951033683     1.007825032230
         H           -2.458873215526     0.160360647968    -1.074762033683     1.007825032230
         H            3.341260784474     2.453009647968     0.424130966317     1.007825032230
         H            3.581207784474     1.165810647968    -0.776549033683     1.007825032230
         H            2.328157784474     2.394771647968    -1.034426033683     1.007825032230
         H           -3.475971215526     2.347868647968    -0.362317033683     1.007825032230
         H           -3.488561215526     1.179106647968     0.974975966317     1.007825032230
         H           -2.276262215526     2.474378647968     0.941485966317     1.007825032230
         H            0.148221784474    -2.476520352032     1.325018966317     1.007825032230

  Basis Set: AUG-CC-PVTZ
    Blend: AUG-CC-PVTZ
  Basis Set: (AUG-CC-PVTZ AUX)
    Blend: AUG-CC-PVTZ-JKFIT
	 Reference Energy          =    -798.3864519978801582 [Eh]
	 Singles Energy            =      -0.0000000000000000 [Eh]
	 Same-Spin Energy          =      -0.4897842053653700 [Eh]
	 Opposite-Spin Energy      =      -1.5384024628439266 [Eh]
	 Correlation Energy        =      -2.0281866682092966 [Eh]
	 Total Energy              =    -800.4146386660894450 [Eh]

	 ================> DF-SCS-MP2 Energies <==================
	-----------------------------------------------------------
	 SCS Same-Spin Scale       =       0.3333333333333333 [-]
	 SCS Opposite-Spin Scale   =       1.2000000000000000 [-]
	 SCS Same-Spin Energy      =      -0.1632614017884567 [Eh]
	 SCS Opposite-Spin Energy  =      -1.8460829554127118 [Eh]
	 SCS Correlation Energy    =      -2.0093443572011687 [Eh]
	 SCS Total Energy          =    -800.3957963550813020 [Eh]
	-----------------------------------------------------------

  Dipole Moment: [D]
     X:     0.1503      Y:     2.6387      Z:     2.0824     Total:     3.3648

*** Psi4 exiting successfully. Buy a developer a beer!
