                               Psi4 1.3.2 release

  ==> Input File <==

--------------------------------------------------------------------------
#psi4
#
memory 32 gb

molecule  {
0 1
  P       -0.0032580    -0.8671950     0.1253540
  O       -1.1867680     0.1204360     0.5615740
  O        1.1168845     0.0942862    -0.5350156
  O       -0.6155732    -1.5882321    -1.1842414
  O        0.4670770    -1.7625730     1.2055430
  C       -1.7907810     0.9929110    -0.4324270
  C        1.9592910     0.8227470     0.3828140
  C       -2.8068250     1.8392790     0.2947570
  C        2.8879720     1.6796440    -0.4470910
  H       -1.0045510     1.5998440    -0.8949530
  H       -2.2583930     0.3707270    -1.2026260
  H        1.3234980     1.4321860     1.0341110
  H        2.5053500     0.1039360     0.9973890
  H       -3.3001310     2.5165380    -0.4095030
  H       -3.5654280     1.2070220     0.7630240
  H       -2.3198080     2.4333430     1.0748900
  H        3.5555180     2.2520740     0.2062470
  H        3.4947160     1.0534000    -1.1072300
  H        2.3164280     2.3771700    -1.0625470
  H       -0.2391740    -2.4808040    -1.2743640
units angstrom
no_reorient  #important for SAPT in psi4, default
symmetry c1  #important for SAPT in psi4, default
}

set PROPERTIES_ORIGIN ["COM"]
properties('MP2/aug-cc-pvtz', properties = ['dipole'])
--------------------------------------------------------------------------

    Molecular point group: c1
  Charge       = 0
  Multiplicity = 1
  Basis Set: AUG-CC-PVTZ
    Blend: AUG-CC-PVTZ
  Basis Set: (AUG-CC-PVTZ AUX)
    Blend: AUG-CC-PVTZ-JKFIT

    Orbital Energies [Eh]
    ---------------------

    Doubly Occupied:

       1A    -80.104802     2A    -20.605822     3A    -20.591145
       4A    -20.590644     5A    -20.510426     6A    -11.301541
       7A    -11.298029     8A    -11.230064     9A    -11.230026
      10A     -7.620364    11A     -5.518897    12A     -5.518393
      13A     -5.517366    14A     -1.448239    15A     -1.382055
      16A     -1.378639    17A     -1.291003    18A     -1.041787
      19A     -1.033441    20A     -0.874251    21A     -0.864222
      22A     -0.813525    23A     -0.733735    24A     -0.715619
      25A     -0.683049    26A     -0.658925    27A     -0.652050
      28A     -0.620501    29A     -0.605390    30A     -0.577221
      31A     -0.565926    32A     -0.562503    33A     -0.544865
      34A     -0.540205    35A     -0.535290    36A     -0.519110
      37A     -0.503212    38A     -0.480477    39A     -0.478533
      40A     -0.464804    41A     -0.459762

  @DF-RHF Final Energy:  -798.38941207189123

   => Energetics <=

    Nuclear Repulsion Energy =            628.2674894932974894
    One-Electron Energy =               -2347.9820830481180565
    Two-Electron Energy =                 921.3251814829293380
    Total Energy =                       -798.3894120718912291
  Basis Set: (AUG-CC-PVTZ AUX)
    Blend: AUG-CC-PVTZ-RI
    Molecular point group: c1

    Geometry (in Angstrom), charge = 0, multiplicity = 1:

       Center              X                  Y                   Z               Mass
    ------------   -----------------  -----------------  -----------------  -----------------
         P           -0.002699747973    -0.866931500629     0.123181834736    30.973761998420
         O           -1.186209747973     0.120699499371     0.559401834736    15.994914619570
         O            1.117442752027     0.094549699371    -0.537187765264    15.994914619570
         O           -0.615014947973    -1.587968600629    -1.186413565264    15.994914619570
         O            0.467635252027    -1.762309500629     1.203370834736    15.994914619570
         C           -1.790222747973     0.993174499371    -0.434599165264    12.000000000000
         C            1.959849252027     0.823010499371     0.380641834736    12.000000000000
         C           -2.806266747973     1.839542499371     0.292584834736    12.000000000000
         C            2.888530252027     1.679907499371    -0.449263165264    12.000000000000
         H           -1.003992747973     1.600107499371    -0.897125165264     1.007825032230
         H           -2.257834747973     0.370990499371    -1.204798165264     1.007825032230
         H            1.324056252027     1.432449499371     1.031938834736     1.007825032230
         H            2.505908252027     0.104199499371     0.995216834736     1.007825032230
         H           -3.299572747973     2.516801499371    -0.411675165264     1.007825032230
         H           -3.564869747973     1.207285499371     0.760851834736     1.007825032230
         H           -2.319249747973     2.433606499371     1.072717834736     1.007825032230
         H            3.556076252027     2.252337499371     0.204074834736     1.007825032230
         H            3.495274252027     1.053663499371    -1.109402165264     1.007825032230
         H            2.316986252027     2.377433499371    -1.064719165264     1.007825032230
         H           -0.238615747973    -2.480540500629    -1.276536165264     1.007825032230

  Basis Set: AUG-CC-PVTZ
    Blend: AUG-CC-PVTZ
  Basis Set: (AUG-CC-PVTZ AUX)
    Blend: AUG-CC-PVTZ-JKFIT
	 Reference Energy          =    -798.3894120718912291 [Eh]
	 Singles Energy            =      -0.0000000000000000 [Eh]
	 Same-Spin Energy          =      -0.4895679828263036 [Eh]
	 Opposite-Spin Energy      =      -1.5375066950619134 [Eh]
	 Correlation Energy        =      -2.0270746778882169 [Eh]
	 Total Energy              =    -800.4164867497794376 [Eh]

	 ================> DF-SCS-MP2 Energies <==================
	-----------------------------------------------------------
	 SCS Same-Spin Scale       =       0.3333333333333333 [-]
	 SCS Opposite-Spin Scale   =       1.2000000000000000 [-]
	 SCS Same-Spin Energy      =      -0.1631893276087679 [Eh]
	 SCS Opposite-Spin Energy  =      -1.8450080340742960 [Eh]
	 SCS Correlation Energy    =      -2.0081973616830640 [Eh]
	 SCS Total Energy          =    -800.3976094335743028 [Eh]
	-----------------------------------------------------------

  Dipole Moment: [D]
     X:    -0.0779      Y:     2.6359      Z:    -2.2702     Total:     3.4796

*** Psi4 exiting successfully. Buy a developer a beer!
