                               Psi4 1.3.2 release

  ==> Input File <==

--------------------------------------------------------------------------
#psi4
#
memory 32 gb

molecule  {
0 1
  P       -0.0032580    -0.8671950     0.1253540
  O       -1.1867680     0.1204360     0.5615740
  O        1.0902342     0.0676498    -0.5081939
  O       -0.6066630    -1.5809190    -1.1923580
  O        0.4670770    -1.7625730     1.2055430
  C       -1.7907810     0.9929110    -0.4324270
  C        1.9592910     0.8227470     0.3828140
  C       -2.8068250     1.8392790     0.2947570
  C        2.9095794     1.6977885    -0.4024997
  H       -1.0045510     1.5998440    -0.8949530
  H       -2.2583930     0.3707270    -1.2026260
  H        1.3234980     1.4321860     1.0341110
  H        2.5053500     0.1039360     0.9973890
  H       -3.3001310     2.5165380    -0.4095030
  H       -3.5654280     1.2070220     0.7630240
  H       -2.3198080     2.4333430     1.0748900
  H        3.5555180     2.2520740     0.2062470
  H        3.4947160     1.0534000    -1.1072300
  H        2.3164280     2.3771700    -1.0625470
  H       -0.2391740    -2.4808040    -1.2743640
units angstrom
no_reorient  #important for SAPT in psi4, default
symmetry c1  #important for SAPT in psi4, default
}

set PROPERTIES_ORIGIN ["COM"]
properties('MP2/aug-cc-pvtz', properties = ['dipole'])
--------------------------------------------------------------------------

    Molecular point group: c1
  Charge       = 0
  Multiplicity = 1
  Basis Set: AUG-CC-PVTZ
    Blend: AUG-CC-PVTZ
  Basis Set: (AUG-CC-PVTZ AUX)
    Blend: AUG-CC-PVTZ-JKFIT

    Orbital Energies [Eh]
    ---------------------

    Doubly Occupied:

       1A    -80.099012     2A    -20.602988     3A    -20.591445
       4A    -20.587650     5A    -20.505931     6A    -11.303301
       7A    -11.300245     8A    -11.234402     9A    -11.229124
      10A     -7.615444    11A     -5.513905    12A     -5.513642
      13A     -5.512435    14A     -1.451937    15A     -1.383737
      16A     -1.376674    17A     -1.287200    18A     -1.045149
      19A     -1.035237    20A     -0.879637    21A     -0.863744
      22A     -0.810141    23A     -0.734943    24A     -0.716451
      25A     -0.683286    26A     -0.658527    27A     -0.649697
      28A     -0.623911    29A     -0.603787    30A     -0.586891
      31A     -0.565459    32A     -0.560952    33A     -0.550431
      34A     -0.541965    35A     -0.531519    36A     -0.516458
      37A     -0.502823    38A     -0.479640    39A     -0.478103
      40A     -0.461595    41A     -0.457169

  @DF-RHF Final Energy:  -798.38758593235877

   => Energetics <=

    Nuclear Repulsion Energy =            629.4291631789907342
    One-Electron Energy =               -2350.3403220856589542
    Two-Electron Energy =                 922.5235729743095590
    Total Energy =                       -798.3875859323587747
  Basis Set: (AUG-CC-PVTZ AUX)
    Blend: AUG-CC-PVTZ-RI
    Molecular point group: c1

    Geometry (in Angstrom), charge = 0, multiplicity = 1:

       Center              X                  Y                   Z               Mass
    ------------   -----------------  -----------------  -----------------  -----------------
         P           -0.002540940749    -0.866338532357     0.117765807678    30.973761998420
         O           -1.186050940749     0.121292467643     0.553985807678    15.994914619570
         O            1.090951259251     0.068506267643    -0.515782092322    15.994914619570
         O           -0.605945940749    -1.580062532357    -1.199946192322    15.994914619570
         O            0.467794059251    -1.761716532357     1.197954807678    15.994914619570
         C           -1.790063940749     0.993767467643    -0.440015192322    12.000000000000
         C            1.960008059251     0.823603467643     0.375225807678    12.000000000000
         C           -2.806107940749     1.840135467643     0.287168807678    12.000000000000
         C            2.910296459251     1.698644967643    -0.410087892322    12.000000000000
         H           -1.003833940749     1.600700467643    -0.902541192322     1.007825032230
         H           -2.257675940749     0.371583467643    -1.210214192322     1.007825032230
         H            1.324215059252     1.433042467643     1.026522807678     1.007825032230
         H            2.506067059251     0.104792467643     0.989800807678     1.007825032230
         H           -3.299413940749     2.517394467643    -0.417091192322     1.007825032230
         H           -3.564710940749     1.207878467643     0.755435807678     1.007825032230
         H           -2.319090940749     2.434199467643     1.067301807678     1.007825032230
         H            3.556235059251     2.252930467643     0.198658807678     1.007825032230
         H            3.495433059251     1.054256467643    -1.114818192322     1.007825032230
         H            2.317145059251     2.378026467643    -1.070135192322     1.007825032230
         H           -0.238456940749    -2.479947532357    -1.281952192322     1.007825032230

  Basis Set: AUG-CC-PVTZ
    Blend: AUG-CC-PVTZ
  Basis Set: (AUG-CC-PVTZ AUX)
    Blend: AUG-CC-PVTZ-JKFIT
	 Reference Energy          =    -798.3875859323587747 [Eh]
	 Singles Energy            =      -0.0000000000000000 [Eh]
	 Same-Spin Energy          =      -0.4889751040972383 [Eh]
	 Opposite-Spin Energy      =      -1.5360894867695913 [Eh]
	 Correlation Energy        =      -2.0250645908668297 [Eh]
	 Total Energy              =    -800.4126505232255795 [Eh]

	 ================> DF-SCS-MP2 Energies <==================
	-----------------------------------------------------------
	 SCS Same-Spin Scale       =       0.3333333333333333 [-]
	 SCS Opposite-Spin Scale   =       1.2000000000000000 [-]
	 SCS Same-Spin Energy      =      -0.1629917013657461 [Eh]
	 SCS Opposite-Spin Energy  =      -1.8433073841235095 [Eh]
	 SCS Correlation Energy    =      -2.0062990854892555 [Eh]
	 SCS Total Energy          =    -800.3938850178479925 [Eh]
	-----------------------------------------------------------

  Dipole Moment: [D]
     X:     0.1586      Y:     2.8161      Z:    -2.3068     Total:     3.6438

*** Psi4 exiting successfully. Buy a developer a beer!
