                               Psi4 1.3.2 release

  ==> Input File <==

--------------------------------------------------------------------------
#psi4
#
memory 32 gb

molecule  {
0 1
  P       -0.0032580    -0.8671950     0.1253540
  O       -1.1867680     0.1204360     0.5615740
  O        1.1133490     0.0895100    -0.5478160
  O       -0.6066630    -1.5809190    -1.1923580
  O        0.4670770    -1.7625730     1.2055430
  C       -1.7907810     0.9929110    -0.4324270
  C        1.9592910     0.8227470     0.3828140
  C       -2.8068250     1.8392790     0.2947570
  C        2.8879720     1.6796440    -0.4470910
  H       -1.0045510     1.5998440    -0.8949530
  H       -2.2583930     0.3707270    -1.2026260
  H        1.4395853     1.3209106     0.9151929
  H        2.5053500     0.1039360     0.9973890
  H       -3.3001310     2.5165380    -0.4095030
  H       -3.5654280     1.2070220     0.7630240
  H       -2.3198080     2.4333430     1.0748900
  H        3.5555180     2.2520740     0.2062470
  H        3.4947160     1.0534000    -1.1072300
  H        2.3164280     2.3771700    -1.0625470
  H       -0.2391740    -2.4808040    -1.2743640
units angstrom
no_reorient  #important for SAPT in psi4, default
symmetry c1  #important for SAPT in psi4, default
}

set PROPERTIES_ORIGIN ["COM"]
properties('MP2/aug-cc-pvtz', properties = ['dipole'])
--------------------------------------------------------------------------

    Molecular point group: c1
  Charge       = 0
  Multiplicity = 1
  Basis Set: AUG-CC-PVTZ
    Blend: AUG-CC-PVTZ
  Basis Set: (AUG-CC-PVTZ AUX)
    Blend: AUG-CC-PVTZ-JKFIT

    Orbital Energies [Eh]
    ---------------------

    Doubly Occupied:

       1A    -80.103588     2A    -20.604276     3A    -20.591285
       4A    -20.588219     5A    -20.510845     6A    -11.301499
       7A    -11.274768     8A    -11.230134     9A    -11.229166
      10A     -7.619221    11A     -5.517769    12A     -5.517236
      13A     -5.516220    14A     -1.446691    15A     -1.379196
      16A     -1.376851    17A     -1.291131    18A     -1.049978
      19A     -1.037388    20A     -0.886918    21A     -0.867107
      22A     -0.822033    23A     -0.733991    24A     -0.715117
      25A     -0.691936    26A     -0.663625    27A     -0.653535
      28A     -0.618338    29A     -0.606165    30A     -0.576340
      31A     -0.565491    32A     -0.561976    33A     -0.546014
      34A     -0.540718    35A     -0.534243    36A     -0.523883
      37A     -0.503435    38A     -0.488947    39A     -0.479785
      40A     -0.465253    41A     -0.460288

  @DF-RHF Final Energy:  -798.35573057948136

   => Energetics <=

    Nuclear Repulsion Energy =            629.1367973838367789
    One-Electron Energy =               -2349.6038585582623455
    Two-Electron Energy =                 922.1113305949440928
    Total Energy =                       -798.3557305794813601
  Basis Set: (AUG-CC-PVTZ AUX)
    Blend: AUG-CC-PVTZ-RI
    Molecular point group: c1

    Geometry (in Angstrom), charge = 0, multiplicity = 1:

       Center              X                  Y                   Z               Mass
    ------------   -----------------  -----------------  -----------------  -----------------
         P           -0.004017355210    -0.866466888392     0.126131820158    30.973761998420
         O           -1.187527355210     0.121164111608     0.562351820158    15.994914619570
         O            1.112589644790     0.090238111608    -0.547038179842    15.994914619570
         O           -0.607422355210    -1.580190888392    -1.191580179842    15.994914619570
         O            0.466317644790    -1.761844888392     1.206320820158    15.994914619570
         C           -1.791540355210     0.993639111608    -0.431649179842    12.000000000000
         C            1.958531644790     0.823475111608     0.383591820158    12.000000000000
         C           -2.807584355210     1.840007111608     0.295534820158    12.000000000000
         C            2.887212644790     1.680372111608    -0.446313179842    12.000000000000
         H           -1.005310355210     1.600572111608    -0.894175179842     1.007825032230
         H           -2.259152355210     0.371455111608    -1.201848179842     1.007825032230
         H            1.438825944790     1.321638711608     0.915970720158     1.007825032230
         H            2.504590644790     0.104664111608     0.998166820158     1.007825032230
         H           -3.300890355210     2.517266111608    -0.408725179842     1.007825032230
         H           -3.566187355210     1.207750111608     0.763801820158     1.007825032230
         H           -2.320567355210     2.434071111608     1.075667820158     1.007825032230
         H            3.554758644790     2.252802111608     0.207024820158     1.007825032230
         H            3.493956644790     1.054128111608    -1.106452179842     1.007825032230
         H            2.315668644790     2.377898111608    -1.061769179842     1.007825032230
         H           -0.239933355210    -2.480075888392    -1.273586179842     1.007825032230

  Basis Set: AUG-CC-PVTZ
    Blend: AUG-CC-PVTZ
  Basis Set: (AUG-CC-PVTZ AUX)
    Blend: AUG-CC-PVTZ-JKFIT
	 Reference Energy          =    -798.3557305794813601 [Eh]
	 Singles Energy            =      -0.0000000000000000 [Eh]
	 Same-Spin Energy          =      -0.4895625217616963 [Eh]
	 Opposite-Spin Energy      =      -1.5371309381451594 [Eh]
	 Correlation Energy        =      -2.0266934599068556 [Eh]
	 Total Energy              =    -800.3824240393881837 [Eh]

	 ================> DF-SCS-MP2 Energies <==================
	-----------------------------------------------------------
	 SCS Same-Spin Scale       =       0.3333333333333333 [-]
	 SCS Opposite-Spin Scale   =       1.2000000000000000 [-]
	 SCS Same-Spin Energy      =      -0.1631875072538988 [Eh]
	 SCS Opposite-Spin Energy  =      -1.8445571257741913 [Eh]
	 SCS Correlation Energy    =      -2.0077446330280901 [Eh]
	 SCS Total Energy          =    -800.3634752125094565 [Eh]
	-----------------------------------------------------------

  Dipole Moment: [D]
     X:    -0.0772      Y:     2.6906      Z:    -2.1545     Total:     3.4478

*** Psi4 exiting successfully. Buy a developer a beer!
