                               Psi4 1.3.2 release

  ==> Input File <==

--------------------------------------------------------------------------
#psi4
#
memory 32 gb

molecule  {
0 1
  P       -0.0032580    -0.8671950     0.1253540
  O       -1.1867680     0.1204360     0.5615740
  O        1.1133490     0.0895100    -0.5478160
  O       -0.6066630    -1.5809190    -1.1923580
  O        0.4670770    -1.7625730     1.2055430
  C       -1.7907810     0.9929110    -0.4324270
  C        2.0755085     0.9234808     0.5106662
  C       -2.8068250     1.8392790     0.2947570
  C        2.8879720     1.6796440    -0.4470910
  H       -1.0045510     1.5998440    -0.8949530
  H       -2.2583930     0.3707270    -1.2026260
  H        1.3234980     1.4321860     1.0341110
  H        2.5053500     0.1039360     0.9973890
  H       -3.3001310     2.5165380    -0.4095030
  H       -3.5654280     1.2070220     0.7630240
  H       -2.3198080     2.4333430     1.0748900
  H        3.5555180     2.2520740     0.2062470
  H        3.4947160     1.0534000    -1.1072300
  H        2.3164280     2.3771700    -1.0625470
  H       -0.2391740    -2.4808040    -1.2743640
units angstrom
no_reorient  #important for SAPT in psi4, default
symmetry c1  #important for SAPT in psi4, default
}

set PROPERTIES_ORIGIN ["COM"]
properties('MP2/aug-cc-pvtz', properties = ['dipole'])
--------------------------------------------------------------------------

    Molecular point group: c1
  Charge       = 0
  Multiplicity = 1
  Basis Set: AUG-CC-PVTZ
    Blend: AUG-CC-PVTZ
  Basis Set: (AUG-CC-PVTZ AUX)
    Blend: AUG-CC-PVTZ-JKFIT

    Orbital Energies [Eh]
    ---------------------

    Doubly Occupied:

       1A    -80.089582     2A    -20.593689     3A    -20.582529
       4A    -20.563831     5A    -20.501477     6A    -11.313485
       7A    -11.295742     8A    -11.240785     9A    -11.226646
      10A     -7.605170    11A     -5.503833    12A     -5.503088
      13A     -5.502218    14A     -1.429799    15A     -1.369734
      16A     -1.329252    17A     -1.279371    18A     -1.062485
      19A     -1.033334    20A     -0.875899    21A     -0.861147
      22A     -0.805876    23A     -0.713381    24A     -0.695364
      25A     -0.685994    26A     -0.657154    27A     -0.643331
      28A     -0.607287    29A     -0.598644    30A     -0.575138
      31A     -0.571059    32A     -0.556650    33A     -0.544558
      34A     -0.538251    35A     -0.527300    36A     -0.507887
      37A     -0.500501    38A     -0.487404    39A     -0.471401
      40A     -0.457221    41A     -0.448916

  @DF-RHF Final Energy:  -798.36168204613409

   => Energetics <=

    Nuclear Repulsion Energy =            624.3704166713740733
    One-Electron Energy =               -2340.7513745580131399
    Two-Electron Energy =                 918.0192758405048608
    Total Energy =                       -798.3616820461340922
  Basis Set: (AUG-CC-PVTZ AUX)
    Blend: AUG-CC-PVTZ-RI
    Molecular point group: c1

    Geometry (in Angstrom), charge = 0, multiplicity = 1:

       Center              X                  Y                   Z               Mass
    ------------   -----------------  -----------------  -----------------  -----------------
         P           -0.012311424898    -0.875042297747     0.115393827093    30.973761998420
         O           -1.195821424898     0.112588702253     0.551613827093    15.994914619570
         O            1.104295575102     0.081662702253    -0.557776172907    15.994914619570
         O           -0.615716424898    -1.588766297747    -1.202318172907    15.994914619570
         O            0.458023575102    -1.770420297747     1.195582827093    15.994914619570
         C           -1.799834424898     0.985063702253    -0.442387172907    12.000000000000
         C            2.066455075102     0.915633502253     0.500706027093    12.000000000000
         C           -2.815878424898     1.831431702253     0.284796827093    12.000000000000
         C            2.878918575102     1.671796702253    -0.457051172907    12.000000000000
         H           -1.013604424898     1.591996702253    -0.904913172907     1.007825032230
         H           -2.267446424898     0.362879702253    -1.212586172907     1.007825032230
         H            1.314444575102     1.424338702253     1.024150827093     1.007825032230
         H            2.496296575102     0.096088702253     0.987428827093     1.007825032230
         H           -3.309184424898     2.508690702253    -0.419463172907     1.007825032230
         H           -3.574481424898     1.199174702253     0.753063827093     1.007825032230
         H           -2.328861424898     2.425495702253     1.064929827093     1.007825032230
         H            3.546464575102     2.244226702253     0.196286827093     1.007825032230
         H            3.485662575102     1.045552702253    -1.117190172907     1.007825032230
         H            2.307374575102     2.369322702253    -1.072507172907     1.007825032230
         H           -0.248227424898    -2.488651297747    -1.284324172907     1.007825032230

  Basis Set: AUG-CC-PVTZ
    Blend: AUG-CC-PVTZ
  Basis Set: (AUG-CC-PVTZ AUX)
    Blend: AUG-CC-PVTZ-JKFIT
	 Reference Energy          =    -798.3616820461340922 [Eh]
	 Singles Energy            =      -0.0000000000000000 [Eh]
	 Same-Spin Energy          =      -0.4907085450594624 [Eh]
	 Opposite-Spin Energy      =      -1.5408551388135709 [Eh]
	 Correlation Energy        =      -2.0315636838730331 [Eh]
	 Total Energy              =    -800.3932457300071519 [Eh]

	 ================> DF-SCS-MP2 Energies <==================
	-----------------------------------------------------------
	 SCS Same-Spin Scale       =       0.3333333333333333 [-]
	 SCS Opposite-Spin Scale   =       1.2000000000000000 [-]
	 SCS Same-Spin Energy      =      -0.1635695150198208 [Eh]
	 SCS Opposite-Spin Energy  =      -1.8490261665762850 [Eh]
	 SCS Correlation Energy    =      -2.0125956815961059 [Eh]
	 SCS Total Energy          =    -800.3742777277301457 [Eh]
	-----------------------------------------------------------

  Dipole Moment: [D]
     X:     0.6766      Y:     3.2109      Z:    -1.9652     Total:     3.8248

*** Psi4 exiting successfully. Buy a developer a beer!
