                               Psi4 1.3.2 release

  ==> Input File <==

--------------------------------------------------------------------------
#psi4
#
memory 32 gb

molecule  {
0 1
  P       -0.0032580    -0.8671950     0.1253540
  O       -1.1867680     0.1204360     0.5615740
  O        1.1236927     0.0842534    -0.5529901
  O       -0.6066630    -1.5809190    -1.1923580
  O        0.4670770    -1.7625730     1.2055430
  C       -1.7907810     0.9929110    -0.4324270
  C        1.9592910     0.8227470     0.3828140
  C       -2.8068250     1.8392790     0.2947570
  C        2.8879720     1.6796440    -0.4470910
  H       -1.0045510     1.5998440    -0.8949530
  H       -2.2583930     0.3707270    -1.2026260
  H        1.3312853     1.4354346     1.0386029
  H        2.5053500     0.1039360     0.9973890
  H       -3.3001310     2.5165380    -0.4095030
  H       -3.5654280     1.2070220     0.7630240
  H       -2.3198080     2.4333430     1.0748900
  H        3.5555180     2.2520740     0.2062470
  H        3.4947160     1.0534000    -1.1072300
  H        2.3164280     2.3771700    -1.0625470
  H       -0.2391740    -2.4808040    -1.2743640
units angstrom
no_reorient  #important for SAPT in psi4, default
symmetry c1  #important for SAPT in psi4, default
}

set PROPERTIES_ORIGIN ["COM"]
properties('MP2/aug-cc-pvtz', properties = ['dipole'])
--------------------------------------------------------------------------

    Molecular point group: c1
  Charge       = 0
  Multiplicity = 1
  Basis Set: AUG-CC-PVTZ
    Blend: AUG-CC-PVTZ
  Basis Set: (AUG-CC-PVTZ AUX)
    Blend: AUG-CC-PVTZ-JKFIT

    Orbital Energies [Eh]
    ---------------------

    Doubly Occupied:

       1A    -80.104804     2A    -20.604916     3A    -20.592179
       4A    -20.590693     5A    -20.511177     6A    -11.301826
       7A    -11.298664     8A    -11.230311     9A    -11.229933
      10A     -7.620322    11A     -5.518870    12A     -5.518325
      13A     -5.517311    14A     -1.446584    15A     -1.379624
      16A     -1.376687    17A     -1.291411    18A     -1.041632
      19A     -1.033462    20A     -0.872454    21A     -0.864024
      22A     -0.813591    23A     -0.730728    24A     -0.715131
      25A     -0.682003    26A     -0.658295    27A     -0.651376
      28A     -0.618291    29A     -0.606067    30A     -0.576738
      31A     -0.565534    32A     -0.561961    33A     -0.545040
      34A     -0.539106    35A     -0.534020    36A     -0.519797
      37A     -0.503792    38A     -0.480917    39A     -0.479754
      40A     -0.465357    41A     -0.460246

  @DF-RHF Final Energy:  -798.38818682140004

   => Energetics <=

    Nuclear Repulsion Energy =            627.8115873948237322
    One-Electron Energy =               -2347.0936406603823343
    Two-Electron Energy =                 920.8938664441586752
    Total Energy =                       -798.3881868214000406
  Basis Set: (AUG-CC-PVTZ AUX)
    Blend: AUG-CC-PVTZ-RI
    Molecular point group: c1

    Geometry (in Angstrom), charge = 0, multiplicity = 1:

       Center              X                  Y                   Z               Mass
    ------------   -----------------  -----------------  -----------------  -----------------
         P           -0.004382840354    -0.866670351054     0.125861653086    30.973761998420
         O           -1.187892840354     0.120960648946     0.562081653086    15.994914619570
         O            1.122567859646     0.084778048946    -0.552482446914    15.994914619570
         O           -0.607787840354    -1.580394351054    -1.191850346914    15.994914619570
         O            0.465952159646    -1.762048351054     1.206050653086    15.994914619570
         C           -1.791905840354     0.993435648946    -0.431919346914    12.000000000000
         C            1.958166159646     0.823271648946     0.383321653086    12.000000000000
         C           -2.807949840354     1.839803648946     0.295264653086    12.000000000000
         C            2.886847159646     1.680168648946    -0.446583346914    12.000000000000
         H           -1.005675840354     1.600368648946    -0.894445346914     1.007825032230
         H           -2.259517840354     0.371251648946    -1.202118346914     1.007825032230
         H            1.330160459646     1.435959248946     1.039110553086     1.007825032230
         H            2.504225159646     0.104460648946     0.997896653086     1.007825032230
         H           -3.301255840354     2.517062648946    -0.408995346914     1.007825032230
         H           -3.566552840354     1.207546648946     0.763531653086     1.007825032230
         H           -2.320932840354     2.433867648946     1.075397653086     1.007825032230
         H            3.554393159646     2.252598648946     0.206754653086     1.007825032230
         H            3.493591159646     1.053924648946    -1.106722346914     1.007825032230
         H            2.315303159646     2.377694648946    -1.062039346914     1.007825032230
         H           -0.240298840354    -2.480279351054    -1.273856346914     1.007825032230

  Basis Set: AUG-CC-PVTZ
    Blend: AUG-CC-PVTZ
  Basis Set: (AUG-CC-PVTZ AUX)
    Blend: AUG-CC-PVTZ-JKFIT
	 Reference Energy          =    -798.3881868214000406 [Eh]
	 Singles Energy            =      -0.0000000000000000 [Eh]
	 Same-Spin Energy          =      -0.4897929828799161 [Eh]
	 Opposite-Spin Energy      =      -1.5382122415183033 [Eh]
	 Correlation Energy        =      -2.0280052243982194 [Eh]
	 Total Energy              =    -800.4161920457983115 [Eh]

	 ================> DF-SCS-MP2 Energies <==================
	-----------------------------------------------------------
	 SCS Same-Spin Scale       =       0.3333333333333333 [-]
	 SCS Opposite-Spin Scale   =       1.2000000000000000 [-]
	 SCS Same-Spin Energy      =      -0.1632643276266387 [Eh]
	 SCS Opposite-Spin Energy  =      -1.8458546898219639 [Eh]
	 SCS Correlation Energy    =      -2.0091190174486027 [Eh]
	 SCS Total Energy          =    -800.3973058388486379 [Eh]
	-----------------------------------------------------------

  Dipole Moment: [D]
     X:    -0.1150      Y:     2.6490      Z:    -2.1990     Total:     3.4447

*** Psi4 exiting successfully. Buy a developer a beer!
