                               Psi4 1.3.2 release

  ==> Input File <==

--------------------------------------------------------------------------
#psi4
#
memory 32 gb

molecule  {
0 1
  P       -0.0282125    -0.8891201     0.0474772
  O       -1.1867680     0.1204360     0.5615740
  O        1.1133490     0.0895100    -0.5478160
  O       -0.6066630    -1.5809190    -1.1923580
  O        0.4670770    -1.7625730     1.2055430
  C       -1.7907810     0.9929110    -0.4324270
  C        1.9952234     0.8533100     0.3229501
  C       -2.8068250     1.8392790     0.2947570
  C        2.8879720     1.6796440    -0.4470910
  H       -1.0045510     1.5998440    -0.8949530
  H       -2.2583930     0.3707270    -1.2026260
  H        1.3234980     1.4321860     1.0341110
  H        2.5053500     0.1039360     0.9973890
  H       -3.3001310     2.5165380    -0.4095030
  H       -3.5654280     1.2070220     0.7630240
  H       -2.3198080     2.4333430     1.0748900
  H        3.5555180     2.2520740     0.2062470
  H        3.4947160     1.0534000    -1.1072300
  H        2.3164280     2.3771700    -1.0625470
  H       -0.2391740    -2.4808040    -1.2743640
units angstrom
no_reorient  #important for SAPT in psi4, default
symmetry c1  #important for SAPT in psi4, default
}

set PROPERTIES_ORIGIN ["COM"]
properties('MP2/aug-cc-pvtz', properties = ['dipole'])
--------------------------------------------------------------------------

    Molecular point group: c1
  Charge       = 0
  Multiplicity = 1
  Basis Set: AUG-CC-PVTZ
    Blend: AUG-CC-PVTZ
  Basis Set: (AUG-CC-PVTZ AUX)
    Blend: AUG-CC-PVTZ-JKFIT

    Orbital Energies [Eh]
    ---------------------

    Doubly Occupied:

       1A    -80.106701     2A    -20.627459     3A    -20.587887
       4A    -20.584709     5A    -20.499932     6A    -11.300567
       7A    -11.299186     8A    -11.228667     9A    -11.227172
      10A     -7.621947    11A     -5.520864    12A     -5.519945
      13A     -5.518577    14A     -1.469007    15A     -1.395472
      16A     -1.370949    17A     -1.259382    18A     -1.053375
      19A     -1.034576    20A     -0.876850    21A     -0.860175
      22A     -0.823642    23A     -0.740597    24A     -0.715007
      25A     -0.685140    26A     -0.672323    27A     -0.651359
      28A     -0.624667    29A     -0.604679    30A     -0.591990
      31A     -0.570014    32A     -0.561377    33A     -0.547579
      34A     -0.538606    35A     -0.530216    36A     -0.514558
      37A     -0.502866    38A     -0.476787    39A     -0.460821
      40A     -0.445901    41A     -0.440605

  @DF-RHF Final Energy:  -798.37166132957464

   => Energetics <=

    Nuclear Repulsion Energy =            628.0193299608822599
    One-Electron Energy =               -2347.4577179785119370
    Two-Electron Energy =                 921.0667266880550414
    Total Energy =                       -798.3716613295746356
  Basis Set: (AUG-CC-PVTZ AUX)
    Blend: AUG-CC-PVTZ-RI
    Molecular point group: c1

    Geometry (in Angstrom), charge = 0, multiplicity = 1:

       Center              X                  Y                   Z               Mass
    ------------   -----------------  -----------------  -----------------  -----------------
         P           -0.025993777230    -0.887092317197     0.067799719484    30.973761998420
         O           -1.184549277230     0.122463782803     0.581896519484    15.994914619570
         O            1.115567722770     0.091537782803    -0.527493480516    15.994914619570
         O           -0.604444277230    -1.578891217197    -1.172035480516    15.994914619570
         O            0.469295722770    -1.760545217197     1.225865519484    15.994914619570
         C           -1.788562277230     0.994938782803    -0.412104480516    12.000000000000
         C            1.997442122770     0.855337782803     0.343272619484    12.000000000000
         C           -2.804606277230     1.841306782803     0.315079519484    12.000000000000
         C            2.890190722770     1.681671782803    -0.426768480516    12.000000000000
         H           -1.002332277230     1.601871782803    -0.874630480516     1.007825032230
         H           -2.256174277230     0.372754782803    -1.182303480516     1.007825032230
         H            1.325716722770     1.434213782803     1.054433519484     1.007825032230
         H            2.507568722770     0.105963782803     1.017711519484     1.007825032230
         H           -3.297912277230     2.518565782803    -0.389180480516     1.007825032230
         H           -3.563209277230     1.209049782803     0.783346519484     1.007825032230
         H           -2.317589277230     2.435370782803     1.095212519484     1.007825032230
         H            3.557736722770     2.254101782803     0.226569519484     1.007825032230
         H            3.496934722770     1.055427782803    -1.086907480516     1.007825032230
         H            2.318646722770     2.379197782803    -1.042224480516     1.007825032230
         H           -0.236955277230    -2.478776217197    -1.254041480516     1.007825032230

  Basis Set: AUG-CC-PVTZ
    Blend: AUG-CC-PVTZ
  Basis Set: (AUG-CC-PVTZ AUX)
    Blend: AUG-CC-PVTZ-JKFIT
	 Reference Energy          =    -798.3716613295746356 [Eh]
	 Singles Energy            =      -0.0000000000000000 [Eh]
	 Same-Spin Energy          =      -0.4908449687350108 [Eh]
	 Opposite-Spin Energy      =      -1.5390258689285652 [Eh]
	 Correlation Energy        =      -2.0298708376635761 [Eh]
	 Total Energy              =    -800.4015321672382015 [Eh]

	 ================> DF-SCS-MP2 Energies <==================
	-----------------------------------------------------------
	 SCS Same-Spin Scale       =       0.3333333333333333 [-]
	 SCS Opposite-Spin Scale   =       1.2000000000000000 [-]
	 SCS Same-Spin Energy      =      -0.1636149895783369 [Eh]
	 SCS Opposite-Spin Energy  =      -1.8468310427142782 [Eh]
	 SCS Correlation Energy    =      -2.0104460322926152 [Eh]
	 SCS Total Energy          =    -800.3821073618672699 [Eh]
	-----------------------------------------------------------

  Dipole Moment: [D]
     X:    -0.2069      Y:     2.4387      Z:    -3.0020     Total:     3.8732

*** Psi4 exiting successfully. Buy a developer a beer!
