                               Psi4 1.3.2 release

  ==> Input File <==

--------------------------------------------------------------------------
#psi4
#
memory 32 gb

molecule  {
0 1
  P       -0.0032580    -0.8671950     0.1253540
  O       -1.1867680     0.1204360     0.5615740
  O        1.1060231     0.0797394    -0.5732620
  O       -0.5887055    -1.5661304    -1.2082895
  O        0.4670770    -1.7625730     1.2055430
  C       -1.7907810     0.9929110    -0.4324270
  C        1.9592910     0.8227470     0.3828140
  C       -2.8068250     1.8392790     0.2947570
  C        2.8879720     1.6796440    -0.4470910
  H       -1.0045510     1.5998440    -0.8949530
  H       -2.2583930     0.3707270    -1.2026260
  H        1.3234980     1.4321860     1.0341110
  H        2.5053500     0.1039360     0.9973890
  H       -3.3001310     2.5165380    -0.4095030
  H       -3.5654280     1.2070220     0.7630240
  H       -2.3198080     2.4333430     1.0748900
  H        3.5555180     2.2520740     0.2062470
  H        3.4947160     1.0534000    -1.1072300
  H        2.3164280     2.3771700    -1.0625470
  H       -0.2391740    -2.4808040    -1.2743640
units angstrom
no_reorient  #important for SAPT in psi4, default
symmetry c1  #important for SAPT in psi4, default
}

set PROPERTIES_ORIGIN ["COM"]
properties('MP2/aug-cc-pvtz', properties = ['dipole'])
--------------------------------------------------------------------------

    Molecular point group: c1
  Charge       = 0
  Multiplicity = 1
  Basis Set: AUG-CC-PVTZ
    Blend: AUG-CC-PVTZ
  Basis Set: (AUG-CC-PVTZ AUX)
    Blend: AUG-CC-PVTZ-JKFIT

    Orbital Energies [Eh]
    ---------------------

    Doubly Occupied:

       1A    -80.102681     2A    -20.602563     3A    -20.591176
       4A    -20.589691     5A    -20.512048     6A    -11.301575
       7A    -11.300982     8A    -11.231301     9A    -11.229830
      10A     -7.618412    11A     -5.516975    12A     -5.516426
      13A     -5.515384    14A     -1.444750    15A     -1.377544
      16A     -1.370483    17A     -1.291692    18A     -1.041507
      19A     -1.034189    20A     -0.870912    21A     -0.863568
      22A     -0.811867    23A     -0.725530    24A     -0.714172
      25A     -0.680738    26A     -0.656378    27A     -0.650288
      28A     -0.615648    29A     -0.605842    30A     -0.575820
      31A     -0.564732    32A     -0.561671    33A     -0.544861
      34A     -0.537791    35A     -0.531441    36A     -0.520994
      37A     -0.504627    38A     -0.482431    39A     -0.479975
      40A     -0.466033    41A     -0.461338

  @DF-RHF Final Energy:  -798.38641889862333

   => Energetics <=

    Nuclear Repulsion Energy =            627.8174516813370474
    One-Electron Energy =               -2347.1760136124780729
    Two-Electron Energy =                 920.9721430325178062
    Total Energy =                       -798.3864188986233330
  Basis Set: (AUG-CC-PVTZ AUX)
    Blend: AUG-CC-PVTZ-RI
    Molecular point group: c1

    Geometry (in Angstrom), charge = 0, multiplicity = 1:

       Center              X                  Y                   Z               Mass
    ------------   -----------------  -----------------  -----------------  -----------------
         P           -0.004361785365    -0.867715974636     0.129650274556    30.973761998420
         O           -1.187871785365     0.119915025364     0.565870274556    15.994914619570
         O            1.104919314635     0.079218425364    -0.568965725444    15.994914619570
         O           -0.589809285365    -1.566651374636    -1.203993225444    15.994914619570
         O            0.465973214635    -1.763093974636     1.209839274556    15.994914619570
         C           -1.791884785365     0.992390025364    -0.428130725444    12.000000000000
         C            1.958187214635     0.822226025364     0.387110274556    12.000000000000
         C           -2.807928785365     1.838758025364     0.299053274556    12.000000000000
         C            2.886868214635     1.679123025364    -0.442794725444    12.000000000000
         H           -1.005654785365     1.599323025364    -0.890656725444     1.007825032230
         H           -2.259496785365     0.370206025364    -1.198329725444     1.007825032230
         H            1.322394214635     1.431665025364     1.038407274556     1.007825032230
         H            2.504246214635     0.103415025364     1.001685274556     1.007825032230
         H           -3.301234785365     2.516017025364    -0.405206725444     1.007825032230
         H           -3.566531785365     1.206501025364     0.767320274556     1.007825032230
         H           -2.320911785365     2.432822025364     1.079186274556     1.007825032230
         H            3.554414214635     2.251553025364     0.210543274556     1.007825032230
         H            3.493612214635     1.052879025364    -1.102933725444     1.007825032230
         H            2.315324214635     2.376649025364    -1.058250725444     1.007825032230
         H           -0.240277785365    -2.481324974636    -1.270067725444     1.007825032230

  Basis Set: AUG-CC-PVTZ
    Blend: AUG-CC-PVTZ
  Basis Set: (AUG-CC-PVTZ AUX)
    Blend: AUG-CC-PVTZ-JKFIT
	 Reference Energy          =    -798.3864188986233330 [Eh]
	 Singles Energy            =      -0.0000000000000000 [Eh]
	 Same-Spin Energy          =      -0.4900220033927518 [Eh]
	 Opposite-Spin Energy      =      -1.5389589468846658 [Eh]
	 Correlation Energy        =      -2.0289809502774174 [Eh]
	 Total Energy              =    -800.4153998489007336 [Eh]

	 ================> DF-SCS-MP2 Energies <==================
	-----------------------------------------------------------
	 SCS Same-Spin Scale       =       0.3333333333333333 [-]
	 SCS Opposite-Spin Scale   =       1.2000000000000000 [-]
	 SCS Same-Spin Energy      =      -0.1633406677975839 [Eh]
	 SCS Opposite-Spin Energy  =      -1.8467507362615989 [Eh]
	 SCS Correlation Energy    =      -2.0100914040591826 [Eh]
	 SCS Total Energy          =    -800.3965103026824863 [Eh]
	-----------------------------------------------------------

  Dipole Moment: [D]
     X:    -0.0367      Y:     2.6739      Z:    -2.1007     Total:     3.4006

*** Psi4 exiting successfully. Buy a developer a beer!
