                               Psi4 1.3.2 release

  ==> Input File <==

--------------------------------------------------------------------------
#psi4
#
memory 32 gb

molecule  {
0 1
  P       -0.0032580    -0.8671950     0.1253540
  O       -1.1867680     0.1204360     0.5615740
  O        1.1133490     0.0895100    -0.5478160
  O       -0.6201026    -1.5041011    -1.2250970
  O        0.4864721    -1.6996975     1.2464379
  C       -1.7907810     0.9929110    -0.4324270
  C        1.9592910     0.8227470     0.3828140
  C       -2.8068250     1.8392790     0.2947570
  C        2.8879720     1.6796440    -0.4470910
  H       -1.0045510     1.5998440    -0.8949530
  H       -2.2583930     0.3707270    -1.2026260
  H        1.3234980     1.4321860     1.0341110
  H        2.5053500     0.1039360     0.9973890
  H       -3.3001310     2.5165380    -0.4095030
  H       -3.5654280     1.2070220     0.7630240
  H       -2.3198080     2.4333430     1.0748900
  H        3.5555180     2.2520740     0.2062470
  H        3.4947160     1.0534000    -1.1072300
  H        2.3164280     2.3771700    -1.0625470
  H       -0.2391740    -2.4808040    -1.2743640
units angstrom
no_reorient  #important for SAPT in psi4, default
symmetry c1  #important for SAPT in psi4, default
}

set PROPERTIES_ORIGIN ["COM"]
properties('MP2/aug-cc-pvtz', properties = ['dipole'])
--------------------------------------------------------------------------

    Molecular point group: c1
  Charge       = 0
  Multiplicity = 1
  Basis Set: AUG-CC-PVTZ
    Blend: AUG-CC-PVTZ
  Basis Set: (AUG-CC-PVTZ AUX)
    Blend: AUG-CC-PVTZ-JKFIT

    Orbital Energies [Eh]
    ---------------------

    Doubly Occupied:

       1A    -80.103321     2A    -20.616923     3A    -20.586135
       4A    -20.586056     5A    -20.515691     6A    -11.298300
       7A    -11.295889     8A    -11.228318     9A    -11.227965
      10A     -7.619182    11A     -5.517807    12A     -5.517160
      13A     -5.516106    14A     -1.444509    15A     -1.373389
      16A     -1.370575    17A     -1.294538    18A     -1.038888
      19A     -1.031146    20A     -0.869125    21A     -0.861254
      22A     -0.803465    23A     -0.722391    24A     -0.709866
      25A     -0.679705    26A     -0.657775    27A     -0.651158
      28A     -0.616585    29A     -0.602230    30A     -0.576029
      31A     -0.566607    32A     -0.560507    33A     -0.542915
      34A     -0.537003    35A     -0.532573    36A     -0.516802
      37A     -0.501424    38A     -0.478996    39A     -0.476659
      40A     -0.468628    41A     -0.461691

  @DF-RHF Final Energy:  -798.37685776930141

   => Energetics <=

    Nuclear Repulsion Energy =            628.7680031296575862
    One-Electron Energy =               -2349.1391522463100046
    Two-Electron Energy =                 921.9942913473508952
    Total Energy =                       -798.3768577693014095
  Basis Set: (AUG-CC-PVTZ AUX)
    Blend: AUG-CC-PVTZ-RI
    Molecular point group: c1

    Geometry (in Angstrom), charge = 0, multiplicity = 1:

       Center              X                  Y                   Z               Mass
    ------------   -----------------  -----------------  -----------------  -----------------
         P           -0.003876235735    -0.881700190260     0.124506902076    30.973761998420
         O           -1.187386235735     0.105930809740     0.560726902076    15.994914619570
         O            1.112730764265     0.075004809740    -0.548663097924    15.994914619570
         O           -0.620720835735    -1.518606290260    -1.225944097924    15.994914619570
         O            0.485853864265    -1.714202690260     1.245590802076    15.994914619570
         C           -1.791399235735     0.978405809740    -0.433274097924    12.000000000000
         C            1.958672764265     0.808241809740     0.381966902076    12.000000000000
         C           -2.807443235735     1.824773809740     0.293909902076    12.000000000000
         C            2.887353764265     1.665138809740    -0.447938097924    12.000000000000
         H           -1.005169235735     1.585338809740    -0.895800097924     1.007825032230
         H           -2.259011235735     0.356221809740    -1.203473097924     1.007825032230
         H            1.322879764265     1.417680809740     1.033263902076     1.007825032230
         H            2.504731764265     0.089430809740     0.996541902076     1.007825032230
         H           -3.300749235735     2.502032809740    -0.410350097924     1.007825032230
         H           -3.566046235735     1.192516809740     0.762176902076     1.007825032230
         H           -2.320426235735     2.418837809740     1.074042902076     1.007825032230
         H            3.554899764265     2.237568809740     0.205399902076     1.007825032230
         H            3.494097764265     1.038894809740    -1.108077097924     1.007825032230
         H            2.315809764265     2.362664809740    -1.063394097924     1.007825032230
         H           -0.239792235735    -2.495309190260    -1.275211097924     1.007825032230

  Basis Set: AUG-CC-PVTZ
    Blend: AUG-CC-PVTZ
  Basis Set: (AUG-CC-PVTZ AUX)
    Blend: AUG-CC-PVTZ-JKFIT
	 Reference Energy          =    -798.3768577693014095 [Eh]
	 Singles Energy            =      -0.0000000000000000 [Eh]
	 Same-Spin Energy          =      -0.4911404016752433 [Eh]
	 Opposite-Spin Energy      =      -1.5411559193364690 [Eh]
	 Correlation Energy        =      -2.0322963210117124 [Eh]
	 Total Energy              =    -800.4091540903131090 [Eh]

	 ================> DF-SCS-MP2 Energies <==================
	-----------------------------------------------------------
	 SCS Same-Spin Scale       =       0.3333333333333333 [-]
	 SCS Opposite-Spin Scale   =       1.2000000000000000 [-]
	 SCS Same-Spin Energy      =      -0.1637134672250811 [Eh]
	 SCS Opposite-Spin Energy  =      -1.8493871032037628 [Eh]
	 SCS Correlation Energy    =      -2.0131005704288438 [Eh]
	 SCS Total Energy          =    -800.3899583397302422 [Eh]
	-----------------------------------------------------------

  Dipole Moment: [D]
     X:    -0.1063      Y:     2.1916      Z:    -2.2667     Total:     3.1548

*** Psi4 exiting successfully. Buy a developer a beer!
