                               Psi4 1.3.2 release

  ==> Input File <==

--------------------------------------------------------------------------
#psi4
#
memory 32 gb

molecule  {
0 1
  P       -0.0032580    -0.8671950     0.1253540
  O       -1.1867680     0.1204360     0.5615740
  O        1.0935644     0.1001706    -0.5648909
  O       -0.6066630    -1.5809190    -1.1923580
  O        0.4430737    -1.7717646     1.2080668
  C       -1.7907810     0.9929110    -0.4324270
  C        1.9592910     0.8227470     0.3828140
  C       -2.8068250     1.8392790     0.2947570
  C        2.8879720     1.6796440    -0.4470910
  H       -1.0045510     1.5998440    -0.8949530
  H       -2.2583930     0.3707270    -1.2026260
  H        1.3234980     1.4321860     1.0341110
  H        2.5053500     0.1039360     0.9973890
  H       -3.3001310     2.5165380    -0.4095030
  H       -3.5654280     1.2070220     0.7630240
  H       -2.3198080     2.4333430     1.0748900
  H        3.5555180     2.2520740     0.2062470
  H        3.4947160     1.0534000    -1.1072300
  H        2.3164280     2.3771700    -1.0625470
  H       -0.2391740    -2.4808040    -1.2743640
units angstrom
no_reorient  #important for SAPT in psi4, default
symmetry c1  #important for SAPT in psi4, default
}

set PROPERTIES_ORIGIN ["COM"]
properties('MP2/aug-cc-pvtz', properties = ['dipole'])
--------------------------------------------------------------------------

    Molecular point group: c1
  Charge       = 0
  Multiplicity = 1
  Basis Set: AUG-CC-PVTZ
    Blend: AUG-CC-PVTZ
  Basis Set: (AUG-CC-PVTZ AUX)
    Blend: AUG-CC-PVTZ-JKFIT

    Orbital Energies [Eh]
    ---------------------

    Doubly Occupied:

       1A    -80.103156     2A    -20.602389     3A    -20.592116
       4A    -20.589103     5A    -20.511909     6A    -11.302310
       7A    -11.299974     8A    -11.231987     9A    -11.229107
      10A     -7.618846    11A     -5.517386    12A     -5.516892
      13A     -5.515813    14A     -1.445536    15A     -1.377419
      16A     -1.373796    17A     -1.291695    18A     -1.041745
      19A     -1.034082    20A     -0.872029    21A     -0.863420
      22A     -0.812701    23A     -0.728671    24A     -0.714080
      25A     -0.681267    26A     -0.656649    27A     -0.650749
      28A     -0.617748    29A     -0.604424    30A     -0.576586
      31A     -0.564904    32A     -0.561964    33A     -0.544588
      34A     -0.538278    35A     -0.533134    36A     -0.521078
      37A     -0.504134    38A     -0.482209    39A     -0.478845
      40A     -0.465637    41A     -0.461870

  @DF-RHF Final Energy:  -798.38741259540120

   => Energetics <=

    Nuclear Repulsion Energy =            627.9218501318069912
    One-Electron Energy =               -2347.3580706610459856
    Two-Electron Energy =                 921.0488079338379066
    Total Energy =                       -798.3874125954012015
  Basis Set: (AUG-CC-PVTZ AUX)
    Blend: AUG-CC-PVTZ-RI
    Molecular point group: c1

    Geometry (in Angstrom), charge = 0, multiplicity = 1:

       Center              X                  Y                   Z               Mass
    ------------   -----------------  -----------------  -----------------  -----------------
         P            0.001288942401    -0.867347459070     0.126864716377    30.973761998420
         O           -1.182221057599     0.120283540930     0.563084716377    15.994914619570
         O            1.098111342401     0.100018140930    -0.563380183623    15.994914619570
         O           -0.602116057599    -1.581071459070    -1.190847283623    15.994914619570
         O            0.447620642401    -1.771917059070     1.209577516377    15.994914619570
         C           -1.786234057599     0.992758540930    -0.430916283623    12.000000000000
         C            1.963837942401     0.822594540930     0.384324716377    12.000000000000
         C           -2.802278057599     1.839126540930     0.296267716377    12.000000000000
         C            2.892518942401     1.679491540930    -0.445580283623    12.000000000000
         H           -1.000004057599     1.599691540930    -0.893442283623     1.007825032230
         H           -2.253846057599     0.370574540930    -1.201115283623     1.007825032230
         H            1.328044942401     1.432033540930     1.035621716377     1.007825032230
         H            2.509896942401     0.103783540930     0.998899716377     1.007825032230
         H           -3.295584057599     2.516385540930    -0.407992283623     1.007825032230
         H           -3.560881057599     1.206869540930     0.764534716377     1.007825032230
         H           -2.315261057599     2.433190540930     1.076400716377     1.007825032230
         H            3.560064942401     2.251921540930     0.207757716377     1.007825032230
         H            3.499262942401     1.053247540930    -1.105719283623     1.007825032230
         H            2.320974942401     2.377017540930    -1.061036283623     1.007825032230
         H           -0.234627057599    -2.480956459070    -1.272853283623     1.007825032230

  Basis Set: AUG-CC-PVTZ
    Blend: AUG-CC-PVTZ
  Basis Set: (AUG-CC-PVTZ AUX)
    Blend: AUG-CC-PVTZ-JKFIT
	 Reference Energy          =    -798.3874125954012015 [Eh]
	 Singles Energy            =      -0.0000000000000000 [Eh]
	 Same-Spin Energy          =      -0.4898611561265039 [Eh]
	 Opposite-Spin Energy      =      -1.5384988581472703 [Eh]
	 Correlation Energy        =      -2.0283600142737743 [Eh]
	 Total Energy              =    -800.4157726096749457 [Eh]

	 ================> DF-SCS-MP2 Energies <==================
	-----------------------------------------------------------
	 SCS Same-Spin Scale       =       0.3333333333333333 [-]
	 SCS Opposite-Spin Scale   =       1.2000000000000000 [-]
	 SCS Same-Spin Energy      =      -0.1632870520421680 [Eh]
	 SCS Opposite-Spin Energy  =      -1.8461986297767243 [Eh]
	 SCS Correlation Energy    =      -2.0094856818188922 [Eh]
	 SCS Total Energy          =    -800.3968982772200889 [Eh]
	-----------------------------------------------------------

  Dipole Moment: [D]
     X:     0.1181      Y:     2.6843      Z:    -2.1619     Total:     3.4487

*** Psi4 exiting successfully. Buy a developer a beer!
