                               Psi4 1.3.2 release

  ==> Input File <==

--------------------------------------------------------------------------
#psi4
#
memory 32 gb

molecule  {
0 1
  P       -0.0032580    -0.8671950     0.1253540
  O       -1.1721822     0.1102720     0.5434655
  O        1.1133490     0.0895100    -0.5478160
  O       -0.6066630    -1.5809190    -1.1923580
  O        0.4670770    -1.7625730     1.2055430
  C       -1.7907810     0.9929110    -0.4324270
  C        1.9592910     0.8227470     0.3828140
  C       -2.8127826     1.8512253     0.2720516
  C        2.8879720     1.6796440    -0.4470910
  H       -1.0045510     1.5998440    -0.8949530
  H       -2.2583930     0.3707270    -1.2026260
  H        1.3234980     1.4321860     1.0341110
  H        2.5053500     0.1039360     0.9973890
  H       -3.3001310     2.5165380    -0.4095030
  H       -3.5654280     1.2070220     0.7630240
  H       -2.3198080     2.4333430     1.0748900
  H        3.5555180     2.2520740     0.2062470
  H        3.4947160     1.0534000    -1.1072300
  H        2.3164280     2.3771700    -1.0625470
  H       -0.2391740    -2.4808040    -1.2743640
units angstrom
no_reorient  #important for SAPT in psi4, default
symmetry c1  #important for SAPT in psi4, default
}

set PROPERTIES_ORIGIN ["COM"]
properties('MP2/aug-cc-pvtz', properties = ['dipole'])
--------------------------------------------------------------------------

    Molecular point group: c1
  Charge       = 0
  Multiplicity = 1
  Basis Set: AUG-CC-PVTZ
    Blend: AUG-CC-PVTZ
  Basis Set: (AUG-CC-PVTZ AUX)
    Blend: AUG-CC-PVTZ-JKFIT

    Orbital Energies [Eh]
    ---------------------

    Doubly Occupied:

       1A    -80.101637     2A    -20.602841     3A    -20.591431
       4A    -20.588449     5A    -20.509969     6A    -11.303293
       7A    -11.298488     8A    -11.231727     9A    -11.229922
      10A     -7.617649    11A     -5.516245    12A     -5.515715
      13A     -5.514612    14A     -1.449349    15A     -1.380561
      16A     -1.376678    17A     -1.290347    18A     -1.043655
      19A     -1.034022    20A     -0.874740    21A     -0.865207
      22A     -0.811840    23A     -0.731323    24A     -0.716558
      25A     -0.682358    26A     -0.657276    27A     -0.650771
      28A     -0.618564    29A     -0.607900    30A     -0.576287
      31A     -0.570093    32A     -0.561915    33A     -0.547859
      34A     -0.538846    35A     -0.532691    36A     -0.519159
      37A     -0.502293    38A     -0.480830    39A     -0.478934
      40A     -0.464626    41A     -0.459477

  @DF-RHF Final Energy:  -798.38918759285571

   => Energetics <=

    Nuclear Repulsion Energy =            628.8082784282129296
    One-Electron Energy =               -2349.1026568284719360
    Two-Electron Energy =                 921.9051908074034145
    Total Energy =                       -798.3891875928557056
  Basis Set: (AUG-CC-PVTZ AUX)
    Blend: AUG-CC-PVTZ-RI
    Molecular point group: c1

    Geometry (in Angstrom), charge = 0, multiplicity = 1:

       Center              X                  Y                   Z               Mass
    ------------   -----------------  -----------------  -----------------  -----------------
         P           -0.004308265918    -0.867070171472     0.129002902480    30.973761998420
         O           -1.173232465918     0.110396828528     0.547114402480    15.994914619570
         O            1.112298734082     0.089634828528    -0.544167097520    15.994914619570
         O           -0.607713265918    -1.580794171472    -1.188709097520    15.994914619570
         O            0.466026734082    -1.762448171472     1.209191902480    15.994914619570
         C           -1.791831265918     0.993035828528    -0.428778097520    12.000000000000
         C            1.958240734082     0.822871828528     0.386462902480    12.000000000000
         C           -2.813832865918     1.851350128528     0.275700502480    12.000000000000
         C            2.886921734082     1.679768828528    -0.443442097520    12.000000000000
         H           -1.005601265918     1.599968828528    -0.891304097520     1.007825032230
         H           -2.259443265918     0.370851828528    -1.198977097520     1.007825032230
         H            1.322447734082     1.432310828528     1.037759902480     1.007825032230
         H            2.504299734082     0.104060828528     1.001037902480     1.007825032230
         H           -3.301181265918     2.516662828528    -0.405854097520     1.007825032230
         H           -3.566478265918     1.207146828528     0.766672902480     1.007825032230
         H           -2.320858265918     2.433467828528     1.078538902480     1.007825032230
         H            3.554467734082     2.252198828528     0.209895902480     1.007825032230
         H            3.493665734082     1.053524828528    -1.103581097520     1.007825032230
         H            2.315377734082     2.377294828528    -1.058898097520     1.007825032230
         H           -0.240224265918    -2.480679171472    -1.270715097520     1.007825032230

  Basis Set: AUG-CC-PVTZ
    Blend: AUG-CC-PVTZ
  Basis Set: (AUG-CC-PVTZ AUX)
    Blend: AUG-CC-PVTZ-JKFIT
	 Reference Energy          =    -798.3891875928557056 [Eh]
	 Singles Energy            =      -0.0000000000000000 [Eh]
	 Same-Spin Energy          =      -0.4893866219094236 [Eh]
	 Opposite-Spin Energy      =      -1.5371132622744565 [Eh]
	 Correlation Energy        =      -2.0264998841838802 [Eh]
	 Total Energy              =    -800.4156874770395689 [Eh]

	 ================> DF-SCS-MP2 Energies <==================
	-----------------------------------------------------------
	 SCS Same-Spin Scale       =       0.3333333333333333 [-]
	 SCS Opposite-Spin Scale   =       1.2000000000000000 [-]
	 SCS Same-Spin Energy      =      -0.1631288739698079 [Eh]
	 SCS Opposite-Spin Energy  =      -1.8445359147293479 [Eh]
	 SCS Correlation Energy    =      -2.0076647886991559 [Eh]
	 SCS Total Energy          =    -800.3968523815548224 [Eh]
	-----------------------------------------------------------

  Dipole Moment: [D]
     X:    -0.1751      Y:     2.7264      Z:    -2.1829     Total:     3.4970

*** Psi4 exiting successfully. Buy a developer a beer!
