                               Psi4 1.4a3.dev225

  ==> Input File <==

--------------------------------------------------------------------------
#psi4
#
memory 32 gb

molecule  {
0 1
  P       -0.0193980    -0.9573280    -0.1096150
  O        1.2162340    -0.0269160    -0.5415020
  O       -1.1156210     0.0613730     0.5053800
  O        0.5163150    -1.6599550     1.2462920
  O       -0.4960840    -1.8598830    -1.1802340
  C        1.8380650     0.8393470     0.4463000
  C       -1.9139900     0.7949960    -0.4653280
  C        2.8342980     1.7043970    -0.2898420
  C       -2.8451070     1.6924310     0.3153960
  H        1.0624120     1.4376840     0.9337170
  H        2.3223620     0.2121780     1.1993520
  H       -1.2444800     1.3745780    -1.1102950
  H       -2.4582310     0.0769500    -1.0841060
  H        3.3419030     2.3695990     0.4147870
  H        3.5818500     1.0824000    -0.7858930
  H        2.3288000     2.3113610    -1.0437700
  H       -3.4753290     2.2644580    -0.3716610
  H       -3.4879190     1.0956960     0.9656320
  H       -2.2756200     2.3909680     0.9321420
  H        0.1413232    -2.5784001     1.3170989
units angstrom
no_reorient  #important for SAPT in psi4, default
symmetry c1  #important for SAPT in psi4, default
}

set PROPERTIES_ORIGIN ["COM"]
properties('MP2/aug-cc-pvtz', properties = ['dipole'])
--------------------------------------------------------------------------

    Molecular point group: c1
  Charge       = 0
  Multiplicity = 1
  Basis Set: AUG-CC-PVTZ
    Blend: AUG-CC-PVTZ
  Basis Set: (AUG-CC-PVTZ AUX)
    Blend: AUG-CC-PVTZ-JKFIT

    Orbital Energies [Eh]
    ---------------------

    Doubly Occupied:

       1A    -80.104665     2A    -20.606174     3A    -20.590892
       4A    -20.590179     5A    -20.511207     6A    -11.300576
       7A    -11.298783     8A    -11.229671     9A    -11.229547
      10A     -7.620113    11A     -5.518624    12A     -5.518128
      13A     -5.517143    14A     -1.444580    15A     -1.376376
      16A     -1.375619    17A     -1.291522    18A     -1.041334
      19A     -1.033577    20A     -0.872566    21A     -0.864013
      22A     -0.810270    23A     -0.727372    24A     -0.714539
      25A     -0.682182    26A     -0.657041    27A     -0.651063
      28A     -0.617692    29A     -0.605050    30A     -0.575983
      31A     -0.565607    32A     -0.563447    33A     -0.544428
      34A     -0.539170    35A     -0.534550    36A     -0.518458
      37A     -0.503200    38A     -0.480507    39A     -0.478678
      40A     -0.465424    41A     -0.460532

  @DF-RHF Final Energy:  -798.38723401003767

   => Energetics <=

    Nuclear Repulsion Energy =            627.4693420644268826
    One-Electron Energy =               -2346.4521902976557612
    Two-Electron Energy =                 920.5956142231912054
    Total Energy =                       -798.3872340100376732
  Basis Set: (AUG-CC-PVTZ AUX)
    Blend: AUG-CC-PVTZ-RI
    Molecular point group: c1

    Geometry (in Angstrom), charge = 0, multiplicity = 1:

       Center              X                  Y                   Z               Mass
    ------------   -----------------  -----------------  -----------------  -----------------
         P           -0.020222780056    -0.873617627131    -0.100134623555    30.973761998420
         O            1.215409219944     0.056794372869    -0.532021623555    15.994914619570
         O           -1.116445780056     0.145083372869     0.514860376445    15.994914619570
         O            0.515490219944    -1.576244627131     1.255772376445    15.994914619570
         O           -0.496908780056    -1.776172627131    -1.170753623555    15.994914619570
         C            1.837240219944     0.923057372869     0.455780376445    12.000000000000
         C           -1.914814780056     0.878706372869    -0.455847623555    12.000000000000
         C            2.833473219944     1.788107372869    -0.280361623555    12.000000000000
         C           -2.845931780056     1.776141372869     0.324876376445    12.000000000000
         H            1.061587219944     1.521394372869     0.943197376445     1.007825032230
         H            2.321537219944     0.295888372869     1.208832376445     1.007825032230
         H           -1.245304780056     1.458288372869    -1.100814623555     1.007825032230
         H           -2.459055780056     0.160660372869    -1.074625623555     1.007825032230
         H            3.341078219944     2.453309372869     0.424267376445     1.007825032230
         H            3.581025219944     1.166110372869    -0.776412623555     1.007825032230
         H            2.327975219944     2.395071372869    -1.034289623555     1.007825032230
         H           -3.476153780056     2.348168372869    -0.362180623555     1.007825032230
         H           -3.488743780056     1.179406372869     0.975112376445     1.007825032230
         H           -2.276444780056     2.474678372869     0.941622376445     1.007825032230
         H            0.140498419944    -2.494689727131     1.326579276445     1.007825032230

  Basis Set: AUG-CC-PVTZ
    Blend: AUG-CC-PVTZ
  Basis Set: (AUG-CC-PVTZ AUX)
    Blend: AUG-CC-PVTZ-JKFIT
	 Reference Energy          =    -798.3872340100376732 [Eh]
	 Singles Energy            =      -0.0000000000000000 [Eh]
	 Same-Spin Energy          =      -0.4898970396101671 [Eh]
	 Opposite-Spin Energy      =      -1.5384868089380443 [Eh]
	 Correlation Energy        =      -2.0283838485482115 [Eh]
	 Total Energy              =    -800.4156178585858470 [Eh]

	 ================> DF-SCS-MP2 Energies <==================
	-----------------------------------------------------------
	 SCS Same-Spin Scale       =       0.3333333333333333 [-]
	 SCS Opposite-Spin Scale   =       1.2000000000000000 [-]
	 SCS Same-Spin Energy      =      -0.1632990132033890 [Eh]
	 SCS Opposite-Spin Energy  =      -1.8461841707256532 [Eh]
	 SCS Correlation Energy    =      -2.0094831839290421 [Eh]
	 SCS Total Energy          =    -800.3967171939667651 [Eh]
	-----------------------------------------------------------

  Dipole Moment: [D]
     X:     0.1365      Y:     2.6253      Z:     2.1123     Total:     3.3723

*** Psi4 exiting successfully. Buy a developer a beer!
