                               Psi4 1.3.2 release

  ==> Input File <==

--------------------------------------------------------------------------
#psi4
#
memory 32 gb

molecule  {
0 1
  P       -0.0032580    -0.8671950     0.1253540
  O       -1.1867680     0.1204360     0.5615740
  O        1.1332775     0.1170619    -0.4702791
  O       -0.6594112    -1.6239628    -1.1421751
  O        0.4670770    -1.7625730     1.2055430
  C       -1.7907810     0.9929110    -0.4324270
  C        1.9592910     0.8227470     0.3828140
  C       -2.8068250     1.8392790     0.2947570
  C        2.8879720     1.6796440    -0.4470910
  H       -1.0045510     1.5998440    -0.8949530
  H       -2.2583930     0.3707270    -1.2026260
  H        1.3234980     1.4321860     1.0341110
  H        2.5053500     0.1039360     0.9973890
  H       -3.3001310     2.5165380    -0.4095030
  H       -3.5654280     1.2070220     0.7630240
  H       -2.3198080     2.4333430     1.0748900
  H        3.5555180     2.2520740     0.2062470
  H        3.4947160     1.0534000    -1.1072300
  H        2.3164280     2.3771700    -1.0625470
  H       -0.2391740    -2.4808040    -1.2743640
units angstrom
no_reorient  #important for SAPT in psi4, default
symmetry c1  #important for SAPT in psi4, default
}

set PROPERTIES_ORIGIN ["COM"]
properties('MP2/aug-cc-pvtz', properties = ['dipole'])
--------------------------------------------------------------------------

    Molecular point group: c1
  Charge       = 0
  Multiplicity = 1
  Basis Set: AUG-CC-PVTZ
    Blend: AUG-CC-PVTZ
  Basis Set: (AUG-CC-PVTZ AUX)
    Blend: AUG-CC-PVTZ-JKFIT

    Orbital Energies [Eh]
    ---------------------

    Doubly Occupied:

       1A    -80.108729     2A    -20.611565     3A    -20.591459
       4A    -20.591216     5A    -20.507795     6A    -11.302559
       7A    -11.291943     8A    -11.230505     9A    -11.227759
      10A     -7.623975    11A     -5.522558    12A     -5.521957
      13A     -5.520998    14A     -1.455473    15A     -1.399483
      16A     -1.381603    17A     -1.289926    18A     -1.042538
      19A     -1.032185    20A     -0.881390    21A     -0.865203
      22A     -0.815257    23A     -0.746898    24A     -0.718231
      25A     -0.687411    26A     -0.662987    27A     -0.655037
      28A     -0.629108    29A     -0.604969    30A     -0.580374
      31A     -0.568002    32A     -0.563471    33A     -0.545817
      34A     -0.543955    35A     -0.538152    36A     -0.516971
      37A     -0.499479    38A     -0.479615    39A     -0.472749
      40A     -0.462497    41A     -0.456170

  @DF-RHF Final Energy:  -798.38742016673018

   => Energetics <=

    Nuclear Repulsion Energy =            629.0863743803158741
    One-Electron Energy =               -2349.4516527943342226
    Two-Electron Energy =                 921.9778582472881681
    Total Energy =                       -798.3874201667301804
  Basis Set: (AUG-CC-PVTZ AUX)
    Blend: AUG-CC-PVTZ-RI
    Molecular point group: c1

    Geometry (in Angstrom), charge = 0, multiplicity = 1:

       Center              X                  Y                   Z               Mass
    ------------   -----------------  -----------------  -----------------  -----------------
         P            0.000150043435    -0.865586299401     0.112091810986    30.973761998420
         O           -1.183359956565     0.122044700599     0.548311810986    15.994914619570
         O            1.136685543435     0.118670600599    -0.483541289014    15.994914619570
         O           -0.656003156565    -1.622354099401    -1.155437289014    15.994914619570
         O            0.470485043435    -1.760964299401     1.192280810986    15.994914619570
         C           -1.787372956565     0.994519700599    -0.445689189014    12.000000000000
         C            1.962699043435     0.824355700599     0.369551810986    12.000000000000
         C           -2.803416956565     1.840887700599     0.281494810986    12.000000000000
         C            2.891380043435     1.681252700599    -0.460353189014    12.000000000000
         H           -1.001142956565     1.601452700599    -0.908215189014     1.007825032230
         H           -2.254984956565     0.372335700599    -1.215888189014     1.007825032230
         H            1.326906043435     1.433794700599     1.020848810986     1.007825032230
         H            2.508758043435     0.105544700599     0.984126810986     1.007825032230
         H           -3.296722956565     2.518146700599    -0.422765189014     1.007825032230
         H           -3.562019956565     1.208630700599     0.749761810986     1.007825032230
         H           -2.316399956565     2.434951700599     1.061627810986     1.007825032230
         H            3.558926043435     2.253682700599     0.192984810986     1.007825032230
         H            3.498124043435     1.055008700599    -1.120492189014     1.007825032230
         H            2.319836043435     2.378778700599    -1.075809189014     1.007825032230
         H           -0.235765956565    -2.479195299401    -1.287626189014     1.007825032230

  Basis Set: AUG-CC-PVTZ
    Blend: AUG-CC-PVTZ
  Basis Set: (AUG-CC-PVTZ AUX)
    Blend: AUG-CC-PVTZ-JKFIT
	 Reference Energy          =    -798.3874201667301804 [Eh]
	 Singles Energy            =      -0.0000000000000000 [Eh]
	 Same-Spin Energy          =      -0.4891412939920560 [Eh]
	 Opposite-Spin Energy      =      -1.5357778575070038 [Eh]
	 Correlation Energy        =      -2.0249191514990597 [Eh]
	 Total Energy              =    -800.4123393182292148 [Eh]

	 ================> DF-SCS-MP2 Energies <==================
	-----------------------------------------------------------
	 SCS Same-Spin Scale       =       0.3333333333333333 [-]
	 SCS Opposite-Spin Scale   =       1.2000000000000000 [-]
	 SCS Same-Spin Energy      =      -0.1630470979973520 [Eh]
	 SCS Opposite-Spin Energy  =      -1.8429334290084045 [Eh]
	 SCS Correlation Energy    =      -2.0059805270057565 [Eh]
	 SCS Total Energy          =    -800.3934006937358845 [Eh]
	-----------------------------------------------------------

  Dipole Moment: [D]
     X:    -0.1690      Y:     2.5579      Z:    -2.5700     Total:     3.6299

*** Psi4 exiting successfully. Buy a developer a beer!
