                               Psi4 1.4a3.dev225

  ==> Input File <==

--------------------------------------------------------------------------
#psi4
#
memory 32 gb

molecule  {
0 1
  P       -0.0193980    -0.9573280    -0.1096150
  O        1.2162340    -0.0269160    -0.5415020
  O       -1.1494985     0.0928547     0.5243857
  O        0.5163150    -1.6599550     1.2462920
  O       -0.4960840    -1.8598830    -1.1802340
  C        1.8380650     0.8393470     0.4463000
  C       -1.9139900     0.7949960    -0.4653280
  C        2.8342980     1.7043970    -0.2898420
  C       -2.8451070     1.6924310     0.3153960
  H        1.0624120     1.4376840     0.9337170
  H        2.3223620     0.2121780     1.1993520
  H       -1.2444800     1.3745780    -1.1102950
  H       -2.4582310     0.0769500    -1.0841060
  H        3.3419030     2.3695990     0.4147870
  H        3.5818500     1.0824000    -0.7858930
  H        2.3288000     2.3113610    -1.0437700
  H       -3.4753290     2.2644580    -0.3716610
  H       -3.4879190     1.0956960     0.9656320
  H       -2.2756200     2.3909680     0.9321420
  H        0.1488640    -2.5599310     1.3156750
units angstrom
no_reorient  #important for SAPT in psi4, default
symmetry c1  #important for SAPT in psi4, default
}

set PROPERTIES_ORIGIN ["COM"]
properties('MP2/aug-cc-pvtz', properties = ['dipole'])
--------------------------------------------------------------------------

    Molecular point group: c1
  Charge       = 0
  Multiplicity = 1
  Basis Set: AUG-CC-PVTZ
    Blend: AUG-CC-PVTZ
  Basis Set: (AUG-CC-PVTZ AUX)
    Blend: AUG-CC-PVTZ-JKFIT

    Orbital Energies [Eh]
    ---------------------

    Doubly Occupied:

       1A    -80.111631     2A    -20.609128     3A    -20.595318
       4A    -20.589958     5A    -20.516622     6A    -11.302413
       7A    -11.292453     8A    -11.230816     9A    -11.225309
      10A     -7.626320    11A     -5.524852    12A     -5.524228
      13A     -5.523309    14A     -1.444630    15A     -1.382069
      16A     -1.375218    17A     -1.296333    18A     -1.041168
      19A     -1.028885    20A     -0.871553    21A     -0.862363
      22A     -0.815465    23A     -0.729315    24A     -0.714925
      25A     -0.682800    26A     -0.658209    27A     -0.653946
      28A     -0.615547    29A     -0.607548    30A     -0.577827
      31A     -0.567630    32A     -0.561417    33A     -0.545639
      34A     -0.537206    35A     -0.534789    36A     -0.517958
      37A     -0.501756    38A     -0.480985    39A     -0.476121
      40A     -0.468898    41A     -0.462424

  @DF-RHF Final Energy:  -798.38360914379075

   => Energetics <=

    Nuclear Repulsion Energy =            626.2139619418032908
    One-Electron Energy =               -2343.8251798871870051
    Two-Electron Energy =                 919.2276088015929645
    Total Energy =                       -798.3836091437907498
  Basis Set: (AUG-CC-PVTZ AUX)
    Blend: AUG-CC-PVTZ-RI
    Molecular point group: c1

    Geometry (in Angstrom), charge = 0, multiplicity = 1:

       Center              X                  Y                   Z               Mass
    ------------   -----------------  -----------------  -----------------  -----------------
         P           -0.016754397417    -0.877007411823    -0.102098791934    30.973761998420
         O            1.218877602583     0.053404588177    -0.533985791934    15.994914619570
         O           -1.146854897417     0.173175288177     0.531901908066    15.994914619570
         O            0.518958602583    -1.579634411823     1.253808208066    15.994914619570
         O           -0.493440397417    -1.779562411823    -1.172717791934    15.994914619570
         C            1.840708602583     0.919667588177     0.453816208066    12.000000000000
         C           -1.911346397417     0.875316588177    -0.457811791934    12.000000000000
         C            2.836941602583     1.784717588177    -0.282325791934    12.000000000000
         C           -2.842463397417     1.772751588177     0.322912208066    12.000000000000
         H            1.065055602583     1.518004588177     0.941233208066     1.007825032230
         H            2.325005602583     0.292498588177     1.206868208066     1.007825032230
         H           -1.241836397417     1.454898588177    -1.102778791934     1.007825032230
         H           -2.455587397417     0.157270588177    -1.076589791934     1.007825032230
         H            3.344546602583     2.449919588177     0.422303208066     1.007825032230
         H            3.584493602583     1.162720588177    -0.778376791934     1.007825032230
         H            2.331443602583     2.391681588177    -1.036253791934     1.007825032230
         H           -3.472685397417     2.344778588177    -0.364144791934     1.007825032230
         H           -3.485275397417     1.176016588177     0.973148208066     1.007825032230
         H           -2.272976397417     2.471288588177     0.939658208066     1.007825032230
         H            0.151507602583    -2.479610411823     1.323191208066     1.007825032230

  Basis Set: AUG-CC-PVTZ
    Blend: AUG-CC-PVTZ
  Basis Set: (AUG-CC-PVTZ AUX)
    Blend: AUG-CC-PVTZ-JKFIT
	 Reference Energy          =    -798.3836091437907498 [Eh]
	 Singles Energy            =      -0.0000000000000000 [Eh]
	 Same-Spin Energy          =      -0.4903977802587239 [Eh]
	 Opposite-Spin Energy      =      -1.5396620915626631 [Eh]
	 Correlation Energy        =      -2.0300598718213871 [Eh]
	 Total Energy              =    -800.4136690156121858 [Eh]

	 ================> DF-SCS-MP2 Energies <==================
	-----------------------------------------------------------
	 SCS Same-Spin Scale       =       0.3333333333333333 [-]
	 SCS Opposite-Spin Scale   =       1.2000000000000000 [-]
	 SCS Same-Spin Energy      =      -0.1634659267529080 [Eh]
	 SCS Opposite-Spin Energy  =      -1.8475945098751956 [Eh]
	 SCS Correlation Energy    =      -2.0110604366281035 [Eh]
	 SCS Total Energy          =    -800.3946695804188494 [Eh]
	-----------------------------------------------------------

  Dipole Moment: [D]
     X:     0.4453      Y:     2.4194      Z:     2.0662     Total:     3.2126

*** Psi4 exiting successfully. Buy a developer a beer!
