                               Psi4 1.3.2 release

  ==> Input File <==

--------------------------------------------------------------------------
#psi4
#
memory 32 gb

molecule  {
0 1
  P       -0.0032580    -0.8671950     0.1253540
  O       -1.2311086     0.0926994     0.4960079
  O        1.1133490     0.0895100    -0.5478160
  O       -0.6769178    -1.5348905    -1.1824035
  O        0.4670770    -1.7625730     1.2055430
  C       -1.7907810     0.9929110    -0.4324270
  C        1.9592910     0.8227470     0.3828140
  C       -2.8068250     1.8392790     0.2947570
  C        2.8879720     1.6796440    -0.4470910
  H       -1.0045510     1.5998440    -0.8949530
  H       -2.2583930     0.3707270    -1.2026260
  H        1.3234980     1.4321860     1.0341110
  H        2.5053500     0.1039360     0.9973890
  H       -3.3001310     2.5165380    -0.4095030
  H       -3.5654280     1.2070220     0.7630240
  H       -2.3198080     2.4333430     1.0748900
  H        3.5555180     2.2520740     0.2062470
  H        3.4947160     1.0534000    -1.1072300
  H        2.3164280     2.3771700    -1.0625470
  H       -0.2391740    -2.4808040    -1.2743640
units angstrom
no_reorient  #important for SAPT in psi4, default
symmetry c1  #important for SAPT in psi4, default
}

set PROPERTIES_ORIGIN ["COM"]
properties('MP2/aug-cc-pvtz', properties = ['dipole'])
--------------------------------------------------------------------------

    Molecular point group: c1
  Charge       = 0
  Multiplicity = 1
  Basis Set: AUG-CC-PVTZ
    Blend: AUG-CC-PVTZ
  Basis Set: (AUG-CC-PVTZ AUX)
    Blend: AUG-CC-PVTZ-JKFIT

    Orbital Energies [Eh]
    ---------------------

    Doubly Occupied:

       1A    -80.105904     2A    -20.609314     3A    -20.594195
       4A    -20.583921     5A    -20.518490     6A    -11.301783
       7A    -11.293106     8A    -11.232021     9A    -11.225867
      10A     -7.621510    11A     -5.520269    12A     -5.519517
      13A     -5.518365    14A     -1.448905    15A     -1.383551
      16A     -1.368982    17A     -1.297116    18A     -1.041308
      19A     -1.031868    20A     -0.874480    21A     -0.864172
      22A     -0.804112    23A     -0.729033    24A     -0.712609
      25A     -0.679711    26A     -0.658676    27A     -0.652524
      28A     -0.620837    29A     -0.605294    30A     -0.575998
      31A     -0.567052    32A     -0.563564    33A     -0.544411
      34A     -0.539843    35A     -0.533726    36A     -0.518358
      37A     -0.498458    38A     -0.481878    39A     -0.473128
      40A     -0.468003    41A     -0.465573

  @DF-RHF Final Energy:  -798.37722249237572

   => Energetics <=

    Nuclear Repulsion Energy =            628.9406412697918540
    One-Electron Energy =               -2349.3408589315286008
    Two-Electron Energy =                 922.0229951693611383
    Total Energy =                       -798.3772224923757221
  Basis Set: (AUG-CC-PVTZ AUX)
    Blend: AUG-CC-PVTZ-RI
    Molecular point group: c1

    Geometry (in Angstrom), charge = 0, multiplicity = 1:

       Center              X                  Y                   Z               Mass
    ------------   -----------------  -----------------  -----------------  -----------------
         P            0.008641341932    -0.869094289308     0.131128292989    30.973761998420
         O           -1.219209258068     0.090800110692     0.501782192989    15.994914619570
         O            1.125248341932     0.087610710692    -0.542041707011    15.994914619570
         O           -0.665018458068    -1.536789789308    -1.176629207011    15.994914619570
         O            0.478976341932    -1.764472289308     1.211317292989    15.994914619570
         C           -1.778881658068     0.991011710692    -0.426652707011    12.000000000000
         C            1.971190341932     0.820847710692     0.388588292989    12.000000000000
         C           -2.794925658068     1.837379710692     0.300531292989    12.000000000000
         C            2.899871341932     1.677744710692    -0.441316707011    12.000000000000
         H           -0.992651658068     1.597944710692    -0.889178707011     1.007825032230
         H           -2.246493658068     0.368827710692    -1.196851707011     1.007825032230
         H            1.335397341932     1.430286710692     1.039885292989     1.007825032230
         H            2.517249341932     0.102036710692     1.003163292989     1.007825032230
         H           -3.288231658068     2.514638710692    -0.403728707011     1.007825032230
         H           -3.553528658068     1.205122710692     0.768798292989     1.007825032230
         H           -2.307908658068     2.431443710692     1.080664292989     1.007825032230
         H            3.567417341932     2.250174710692     0.212021292989     1.007825032230
         H            3.506615341932     1.051500710692    -1.101455707011     1.007825032230
         H            2.328327341932     2.375270710692    -1.056772707011     1.007825032230
         H           -0.227274658068    -2.482703289308    -1.268589707011     1.007825032230

  Basis Set: AUG-CC-PVTZ
    Blend: AUG-CC-PVTZ
  Basis Set: (AUG-CC-PVTZ AUX)
    Blend: AUG-CC-PVTZ-JKFIT
	 Reference Energy          =    -798.3772224923757221 [Eh]
	 Singles Energy            =      -0.0000000000000000 [Eh]
	 Same-Spin Energy          =      -0.4908699545445599 [Eh]
	 Opposite-Spin Energy      =      -1.5400135473055547 [Eh]
	 Correlation Energy        =      -2.0308835018501146 [Eh]
	 Total Energy              =    -800.4081059942258207 [Eh]

	 ================> DF-SCS-MP2 Energies <==================
	-----------------------------------------------------------
	 SCS Same-Spin Scale       =       0.3333333333333333 [-]
	 SCS Opposite-Spin Scale   =       1.2000000000000000 [-]
	 SCS Same-Spin Energy      =      -0.1636233181815200 [Eh]
	 SCS Opposite-Spin Energy  =      -1.8480162567666656 [Eh]
	 SCS Correlation Energy    =      -2.0116395749481857 [Eh]
	 SCS Total Energy          =    -800.3888620673238847 [Eh]
	-----------------------------------------------------------

  Dipole Moment: [D]
     X:     0.3551      Y:     2.4621      Z:    -2.0548     Total:     3.2265

*** Psi4 exiting successfully. Buy a developer a beer!
