                               Psi4 1.3.2 release

  ==> Input File <==

--------------------------------------------------------------------------
#psi4
#
memory 32 gb

molecule  {
0 1
  P       -0.0099718    -0.8372104     0.0473145
  O       -1.1867680     0.1204360     0.5615740
  O        1.1133490     0.0895100    -0.5478160
  O       -0.6066630    -1.5809190    -1.1923580
  O        0.4670770    -1.7625730     1.2055430
  C       -1.7432364     0.9635888    -0.4841404
  C        1.9592910     0.8227470     0.3828140
  C       -2.8068250     1.8392790     0.2947570
  C        2.8879720     1.6796440    -0.4470910
  H       -1.0045510     1.5998440    -0.8949530
  H       -2.2583930     0.3707270    -1.2026260
  H        1.3234980     1.4321860     1.0341110
  H        2.5053500     0.1039360     0.9973890
  H       -3.3001310     2.5165380    -0.4095030
  H       -3.5654280     1.2070220     0.7630240
  H       -2.3198080     2.4333430     1.0748900
  H        3.5555180     2.2520740     0.2062470
  H        3.4947160     1.0534000    -1.1072300
  H        2.3164280     2.3771700    -1.0625470
  H       -0.2391740    -2.4808040    -1.2743640
units angstrom
no_reorient  #important for SAPT in psi4, default
symmetry c1  #important for SAPT in psi4, default
}

set PROPERTIES_ORIGIN ["COM"]
properties('MP2/aug-cc-pvtz', properties = ['dipole'])
--------------------------------------------------------------------------

    Molecular point group: c1
  Charge       = 0
  Multiplicity = 1
  Basis Set: AUG-CC-PVTZ
    Blend: AUG-CC-PVTZ
  Basis Set: (AUG-CC-PVTZ AUX)
    Blend: AUG-CC-PVTZ-JKFIT

    Orbital Energies [Eh]
    ---------------------

    Doubly Occupied:

       1A    -80.104621     2A    -20.616220     3A    -20.598094
       4A    -20.595336     5A    -20.492935     6A    -11.304670
       7A    -11.299914     8A    -11.233842     9A    -11.232559
      10A     -7.620224    11A     -5.518939    12A     -5.518359
      13A     -5.516746    14A     -1.463680    15A     -1.400129
      16A     -1.386549    17A     -1.243868    18A     -1.044898
      19A     -1.024281    20A     -0.881509    21A     -0.870900
      22A     -0.826809    23A     -0.747441    24A     -0.721151
      25A     -0.690175    26A     -0.670277    27A     -0.658225
      28A     -0.627237    29A     -0.607017    30A     -0.586391
      31A     -0.563707    32A     -0.557640    33A     -0.546723
      34A     -0.543121    35A     -0.533797    36A     -0.510271
      37A     -0.497302    38A     -0.494199    39A     -0.482478
      40A     -0.435066    41A     -0.432857

  @DF-RHF Final Energy:  -798.37240330331724

   => Energetics <=

    Nuclear Repulsion Energy =            629.2993916115386810
    One-Electron Energy =               -2349.9432746846891860
    Two-Electron Energy =                 922.2714797698331495
    Total Energy =                       -798.3724033033172418
  Basis Set: (AUG-CC-PVTZ AUX)
    Blend: AUG-CC-PVTZ-RI
    Molecular point group: c1

    Geometry (in Angstrom), charge = 0, multiplicity = 1:

       Center              X                  Y                   Z               Mass
    ------------   -----------------  -----------------  -----------------  -----------------
         P           -0.012325472749    -0.840955268480     0.067034793617    30.973761998420
         O           -1.189121672749     0.116691131520     0.581294293617    15.994914619570
         O            1.110995327251     0.085765131520    -0.528095706383    15.994914619570
         O           -0.609016672749    -1.584663868480    -1.172637706383    15.994914619570
         O            0.464723327251    -1.766317868480     1.225263293617    15.994914619570
         C           -1.745590072749     0.959843931520    -0.464420106383    12.000000000000
         C            1.956937327251     0.819002131520     0.402534293617    12.000000000000
         C           -2.809178672749     1.835534131520     0.314477293617    12.000000000000
         C            2.885618327251     1.675899131520    -0.427370706383    12.000000000000
         H           -1.006904672749     1.596099131520    -0.875232706383     1.007825032230
         H           -2.260746672749     0.366982131520    -1.182905706383     1.007825032230
         H            1.321144327251     1.428441131520     1.053831293617     1.007825032230
         H            2.502996327251     0.100191131520     1.017109293617     1.007825032230
         H           -3.302484672749     2.512793131520    -0.389782706383     1.007825032230
         H           -3.567781672749     1.203277131520     0.782744293617     1.007825032230
         H           -2.322161672749     2.429598131520     1.094610293617     1.007825032230
         H            3.553164327251     2.248329131520     0.225967293617     1.007825032230
         H            3.492362327251     1.049655131520    -1.087509706383     1.007825032230
         H            2.314074327251     2.373425131520    -1.042826706383     1.007825032230
         H           -0.241527672749    -2.484548868480    -1.254643706383     1.007825032230

  Basis Set: AUG-CC-PVTZ
    Blend: AUG-CC-PVTZ
  Basis Set: (AUG-CC-PVTZ AUX)
    Blend: AUG-CC-PVTZ-JKFIT
	 Reference Energy          =    -798.3724033033172418 [Eh]
	 Singles Energy            =      -0.0000000000000000 [Eh]
	 Same-Spin Energy          =      -0.4901649725118682 [Eh]
	 Opposite-Spin Energy      =      -1.5387223895567934 [Eh]
	 Correlation Energy        =      -2.0288873620686614 [Eh]
	 Total Energy              =    -800.4012906653858863 [Eh]

	 ================> DF-SCS-MP2 Energies <==================
	-----------------------------------------------------------
	 SCS Same-Spin Scale       =       0.3333333333333333 [-]
	 SCS Opposite-Spin Scale   =       1.2000000000000000 [-]
	 SCS Same-Spin Energy      =      -0.1633883241706227 [Eh]
	 SCS Opposite-Spin Energy  =      -1.8464668674681519 [Eh]
	 SCS Correlation Energy    =      -2.0098551916387746 [Eh]
	 SCS Total Energy          =    -800.3822584949559769 [Eh]
	-----------------------------------------------------------

  Dipole Moment: [D]
     X:     0.0177      Y:     2.9514      Z:    -2.9694     Total:     4.1867

*** Psi4 exiting successfully. Buy a developer a beer!
