                               Psi4 1.3.2 release

  ==> Input File <==

--------------------------------------------------------------------------
#psi4
#
memory 32 gb

molecule  {
0 1
  P       -0.0032580    -0.8671950     0.1253540
  O       -1.1867680     0.1204360     0.5615740
  O        1.1133490     0.0895100    -0.5478160
  O       -0.6066630    -1.5809190    -1.1923580
  O        0.4670770    -1.7625730     1.2055430
  C       -1.7907810     0.9929110    -0.4324270
  C        1.9592910     0.8227470     0.3828140
  C       -2.8068250     1.8392790     0.2947570
  C        2.8879720     1.6796440    -0.4470910
  H       -1.0045510     1.5998440    -0.8949530
  H       -2.2583930     0.3707270    -1.2026260
  H        1.2074107     1.5434614     1.1530291
  H        2.5053500     0.1039360     0.9973890
  H       -3.3001310     2.5165380    -0.4095030
  H       -3.5654280     1.2070220     0.7630240
  H       -2.3198080     2.4333430     1.0748900
  H        3.5555180     2.2520740     0.2062470
  H        3.4947160     1.0534000    -1.1072300
  H        2.3164280     2.3771700    -1.0625470
  H       -0.2391740    -2.4808040    -1.2743640
units angstrom
no_reorient  #important for SAPT in psi4, default
symmetry c1  #important for SAPT in psi4, default
}

set PROPERTIES_ORIGIN ["COM"]
properties('MP2/aug-cc-pvtz', properties = ['dipole'])
--------------------------------------------------------------------------

    Molecular point group: c1
  Charge       = 0
  Multiplicity = 1
  Basis Set: AUG-CC-PVTZ
    Blend: AUG-CC-PVTZ
  Basis Set: (AUG-CC-PVTZ AUX)
    Blend: AUG-CC-PVTZ-JKFIT

    Orbital Energies [Eh]
    ---------------------

    Doubly Occupied:

       1A    -80.104984     2A    -20.605512     3A    -20.594231
       4A    -20.590852     5A    -20.511340     6A    -11.321721
       7A    -11.301022     8A    -11.232860     9A    -11.229613
      10A     -7.620581    11A     -5.519103    12A     -5.518630
      13A     -5.517568    14A     -1.447900    15A     -1.380328
      16A     -1.378106    17A     -1.291626    18A     -1.040363
      19A     -1.031055    20A     -0.870886    21A     -0.860359
      22A     -0.806590    23A     -0.730040    24A     -0.715829
      25A     -0.677312    26A     -0.656447    27A     -0.642544
      28A     -0.620271    29A     -0.604614    30A     -0.577576
      31A     -0.565947    32A     -0.562953    33A     -0.544634
      34A     -0.539351    35A     -0.534474    36A     -0.516035
      37A     -0.504819    38A     -0.480077    39A     -0.467809
      40A     -0.463929    41A     -0.457874

  @DF-RHF Final Energy:  -798.36839907651563

   => Energetics <=

    Nuclear Repulsion Energy =            627.2941311970503193
    One-Electron Energy =               -2346.0495283653067418
    Two-Electron Energy =                 920.3869980917407929
    Total Energy =                       -798.3683990765156295
  Basis Set: (AUG-CC-PVTZ AUX)
    Blend: AUG-CC-PVTZ-RI
    Molecular point group: c1

    Geometry (in Angstrom), charge = 0, multiplicity = 1:

       Center              X                  Y                   Z               Mass
    ------------   -----------------  -----------------  -----------------  -----------------
         P           -0.002498320287    -0.867922958253     0.124575743421    30.973761998420
         O           -1.186008320287     0.119708041747     0.560795743421    15.994914619570
         O            1.114108679713     0.088782041747    -0.548594256579    15.994914619570
         O           -0.605903320287    -1.581646958253    -1.193136256579    15.994914619570
         O            0.467836679713    -1.763300958253     1.204764743421    15.994914619570
         C           -1.790021320287     0.992183041747    -0.433205256579    12.000000000000
         C            1.960050679713     0.822019041747     0.382035743421    12.000000000000
         C           -2.806065320287     1.838551041747     0.293978743421    12.000000000000
         C            2.888731679713     1.678916041747    -0.447869256579    12.000000000000
         H           -1.003791320287     1.599116041747    -0.895731256579     1.007825032230
         H           -2.257633320287     0.369999041747    -1.203404256579     1.007825032230
         H            1.208170379713     1.542733441747     1.152250843421     1.007825032230
         H            2.506109679713     0.103208041747     0.996610743421     1.007825032230
         H           -3.299371320287     2.515810041747    -0.410281256579     1.007825032230
         H           -3.564668320287     1.206294041747     0.762245743421     1.007825032230
         H           -2.319048320287     2.432615041747     1.074111743421     1.007825032230
         H            3.556277679713     2.251346041747     0.205468743421     1.007825032230
         H            3.495475679713     1.052672041747    -1.108008256579     1.007825032230
         H            2.317187679713     2.376442041747    -1.063325256579     1.007825032230
         H           -0.238414320287    -2.481531958253    -1.275142256579     1.007825032230

  Basis Set: AUG-CC-PVTZ
    Blend: AUG-CC-PVTZ
  Basis Set: (AUG-CC-PVTZ AUX)
    Blend: AUG-CC-PVTZ-JKFIT
	 Reference Energy          =    -798.3683990765156295 [Eh]
	 Singles Energy            =      -0.0000000000000000 [Eh]
	 Same-Spin Energy          =      -0.4900723724278816 [Eh]
	 Opposite-Spin Energy      =      -1.5399239705962631 [Eh]
	 Correlation Energy        =      -2.0299963430241448 [Eh]
	 Total Energy              =    -800.3983954195397246 [Eh]

	 ================> DF-SCS-MP2 Energies <==================
	-----------------------------------------------------------
	 SCS Same-Spin Scale       =       0.3333333333333333 [-]
	 SCS Opposite-Spin Scale   =       1.2000000000000000 [-]
	 SCS Same-Spin Energy      =      -0.1633574574759605 [Eh]
	 SCS Opposite-Spin Energy  =      -1.8479087647155157 [Eh]
	 SCS Correlation Energy    =      -2.0112662221914763 [Eh]
	 SCS Total Energy          =    -800.3796652987070956 [Eh]
	-----------------------------------------------------------

  Dipole Moment: [D]
     X:    -0.0181      Y:     2.5626      Z:    -2.3226     Total:     3.4586

*** Psi4 exiting successfully. Buy a developer a beer!
