                               Psi4 1.3.2 release

  ==> Input File <==

--------------------------------------------------------------------------
#psi4
#
memory 32 gb

molecule  {
0 1
  P       -0.0032580    -0.8671950     0.1253540
  O       -1.1867680     0.1204360     0.5615740
  O        1.1133490     0.0895100    -0.5478160
  O       -0.6066630    -1.5809190    -1.1923580
  O        0.4670770    -1.7625730     1.2055430
  C       -1.8323228     1.0529166    -0.5007907
  C        1.9592910     0.8227470     0.3828140
  C       -2.8068250     1.8392790     0.2947570
  C        2.8879720     1.6796440    -0.4470910
  H       -1.0045510     1.5998440    -0.8949530
  H       -2.2583930     0.3707270    -1.2026260
  H        1.3234980     1.4321860     1.0341110
  H        2.5053500     0.1039360     0.9973890
  H       -3.3001310     2.5165380    -0.4095030
  H       -3.5654280     1.2070220     0.7630240
  H       -2.3198080     2.4333430     1.0748900
  H        3.5555180     2.2520740     0.2062470
  H        3.4947160     1.0534000    -1.1072300
  H        2.3164280     2.3771700    -1.0625470
  H       -0.2391740    -2.4808040    -1.2743640
units angstrom
no_reorient  #important for SAPT in psi4, default
symmetry c1  #important for SAPT in psi4, default
}

set PROPERTIES_ORIGIN ["COM"]
properties('MP2/aug-cc-pvtz', properties = ['dipole'])
--------------------------------------------------------------------------

    Molecular point group: c1
  Charge       = 0
  Multiplicity = 1
  Basis Set: AUG-CC-PVTZ
    Blend: AUG-CC-PVTZ
  Basis Set: (AUG-CC-PVTZ AUX)
    Blend: AUG-CC-PVTZ-JKFIT

    Orbital Energies [Eh]
    ---------------------

    Doubly Occupied:

       1A    -80.096636     2A    -20.600866     3A    -20.586473
       4A    -20.578253     5A    -20.505352     6A    -11.306872
       7A    -11.296837     8A    -11.234601     9A    -11.229188
      10A     -7.612275    11A     -5.510834    12A     -5.510283
      13A     -5.509277    14A     -1.436971    15A     -1.374905
      16A     -1.353087    17A     -1.284744    18A     -1.051667
      19A     -1.034104    20A     -0.870380    21A     -0.866183
      22A     -0.807211    23A     -0.726250    24A     -0.701304
      25A     -0.679707    26A     -0.663007    27A     -0.647774
      28A     -0.615112    29A     -0.594128    30A     -0.574527
      31A     -0.565740    32A     -0.560739    33A     -0.540586
      34A     -0.537108    35A     -0.532398    36A     -0.526058
      37A     -0.504802    38A     -0.488691    39A     -0.476458
      40A     -0.459392    41A     -0.454326

  @DF-RHF Final Energy:  -798.38030599324304

   => Energetics <=

    Nuclear Repulsion Energy =            626.2364359709076780
    One-Electron Energy =               -2344.2232698266193438
    Two-Electron Energy =                 919.6065278624686243
    Total Energy =                       -798.3803059932430415
  Basis Set: (AUG-CC-PVTZ AUX)
    Blend: AUG-CC-PVTZ-RI
    Molecular point group: c1

    Geometry (in Angstrom), charge = 0, multiplicity = 1:

       Center              X                  Y                   Z               Mass
    ------------   -----------------  -----------------  -----------------  -----------------
         P           -0.000021644347    -0.871869485493     0.130679457491    30.973761998420
         O           -1.183531644347     0.115761514507     0.566899457491    15.994914619570
         O            1.116585355653     0.084835514507    -0.542490542509    15.994914619570
         O           -0.603426644347    -1.585593485493    -1.187032542509    15.994914619570
         O            0.470313355653    -1.767247485493     1.210868457491    15.994914619570
         C           -1.829086444347     1.048242114507    -0.495465242509    12.000000000000
         C            1.962527355653     0.818072514507     0.388139457491    12.000000000000
         C           -2.803588644347     1.834604514507     0.300082457491    12.000000000000
         C            2.891208355653     1.674969514507    -0.441765542509    12.000000000000
         H           -1.001314644347     1.595169514507    -0.889627542509     1.007825032230
         H           -2.255156644347     0.366052514507    -1.197300542509     1.007825032230
         H            1.326734355653     1.427511514507     1.039436457491     1.007825032230
         H            2.508586355653     0.099261514507     1.002714457491     1.007825032230
         H           -3.296894644347     2.511863514507    -0.404177542509     1.007825032230
         H           -3.562191644347     1.202347514507     0.768349457491     1.007825032230
         H           -2.316571644347     2.428668514507     1.080215457491     1.007825032230
         H            3.558754355653     2.247399514507     0.211572457491     1.007825032230
         H            3.497952355653     1.048725514507    -1.101904542509     1.007825032230
         H            2.319664355653     2.372495514507    -1.057221542509     1.007825032230
         H           -0.235937644347    -2.485478485493    -1.269038542509     1.007825032230

  Basis Set: AUG-CC-PVTZ
    Blend: AUG-CC-PVTZ
  Basis Set: (AUG-CC-PVTZ AUX)
    Blend: AUG-CC-PVTZ-JKFIT
	 Reference Energy          =    -798.3803059932430415 [Eh]
	 Singles Energy            =      -0.0000000000000000 [Eh]
	 Same-Spin Energy          =      -0.4900396920010249 [Eh]
	 Opposite-Spin Energy      =      -1.5392060403386849 [Eh]
	 Correlation Energy        =      -2.0292457323397097 [Eh]
	 Total Energy              =    -800.4095517255827872 [Eh]

	 ================> DF-SCS-MP2 Energies <==================
	-----------------------------------------------------------
	 SCS Same-Spin Scale       =       0.3333333333333333 [-]
	 SCS Opposite-Spin Scale   =       1.2000000000000000 [-]
	 SCS Same-Spin Energy      =      -0.1633465640003416 [Eh]
	 SCS Opposite-Spin Energy  =      -1.8470472484064218 [Eh]
	 SCS Correlation Energy    =      -2.0103938124067633 [Eh]
	 SCS Total Energy          =    -800.3906998056497741 [Eh]
	-----------------------------------------------------------

  Dipole Moment: [D]
     X:    -0.3860      Y:     2.9630      Z:    -2.3759     Total:     3.8175

*** Psi4 exiting successfully. Buy a developer a beer!
