                               Psi4 1.3.2 release

  ==> Input File <==

--------------------------------------------------------------------------
#psi4
#
memory 32 gb

molecule  {
0 1
  P       -0.0032580    -0.8671950     0.1253540
  O       -1.2015378     0.1308658     0.5793797
  O        1.1133490     0.0895100    -0.5478160
  O       -0.6066630    -1.5809190    -1.1923580
  O        0.4670770    -1.7625730     1.2055430
  C       -1.7907810     0.9929110    -0.4324270
  C        1.9592910     0.8227470     0.3828140
  C       -2.8005579     1.8270749     0.3172409
  C        2.8879720     1.6796440    -0.4470910
  H       -1.0045510     1.5998440    -0.8949530
  H       -2.2583930     0.3707270    -1.2026260
  H        1.3234980     1.4321860     1.0341110
  H        2.5053500     0.1039360     0.9973890
  H       -3.3001310     2.5165380    -0.4095030
  H       -3.5654280     1.2070220     0.7630240
  H       -2.3198080     2.4333430     1.0748900
  H        3.5555180     2.2520740     0.2062470
  H        3.4947160     1.0534000    -1.1072300
  H        2.3164280     2.3771700    -1.0625470
  H       -0.2391740    -2.4808040    -1.2743640
units angstrom
no_reorient  #important for SAPT in psi4, default
symmetry c1  #important for SAPT in psi4, default
}

set PROPERTIES_ORIGIN ["COM"]
properties('MP2/aug-cc-pvtz', properties = ['dipole'])
--------------------------------------------------------------------------

    Molecular point group: c1
  Charge       = 0
  Multiplicity = 1
  Basis Set: AUG-CC-PVTZ
    Blend: AUG-CC-PVTZ
  Basis Set: (AUG-CC-PVTZ AUX)
    Blend: AUG-CC-PVTZ-JKFIT

    Orbital Energies [Eh]
    ---------------------

    Doubly Occupied:

       1A    -80.106421     2A    -20.606566     3A    -20.592262
       4A    -20.590930     5A    -20.511958     6A    -11.299968
       7A    -11.299610     8A    -11.230999     9A    -11.228546
      10A     -7.621697    11A     -5.520199    12A     -5.519665
      13A     -5.518713    14A     -1.445274    15A     -1.380276
      16A     -1.375185    17A     -1.292117    18A     -1.040564
      19A     -1.032634    20A     -0.872618    21A     -0.862130
      22A     -0.814210    23A     -0.730859    24A     -0.713629
      25A     -0.682164    26A     -0.659058    27A     -0.652231
      28A     -0.619452    29A     -0.603245    30A     -0.577499
      31A     -0.564744    32A     -0.561323    33A     -0.543363
      34A     -0.537045    35A     -0.534965    36A     -0.519478
      37A     -0.505145    38A     -0.480686    39A     -0.479506
      40A     -0.465608    41A     -0.461030

  @DF-RHF Final Energy:  -798.38575754633132

   => Energetics <=

    Nuclear Repulsion Energy =            627.4378565218972881
    One-Electron Energy =               -2346.3400825719722889
    Two-Electron Energy =                 920.5164685037437948
    Total Energy =                       -798.3857575463313196
  Basis Set: (AUG-CC-PVTZ AUX)
    Blend: AUG-CC-PVTZ-RI
    Molecular point group: c1

    Geometry (in Angstrom), charge = 0, multiplicity = 1:

       Center              X                  Y                   Z               Mass
    ------------   -----------------  -----------------  -----------------  -----------------
         P           -0.002212414371    -0.867327191741     0.121753358091    30.973761998420
         O           -1.200492214371     0.130733608259     0.575779058091    15.994914619570
         O            1.114394585629     0.089377808259    -0.551416641909    15.994914619570
         O           -0.605617414371    -1.581051191741    -1.195958641909    15.994914619570
         O            0.468122585629    -1.762705191741     1.201942358091    15.994914619570
         C           -1.789735414371     0.992778808259    -0.436027641909    12.000000000000
         C            1.960336585629     0.822614808259     0.379213358091    12.000000000000
         C           -2.799512314371     1.826942708259     0.313640258091    12.000000000000
         C            2.889017585629     1.679511808259    -0.450691641909    12.000000000000
         H           -1.003505414371     1.599711808259    -0.898553641909     1.007825032230
         H           -2.257347414371     0.370594808259    -1.206226641909     1.007825032230
         H            1.324543585629     1.432053808259     1.030510358091     1.007825032230
         H            2.506395585629     0.103803808259     0.993788358091     1.007825032230
         H           -3.299085414371     2.516405808259    -0.413103641909     1.007825032230
         H           -3.564382414371     1.206889808259     0.759423358091     1.007825032230
         H           -2.318762414371     2.433210808259     1.071289358091     1.007825032230
         H            3.556563585629     2.251941808259     0.202646358091     1.007825032230
         H            3.495761585629     1.053267808259    -1.110830641909     1.007825032230
         H            2.317473585629     2.377037808259    -1.066147641909     1.007825032230
         H           -0.238128414371    -2.480936191741    -1.277964641909     1.007825032230

  Basis Set: AUG-CC-PVTZ
    Blend: AUG-CC-PVTZ
  Basis Set: (AUG-CC-PVTZ AUX)
    Blend: AUG-CC-PVTZ-JKFIT
	 Reference Energy          =    -798.3857575463313196 [Eh]
	 Singles Energy            =      -0.0000000000000000 [Eh]
	 Same-Spin Energy          =      -0.4900735928254416 [Eh]
	 Opposite-Spin Energy      =      -1.5389344390803836 [Eh]
	 Correlation Energy        =      -2.0290080319058252 [Eh]
	 Total Energy              =    -800.4147655782371658 [Eh]

	 ================> DF-SCS-MP2 Energies <==================
	-----------------------------------------------------------
	 SCS Same-Spin Scale       =       0.3333333333333333 [-]
	 SCS Opposite-Spin Scale   =       1.2000000000000000 [-]
	 SCS Same-Spin Energy      =      -0.1633578642751472 [Eh]
	 SCS Opposite-Spin Energy  =      -1.8467213268964602 [Eh]
	 SCS Correlation Energy    =      -2.0100791911716072 [Eh]
	 SCS Total Energy          =    -800.3958367375029184 [Eh]
	-----------------------------------------------------------

  Dipole Moment: [D]
     X:     0.0500      Y:     2.5705      Z:    -2.2401     Total:     3.4099

*** Psi4 exiting successfully. Buy a developer a beer!
