                               Psi4 1.3.2 release

  ==> Input File <==

--------------------------------------------------------------------------
#psi4
#
memory 32 gb

molecule  {
0 1
  P       -0.0032580    -0.8671950     0.1253540
  O       -1.1867680     0.1204360     0.5615740
  O        1.1133490     0.0895100    -0.5478160
  O       -0.6066630    -1.5809190    -1.1923580
  O        0.4670770    -1.7625730     1.2055430
  C       -1.7907810     0.9929110    -0.4324270
  C        1.9592910     0.8227470     0.3828140
  C       -2.8068250     1.8392790     0.2947570
  C        2.8879720     1.6796440    -0.4470910
  H       -1.0045510     1.5998440    -0.8949530
  H       -2.2583930     0.3707270    -1.2026260
  H        1.3234980     1.4321860     1.0341110
  H        2.5053500     0.1039360     0.9973890
  H       -3.3001310     2.5165380    -0.4095030
  H       -3.5654280     1.2070220     0.7630240
  H       -2.3198080     2.4333430     1.0748900
  H        3.5555180     2.2520740     0.2062470
  H        3.4947160     1.0534000    -1.1072300
  H        2.3164280     2.3771700    -1.0625470
  H       -0.2391740    -2.4808040    -1.2743640
units angstrom
no_reorient  #important for SAPT in psi4, default
symmetry c1  #important for SAPT in psi4, default
}

set PROPERTIES_ORIGIN ["COM"]
properties('MP2/aug-cc-pvtz', properties = ['dipole'])
--------------------------------------------------------------------------

    Molecular point group: c1
  Charge       = 0
  Multiplicity = 1
  Basis Set: AUG-CC-PVTZ
    Blend: AUG-CC-PVTZ
  Basis Set: (AUG-CC-PVTZ AUX)
    Blend: AUG-CC-PVTZ-JKFIT

    Orbital Energies [Eh]
    ---------------------

    Doubly Occupied:

       1A    -80.104074     2A    -20.604720     3A    -20.591148
       4A    -20.590365     5A    -20.510964     6A    -11.301350
       7A    -11.299225     8A    -11.230458     9A    -11.229983
      10A     -7.619695    11A     -5.518233    12A     -5.517722
      13A     -5.516688    14A     -1.447017    15A     -1.379411
      16A     -1.377080    17A     -1.291229    18A     -1.041678
      19A     -1.033694    20A     -0.873051    21A     -0.864013
      22A     -0.813031    23A     -0.730993    24A     -0.715144
      25A     -0.682254    26A     -0.658087    27A     -0.651457
      28A     -0.618851    29A     -0.605530    30A     -0.576722
      31A     -0.565511    32A     -0.562244    33A     -0.544865
      34A     -0.539290    35A     -0.534254    36A     -0.519702
      37A     -0.503759    38A     -0.480867    39A     -0.479332
      40A     -0.465221    41A     -0.460327

  @DF-RHF Final Energy:  -798.38875455522839

   => Energetics <=

    Nuclear Repulsion Energy =            628.1137634680416113
    One-Electron Energy =               -2347.7065538730685148
    Two-Electron Energy =                 921.2040358497984016
    Total Energy =                       -798.3887545552283882
  Basis Set: (AUG-CC-PVTZ AUX)
    Blend: AUG-CC-PVTZ-RI
    Molecular point group: c1

    Geometry (in Angstrom), charge = 0, multiplicity = 1:

       Center              X                  Y                   Z               Mass
    ------------   -----------------  -----------------  -----------------  -----------------
         P           -0.003257837749    -0.867194923323     0.125353781789    30.973761998420
         O           -1.186767837749     0.120436076677     0.561573781789    15.994914619570
         O            1.113349162251     0.089510076677    -0.547816218211    15.994914619570
         O           -0.606662837749    -1.580918923323    -1.192358218211    15.994914619570
         O            0.467077162251    -1.762572923323     1.205542781789    15.994914619570
         C           -1.790780837749     0.992911076677    -0.432427218211    12.000000000000
         C            1.959291162251     0.822747076677     0.382813781789    12.000000000000
         C           -2.806824837749     1.839279076677     0.294756781789    12.000000000000
         C            2.887972162251     1.679644076677    -0.447091218211    12.000000000000
         H           -1.004550837749     1.599844076677    -0.894953218211     1.007825032230
         H           -2.258392837749     0.370727076677    -1.202626218211     1.007825032230
         H            1.323498162251     1.432186076677     1.034110781789     1.007825032230
         H            2.505350162251     0.103936076677     0.997388781789     1.007825032230
         H           -3.300130837749     2.516538076677    -0.409503218211     1.007825032230
         H           -3.565427837749     1.207022076677     0.763023781789     1.007825032230
         H           -2.319807837749     2.433343076677     1.074889781789     1.007825032230
         H            3.555518162251     2.252074076677     0.206246781789     1.007825032230
         H            3.494716162251     1.053400076677    -1.107230218211     1.007825032230
         H            2.316428162251     2.377170076677    -1.062547218211     1.007825032230
         H           -0.239173837749    -2.480803923323    -1.274364218211     1.007825032230

  Basis Set: AUG-CC-PVTZ
    Blend: AUG-CC-PVTZ
  Basis Set: (AUG-CC-PVTZ AUX)
    Blend: AUG-CC-PVTZ-JKFIT
	 Reference Energy          =    -798.3887545552283882 [Eh]
	 Singles Energy            =      -0.0000000000000000 [Eh]
	 Same-Spin Energy          =      -0.4897027589319420 [Eh]
	 Opposite-Spin Energy      =      -1.5379560119765250 [Eh]
	 Correlation Energy        =      -2.0276587709084670 [Eh]
	 Total Energy              =    -800.4164133261368761 [Eh]

	 ================> DF-SCS-MP2 Energies <==================
	-----------------------------------------------------------
	 SCS Same-Spin Scale       =       0.3333333333333333 [-]
	 SCS Opposite-Spin Scale   =       1.2000000000000000 [-]
	 SCS Same-Spin Energy      =      -0.1632342529773140 [Eh]
	 SCS Opposite-Spin Energy  =      -1.8455472143718299 [Eh]
	 SCS Correlation Energy    =      -2.0087814673491438 [Eh]
	 SCS Total Energy          =    -800.3975360225775830 [Eh]
	-----------------------------------------------------------

  Dipole Moment: [D]
     X:    -0.0631      Y:     2.6493      Z:    -2.2127     Total:     3.4524

*** Psi4 exiting successfully. Buy a developer a beer!
