                               Psi4 1.3.2 release

  ==> Input File <==

--------------------------------------------------------------------------
#psi4
#
memory 32 gb

molecule  {
0 1
  P       -0.0032580    -0.8671950     0.1253540
  O       -1.1867680     0.1204360     0.5615740
  O        1.1133490     0.0895100    -0.5478160
  O       -0.6018137    -1.6061005    -1.1806377
  O        0.4603228    -1.7829944     1.1912477
  C       -1.7907810     0.9929110    -0.4324270
  C        1.9592910     0.8227470     0.3828140
  C       -2.8068250     1.8392790     0.2947570
  C        2.8879720     1.6796440    -0.4470910
  H       -1.0045510     1.5998440    -0.8949530
  H       -2.2583930     0.3707270    -1.2026260
  H        1.3234980     1.4321860     1.0341110
  H        2.5053500     0.1039360     0.9973890
  H       -3.3001310     2.5165380    -0.4095030
  H       -3.5654280     1.2070220     0.7630240
  H       -2.3198080     2.4333430     1.0748900
  H        3.5555180     2.2520740     0.2062470
  H        3.4947160     1.0534000    -1.1072300
  H        2.3164280     2.3771700    -1.0625470
  H       -0.2391740    -2.4808040    -1.2743640
units angstrom
no_reorient  #important for SAPT in psi4, default
symmetry c1  #important for SAPT in psi4, default
}

set PROPERTIES_ORIGIN ["COM"]
properties('MP2/aug-cc-pvtz', properties = ['dipole'])
--------------------------------------------------------------------------

    Molecular point group: c1
  Charge       = 0
  Multiplicity = 1
  Basis Set: AUG-CC-PVTZ
    Blend: AUG-CC-PVTZ
  Basis Set: (AUG-CC-PVTZ AUX)
    Blend: AUG-CC-PVTZ-JKFIT

    Orbital Energies [Eh]
    ---------------------

    Doubly Occupied:

       1A    -80.104443     2A    -20.600229     3A    -20.592869
       4A    -20.591775     5A    -20.509283     6A    -11.302373
       7A    -11.300329     8A    -11.231169     9A    -11.230664
      10A     -7.619969    11A     -5.518492    12A     -5.518014
      13A     -5.516967    14A     -1.448020    15A     -1.382555
      16A     -1.378334    17A     -1.290032    18A     -1.042622
      19A     -1.034548    20A     -0.874557    21A     -0.864934
      22A     -0.816571    23A     -0.734407    24A     -0.716331
      25A     -0.683114    26A     -0.658803    27A     -0.650604
      28A     -0.619602    29A     -0.606516    30A     -0.576870
      31A     -0.565358    32A     -0.562650    33A     -0.545404
      34A     -0.539980    35A     -0.534726    36A     -0.520630
      37A     -0.504515    38A     -0.481700    39A     -0.480294
      40A     -0.463615    41A     -0.459593

  @DF-RHF Final Energy:  -798.38983736480975

   => Energetics <=

    Nuclear Repulsion Energy =            627.9357318521838351
    One-Electron Energy =               -2347.3042205421679682
    Two-Electron Energy =                 920.9786513251743827
    Total Energy =                       -798.3898373648097504
  Basis Set: (AUG-CC-PVTZ AUX)
    Blend: AUG-CC-PVTZ-RI
    Molecular point group: c1

    Geometry (in Angstrom), charge = 0, multiplicity = 1:

       Center              X                  Y                   Z               Mass
    ------------   -----------------  -----------------  -----------------  -----------------
         P           -0.003060039692    -0.862459680014     0.125621160652    30.973761998420
         O           -1.186570039692     0.125171319986     0.561841160652    15.994914619570
         O            1.113546960308     0.094245319986    -0.547548839348    15.994914619570
         O           -0.601615739692    -1.601365180014    -1.180370539348    15.994914619570
         O            0.460520760308    -1.778259080014     1.191514860652    15.994914619570
         C           -1.790583039692     0.997646319986    -0.432159839348    12.000000000000
         C            1.959488960308     0.827482319986     0.383081160652    12.000000000000
         C           -2.806627039692     1.844014319986     0.295024160652    12.000000000000
         C            2.888169960308     1.684379319986    -0.446823839348    12.000000000000
         H           -1.004353039692     1.604579319986    -0.894685839348     1.007825032230
         H           -2.258195039692     0.375462319986    -1.202358839348     1.007825032230
         H            1.323695960308     1.436921319986     1.034378160652     1.007825032230
         H            2.505547960308     0.108671319986     0.997656160652     1.007825032230
         H           -3.299933039692     2.521273319986    -0.409235839348     1.007825032230
         H           -3.565230039692     1.211757319986     0.763291160652     1.007825032230
         H           -2.319610039692     2.438078319986     1.075157160652     1.007825032230
         H            3.555715960308     2.256809319986     0.206514160652     1.007825032230
         H            3.494913960308     1.058135319986    -1.106962839348     1.007825032230
         H            2.316625960308     2.381905319986    -1.062279839348     1.007825032230
         H           -0.238976039692    -2.476068680014    -1.274096839348     1.007825032230

  Basis Set: AUG-CC-PVTZ
    Blend: AUG-CC-PVTZ
  Basis Set: (AUG-CC-PVTZ AUX)
    Blend: AUG-CC-PVTZ-JKFIT
	 Reference Energy          =    -798.3898373648097504 [Eh]
	 Singles Energy            =      -0.0000000000000000 [Eh]
	 Same-Spin Energy          =      -0.4892831921139837 [Eh]
	 Opposite-Spin Energy      =      -1.5370455055280516 [Eh]
	 Correlation Energy        =      -2.0263286976420352 [Eh]
	 Total Energy              =    -800.4161660624517936 [Eh]

	 ================> DF-SCS-MP2 Energies <==================
	-----------------------------------------------------------
	 SCS Same-Spin Scale       =       0.3333333333333333 [-]
	 SCS Opposite-Spin Scale   =       1.2000000000000000 [-]
	 SCS Same-Spin Energy      =      -0.1630943973713279 [Eh]
	 SCS Opposite-Spin Energy  =      -1.8444546066336618 [Eh]
	 SCS Correlation Energy    =      -2.0075490040049897 [Eh]
	 SCS Total Energy          =    -800.3973863688147503 [Eh]
	-----------------------------------------------------------

  Dipole Moment: [D]
     X:    -0.0486      Y:     2.8048      Z:    -2.1933     Total:     3.5609

*** Psi4 exiting successfully. Buy a developer a beer!
