                               Psi4 1.3.2 release

  ==> Input File <==

--------------------------------------------------------------------------
#psi4
#
memory 32 gb

molecule  {
0 1
  P       -0.0032580    -0.8671950     0.1253540
  O       -1.1867680     0.1204360     0.5615740
  O        1.1133490     0.0895100    -0.5478160
  O       -0.6066630    -1.5809190    -1.1923580
  O        0.4670770    -1.7625730     1.2055430
  C       -1.7907810     0.9929110    -0.4324270
  C        1.9592910     0.8227470     0.3828140
  C       -2.8068250     1.8392790     0.2947570
  C        2.8879720     1.6796440    -0.4470910
  H       -0.8610329     1.7106333    -0.9793823
  H       -2.2583930     0.3707270    -1.2026260
  H        1.3234980     1.4321860     1.0341110
  H        2.5053500     0.1039360     0.9973890
  H       -3.3001310     2.5165380    -0.4095030
  H       -3.5654280     1.2070220     0.7630240
  H       -2.3198080     2.4333430     1.0748900
  H        3.5555180     2.2520740     0.2062470
  H        3.4947160     1.0534000    -1.1072300
  H        2.3164280     2.3771700    -1.0625470
  H       -0.2391740    -2.4808040    -1.2743640
units angstrom
no_reorient  #important for SAPT in psi4, default
symmetry c1  #important for SAPT in psi4, default
}

set PROPERTIES_ORIGIN ["COM"]
properties('MP2/aug-cc-pvtz', properties = ['dipole'])
--------------------------------------------------------------------------

    Molecular point group: c1
  Charge       = 0
  Multiplicity = 1
  Basis Set: AUG-CC-PVTZ
    Blend: AUG-CC-PVTZ
  Basis Set: (AUG-CC-PVTZ AUX)
    Blend: AUG-CC-PVTZ-JKFIT

    Orbital Energies [Eh]
    ---------------------

    Doubly Occupied:

       1A    -80.105027     2A    -20.605220     3A    -20.594998
       4A    -20.589828     5A    -20.511777     6A    -11.323269
       7A    -11.298804     8A    -11.232118     9A    -11.230051
      10A     -7.620633    11A     -5.519178    12A     -5.518662
      13A     -5.517619    14A     -1.447852    15A     -1.380538
      16A     -1.377539    17A     -1.291958    18A     -1.039656
      19A     -1.031467    20A     -0.872418    21A     -0.856824
      22A     -0.810366    23A     -0.729007    24A     -0.710852
      25A     -0.682442    26A     -0.653084    27A     -0.643769
      28A     -0.618664    29A     -0.607153    30A     -0.576814
      31A     -0.566169    32A     -0.562764    33A     -0.545691
      34A     -0.538059    35A     -0.534291    36A     -0.515795
      37A     -0.504165    38A     -0.480370    39A     -0.467405
      40A     -0.462196    41A     -0.460126

  @DF-RHF Final Energy:  -798.36769240243052

   => Energetics <=

    Nuclear Repulsion Energy =            627.3274409272943331
    One-Electron Energy =               -2346.1210291673532993
    Two-Electron Energy =                 920.4258958376283317
    Total Energy =                       -798.3676924024305208
  Basis Set: (AUG-CC-PVTZ AUX)
    Blend: AUG-CC-PVTZ-RI
    Molecular point group: c1

    Geometry (in Angstrom), charge = 0, multiplicity = 1:

       Center              X                  Y                   Z               Mass
    ------------   -----------------  -----------------  -----------------  -----------------
         P           -0.004196825071    -0.867919777875     0.125906172341    30.973761998420
         O           -1.187706825071     0.119711222125     0.562126172341    15.994914619570
         O            1.112410174929     0.088785222125    -0.547263827659    15.994914619570
         O           -0.607601825071    -1.581643777875    -1.191805827659    15.994914619570
         O            0.466138174929    -1.763297777875     1.206095172341    15.994914619570
         C           -1.791719825071     0.992186222125    -0.431874827659    12.000000000000
         C            1.958352174929     0.822022222125     0.383366172341    12.000000000000
         C           -2.807763825071     1.838554222125     0.295309172341    12.000000000000
         C            2.887033174929     1.678919222125    -0.446538827659    12.000000000000
         H           -0.861971725071     1.709908522125    -0.978830127659     1.007825032230
         H           -2.259331825071     0.370002222125    -1.202073827659     1.007825032230
         H            1.322559174929     1.431461222125     1.034663172341     1.007825032230
         H            2.504411174929     0.103211222125     0.997941172341     1.007825032230
         H           -3.301069825071     2.515813222125    -0.408950827659     1.007825032230
         H           -3.566366825071     1.206297222125     0.763576172341     1.007825032230
         H           -2.320746825071     2.432618222125     1.075442172341     1.007825032230
         H            3.554579174929     2.251349222125     0.206799172341     1.007825032230
         H            3.493777174929     1.052675222125    -1.106677827659     1.007825032230
         H            2.315489174929     2.376445222125    -1.061994827659     1.007825032230
         H           -0.240112825071    -2.481528777875    -1.273811827659     1.007825032230

  Basis Set: AUG-CC-PVTZ
    Blend: AUG-CC-PVTZ
  Basis Set: (AUG-CC-PVTZ AUX)
    Blend: AUG-CC-PVTZ-JKFIT
	 Reference Energy          =    -798.3676924024305208 [Eh]
	 Singles Energy            =      -0.0000000000000000 [Eh]
	 Same-Spin Energy          =      -0.4901937834784867 [Eh]
	 Opposite-Spin Energy      =      -1.5400961294207287 [Eh]
	 Correlation Energy        =      -2.0302899128992156 [Eh]
	 Total Energy              =    -800.3979823153297275 [Eh]

	 ================> DF-SCS-MP2 Energies <==================
	-----------------------------------------------------------
	 SCS Same-Spin Scale       =       0.3333333333333333 [-]
	 SCS Opposite-Spin Scale   =       1.2000000000000000 [-]
	 SCS Same-Spin Energy      =      -0.1633979278261622 [Eh]
	 SCS Opposite-Spin Energy  =      -1.8481153553048744 [Eh]
	 SCS Correlation Energy    =      -2.0115132831310367 [Eh]
	 SCS Total Energy          =    -800.3792056855616011 [Eh]
	-----------------------------------------------------------

  Dipole Moment: [D]
     X:    -0.1172      Y:     2.5526      Z:    -2.1252     Total:     3.3236

*** Psi4 exiting successfully. Buy a developer a beer!
