                               Psi4 1.3.2 release

  ==> Input File <==

--------------------------------------------------------------------------
#psi4
#
memory 32 gb

molecule  {
0 1
  N       -0.7282392     2.0994570    -0.4869765
  C       -0.6634250    -0.2127650     0.0691530
  C        0.8157840    -0.1537790     0.0420590
  C       -1.4510140     0.9181800    -0.2423400
  C       -1.3025160    -1.4250040     0.3687340
  C        1.5441380    -1.0912920    -0.7082460
  C        1.5175140     0.8066950     0.7907500
  C       -2.8485400     0.8086890    -0.1980070
  C       -2.6918610    -1.5288690     0.3976690
  C       -3.4646370    -0.4031430     0.1053440
  C        2.9393010    -1.0716050    -0.7093040
  C        2.9130560     0.8267600     0.7846130
  C        3.6278980    -0.1122400     0.0369440
  H       -0.6848640    -2.2871190     0.6142040
  H        1.0058700    -1.8278860    -1.3015600
  H        0.9614050     1.5295600     1.3833290
  H       -3.4548610     1.6831510    -0.4309120
  H       -3.1654310    -2.4765660     0.6404150
  H       -4.5504850    -0.4615560     0.1267090
  H        3.4898150    -1.8022040    -1.2977600
  H        3.4438080     1.5707970     1.3744420
  H        4.7151610    -0.0954640     0.0345500
  H        0.0736060     2.0855870    -0.9073830
  H       -1.4416920     2.7564150    -1.0941350
units angstrom
no_reorient  #important for SAPT in psi4, default
symmetry c1  #important for SAPT in psi4, default
}

set PROPERTIES_ORIGIN ["COM"]
properties('MP2/aug-cc-pvtz', properties = ['dipole'])
--------------------------------------------------------------------------

    Molecular point group: c1
  Charge       = 0
  Multiplicity = 1
  Basis Set: AUG-CC-PVTZ
    Blend: AUG-CC-PVTZ
  Basis Set: (AUG-CC-PVTZ AUX)
    Blend: AUG-CC-PVTZ-JKFIT

    Orbital Energies [Eh]
    ---------------------

    Doubly Occupied:

       1A    -15.565747     2A    -11.282123     3A    -11.245496
       4A    -11.238737     5A    -11.238238     6A    -11.237697
       7A    -11.236358     8A    -11.235982     9A    -11.235769
      10A    -11.234248    11A    -11.233903    12A    -11.231058
      13A    -11.224007    14A     -1.229715    15A     -1.154797
      16A     -1.127531    17A     -1.050896    18A     -1.014162
      19A     -0.996907    20A     -0.975672    21A     -0.853539
      22A     -0.833834    23A     -0.812742    24A     -0.792310
      25A     -0.720314    26A     -0.697628    27A     -0.670132
      28A     -0.656300    29A     -0.628278    30A     -0.619331
      31A     -0.600877    32A     -0.586416    33A     -0.582288
      34A     -0.568757    35A     -0.537649    36A     -0.525388
      37A     -0.503266    38A     -0.500652    39A     -0.487764
      40A     -0.479282    41A     -0.449911    42A     -0.360102
      43A     -0.337695    44A     -0.319915    45A     -0.289930

  @DF-RHF Final Energy:  -515.42153044693498

   => Energetics <=

    Nuclear Repulsion Energy =            710.5647871992779301
    One-Electron Energy =               -2107.1659485086074710
    Two-Electron Energy =                 881.1796308623946743
    Total Energy =                       -515.4215304469349803
  Basis Set: (AUG-CC-PVTZ AUX)
    Blend: AUG-CC-PVTZ-RI
    Molecular point group: c1

    Geometry (in Angstrom), charge = 0, multiplicity = 1:

       Center              X                  Y                   Z               Mass
    ------------   -----------------  -----------------  -----------------  -----------------
         N           -0.736673748316     2.108810820746    -0.493863070596    14.003074004430
         C           -0.671859548316    -0.203411179254     0.062266429404    12.000000000000
         C            0.807349451684    -0.144425179254     0.035172429404    12.000000000000
         C           -1.459448548316     0.927533820746    -0.249226570596    12.000000000000
         C           -1.310950548316    -1.415650179254     0.361847429404    12.000000000000
         C            1.535703451684    -1.081938179254    -0.715132570596    12.000000000000
         C            1.509079451684     0.816048820746     0.783863429404    12.000000000000
         C           -2.856974548316     0.818042820746    -0.204893570596    12.000000000000
         C           -2.700295548316    -1.519515179254     0.390782429404    12.000000000000
         C           -3.473071548316    -0.393789179254     0.098457429404    12.000000000000
         C            2.930866451684    -1.062251179254    -0.716190570596    12.000000000000
         C            2.904621451684     0.836113820746     0.777726429404    12.000000000000
         C            3.619463451684    -0.102886179254     0.030057429404    12.000000000000
         H           -0.693298548316    -2.277765179254     0.607317429404     1.007825032230
         H            0.997435451684    -1.818532179254    -1.308446570596     1.007825032230
         H            0.952970451684     1.538913820746     1.376442429404     1.007825032230
         H           -3.463295548316     1.692504820746    -0.437798570596     1.007825032230
         H           -3.173865548316    -2.467212179254     0.633528429404     1.007825032230
         H           -4.558919548316    -0.452202179254     0.119822429404     1.007825032230
         H            3.481380451684    -1.792850179254    -1.304646570596     1.007825032230
         H            3.435373451684     1.580150820746     1.367555429404     1.007825032230
         H            4.706726451684    -0.086110179254     0.027663429404     1.007825032230
         H            0.065171451684     2.094940820746    -0.914269570596     1.007825032230
         H           -1.450126548316     2.765768820746    -1.101021570596     1.007825032230

  Basis Set: AUG-CC-PVTZ
    Blend: AUG-CC-PVTZ
  Basis Set: (AUG-CC-PVTZ AUX)
    Blend: AUG-CC-PVTZ-JKFIT
	 Reference Energy          =    -515.4215304469349803 [Eh]
	 Singles Energy            =      -0.0000000000000000 [Eh]
	 Same-Spin Energy          =      -0.5836261299678623 [Eh]
	 Opposite-Spin Energy      =      -1.8032129489821136 [Eh]
	 Correlation Energy        =      -2.3868390789499760 [Eh]
	 Total Energy              =    -517.8083695258849275 [Eh]

	 ================> DF-SCS-MP2 Energies <==================
	-----------------------------------------------------------
	 SCS Same-Spin Scale       =       0.3333333333333333 [-]
	 SCS Opposite-Spin Scale   =       1.2000000000000000 [-]
	 SCS Same-Spin Energy      =      -0.1945420433226208 [Eh]
	 SCS Opposite-Spin Energy  =      -2.1638555387785363 [Eh]
	 SCS Correlation Energy    =      -2.3583975821011571 [Eh]
	 SCS Total Energy          =    -517.7799280290361139 [Eh]
	-----------------------------------------------------------

  Dipole Moment: [D]
     X:     0.2826      Y:     0.5744      Z:    -1.1240     Total:     1.2935

*** Psi4 exiting successfully. Buy a developer a beer!
