                               Psi4 1.4a3.dev225

  ==> Input File <==

--------------------------------------------------------------------------
#psi4
#
memory 32 gb

molecule  {
0 1
  N       -0.8580750     2.1650740    -0.5094440
  C       -0.6634250    -0.2127650     0.0691530
  C        0.8157840    -0.1537790     0.0420590
  C       -1.4720956     0.8738474    -0.2328433
  C       -1.3025160    -1.4250040     0.3687340
  C        1.5441380    -1.0912920    -0.7082460
  C        1.5175140     0.8066950     0.7907500
  C       -2.8485400     0.8086890    -0.1980070
  C       -2.6918610    -1.5288690     0.3976690
  C       -3.4646370    -0.4031430     0.1053440
  C        2.9393010    -1.0716050    -0.7093040
  C        2.9130560     0.8267600     0.7846130
  C        3.6278980    -0.1122400     0.0369440
  H       -0.6848640    -2.2871190     0.6142040
  H        1.0058700    -1.8278860    -1.3015600
  H        0.9614050     1.5295600     1.3833290
  H       -3.4548610     1.6831510    -0.4309120
  H       -3.1654310    -2.4765660     0.6404150
  H       -4.5504850    -0.4615560     0.1267090
  H        3.4898150    -1.8022040    -1.2977600
  H        3.4438080     1.5707970     1.3744420
  H        4.7151610    -0.0954640     0.0345500
  H        0.0736060     2.0855870    -0.9073830
  H       -1.4416920     2.7564150    -1.0941350
units angstrom
no_reorient  #important for SAPT in psi4, default
symmetry c1  #important for SAPT in psi4, default
}

set PROPERTIES_ORIGIN ["COM"]
properties('MP2/aug-cc-pvtz', properties = ['dipole'])
--------------------------------------------------------------------------

    Molecular point group: c1
  Charge       = 0
  Multiplicity = 1
  Basis Set: AUG-CC-PVTZ
    Blend: AUG-CC-PVTZ
  Basis Set: (AUG-CC-PVTZ AUX)
    Blend: AUG-CC-PVTZ-JKFIT

    Orbital Energies [Eh]
    ---------------------

    Doubly Occupied:

       1A    -15.558908     2A    -11.275981     3A    -11.247814
       4A    -11.239562     5A    -11.238958     6A    -11.237917
       7A    -11.237785     8A    -11.237486     9A    -11.237341
      10A    -11.235817    11A    -11.235611    12A    -11.226893
      13A    -11.225426    14A     -1.212383    15A     -1.154945
      16A     -1.126688    17A     -1.053641    18A     -1.015513
      19A     -0.997083    20A     -0.977906    21A     -0.853956
      22A     -0.835418    23A     -0.812372    24A     -0.790204
      25A     -0.712913    26A     -0.682926    27A     -0.679183
      28A     -0.652334    29A     -0.625700    30A     -0.620473
      31A     -0.598200    32A     -0.592132    33A     -0.586375
      34A     -0.580181    35A     -0.536184    36A     -0.522616
      37A     -0.505980    38A     -0.500195    39A     -0.488992
      40A     -0.484295    41A     -0.443112    42A     -0.361526
      43A     -0.338943    44A     -0.320355    45A     -0.295970

  @DF-RHF Final Energy:  -515.44952692493939

   => Energetics <=

    Nuclear Repulsion Energy =            709.3200010469075778
    One-Electron Energy =               -2104.7506689982769785
    Two-Electron Energy =                 879.9811410264298956
    Total Energy =                       -515.4495269249393914
  Basis Set: (AUG-CC-PVTZ AUX)
    Blend: AUG-CC-PVTZ-RI
    Molecular point group: c1

    Geometry (in Angstrom), charge = 0, multiplicity = 1:

       Center              X                  Y                   Z               Mass
    ------------   -----------------  -----------------  -----------------  -----------------
         N           -0.854261101129     2.172139983186    -0.515143896786    14.003074004430
         C           -0.659611101129    -0.205699016814     0.063453103214    12.000000000000
         C            0.819597898871    -0.146713016814     0.036359103214    12.000000000000
         C           -1.468281701129     0.880913383186    -0.238543196786    12.000000000000
         C           -1.298702101129    -1.417938016814     0.363034103214    12.000000000000
         C            1.547951898871    -1.084226016814    -0.713945896786    12.000000000000
         C            1.521327898871     0.813760983186     0.785050103214    12.000000000000
         C           -2.844726101129     0.815754983186    -0.203706896786    12.000000000000
         C           -2.688047101129    -1.521803016814     0.391969103214    12.000000000000
         C           -3.460823101129    -0.396077016814     0.099644103214    12.000000000000
         C            2.943114898871    -1.064539016814    -0.715003896786    12.000000000000
         C            2.916869898871     0.833825983186     0.778913103214    12.000000000000
         C            3.631711898871    -0.105174016814     0.031244103214    12.000000000000
         H           -0.681050101129    -2.280053016814     0.608504103214     1.007825032230
         H            1.009683898871    -1.820820016814    -1.307259896786     1.007825032230
         H            0.965218898871     1.536625983186     1.377629103214     1.007825032230
         H           -3.451047101129     1.690216983186    -0.436611896786     1.007825032230
         H           -3.161617101129    -2.469500016814     0.634715103214     1.007825032230
         H           -4.546671101129    -0.454490016814     0.121009103214     1.007825032230
         H            3.493628898871    -1.795138016814    -1.303459896786     1.007825032230
         H            3.447621898871     1.577862983186     1.368742103214     1.007825032230
         H            4.718974898871    -0.088398016814     0.028850103214     1.007825032230
         H            0.077419898871     2.092652983186    -0.913082896786     1.007825032230
         H           -1.437878101129     2.763480983186    -1.099834896786     1.007825032230

  Basis Set: AUG-CC-PVTZ
    Blend: AUG-CC-PVTZ
  Basis Set: (AUG-CC-PVTZ AUX)
    Blend: AUG-CC-PVTZ-JKFIT
	 Reference Energy          =    -515.4495269249393914 [Eh]
	 Singles Energy            =      -0.0000000000000000 [Eh]
	 Same-Spin Energy          =      -0.5826264481650070 [Eh]
	 Opposite-Spin Energy      =      -1.8011348766559672 [Eh]
	 Correlation Energy        =      -2.3837613248209744 [Eh]
	 Total Energy              =    -517.8332882497603578 [Eh]

	 ================> DF-SCS-MP2 Energies <==================
	-----------------------------------------------------------
	 SCS Same-Spin Scale       =       0.3333333333333333 [-]
	 SCS Opposite-Spin Scale   =       1.2000000000000000 [-]
	 SCS Same-Spin Energy      =      -0.1942088160550023 [Eh]
	 SCS Opposite-Spin Energy  =      -2.1613618519871607 [Eh]
	 SCS Correlation Energy    =      -2.3555706680421631 [Eh]
	 SCS Total Energy          =    -517.8050975929816104 [Eh]
	-----------------------------------------------------------

  Dipole Moment: [D]
     X:     0.3543      Y:     0.2987      Z:    -1.0600     Total:     1.1568

*** Psi4 exiting successfully. Buy a developer a beer!
