                               Psi4 1.3.2 release

  ==> Input File <==

--------------------------------------------------------------------------
#psi4
#
memory 32 gb

molecule  {
0 1
  N       -0.7707065     2.1228059    -0.4947763
  C       -0.6634250    -0.2127650     0.0691530
  C        0.8157840    -0.1537790     0.0420590
  C       -1.4510140     0.9181800    -0.2423400
  C       -1.3025160    -1.4250040     0.3687340
  C        1.5441380    -1.0912920    -0.7082460
  C        1.5175140     0.8066950     0.7907500
  C       -2.8485400     0.8086890    -0.1980070
  C       -2.6918610    -1.5288690     0.3976690
  C       -3.4646370    -0.4031430     0.1053440
  C        2.9393010    -1.0716050    -0.7093040
  C        2.9130560     0.8267600     0.7846130
  C        3.6278980    -0.1122400     0.0369440
  H       -0.6848640    -2.2871190     0.6142040
  H        1.0058700    -1.8278860    -1.3015600
  H        0.9614050     1.5295600     1.3833290
  H       -3.4548610     1.6831510    -0.4309120
  H       -3.1654310    -2.4765660     0.6404150
  H       -4.5504850    -0.4615560     0.1267090
  H        3.4898150    -1.8022040    -1.2977600
  H        3.4438080     1.5707970     1.3744420
  H        4.7151610    -0.0954640     0.0345500
  H        0.0736060     2.0855870    -0.9073830
  H       -1.4416920     2.7564150    -1.0941350
units angstrom
no_reorient  #important for SAPT in psi4, default
symmetry c1  #important for SAPT in psi4, default
}

set PROPERTIES_ORIGIN ["COM"]
properties('MP2/aug-cc-pvtz', properties = ['dipole'])
--------------------------------------------------------------------------

    Molecular point group: c1
  Charge       = 0
  Multiplicity = 1
  Basis Set: AUG-CC-PVTZ
    Blend: AUG-CC-PVTZ
  Basis Set: (AUG-CC-PVTZ AUX)
    Blend: AUG-CC-PVTZ-JKFIT

    Orbital Energies [Eh]
    ---------------------

    Doubly Occupied:

       1A    -15.565343     2A    -11.281046     3A    -11.245800
       4A    -11.238522     5A    -11.238089     6A    -11.238027
       7A    -11.236559     8A    -11.236192     9A    -11.235990
      10A    -11.234600    11A    -11.234336    12A    -11.229598
      13A    -11.223570    14A     -1.227401    15A     -1.155137
      16A     -1.126590    17A     -1.051042    18A     -1.014464
      19A     -0.995577    20A     -0.974788    21A     -0.853109
      22A     -0.833725    23A     -0.811360    24A     -0.791369
      25A     -0.716166    26A     -0.694819    27A     -0.674106
      28A     -0.656357    29A     -0.627315    30A     -0.620109
      31A     -0.599286    32A     -0.587118    33A     -0.583590
      34A     -0.575735    35A     -0.537406    36A     -0.524657
      37A     -0.504366    38A     -0.500577    39A     -0.488210
      40A     -0.479746    41A     -0.449413    42A     -0.360165
      43A     -0.338018    44A     -0.319233    45A     -0.289903

  @DF-RHF Final Energy:  -515.43805451252751

   => Energetics <=

    Nuclear Repulsion Energy =            710.0216586193154171
    One-Electron Energy =               -2106.1223611888872256
    Two-Electron Energy =                 880.6626480570441800
    Total Energy =                       -515.4380545125275148
  Basis Set: (AUG-CC-PVTZ AUX)
    Blend: AUG-CC-PVTZ-RI
    Molecular point group: c1

    Geometry (in Angstrom), charge = 0, multiplicity = 1:

       Center              X                  Y                   Z               Mass
    ------------   -----------------  -----------------  -----------------  -----------------
         N           -0.775624129892     2.130226087655    -0.501016932184    14.003074004430
         C           -0.668342629892    -0.205344812345     0.062912367816    12.000000000000
         C            0.810866370108    -0.146358812345     0.035818367816    12.000000000000
         C           -1.455931629892     0.925600187655    -0.248580632184    12.000000000000
         C           -1.307433629892    -1.417583812345     0.362493367816    12.000000000000
         C            1.539220370108    -1.083871812345    -0.714486632184    12.000000000000
         C            1.512596370108     0.814115187655     0.784509367816    12.000000000000
         C           -2.853457629892     0.816109187655    -0.204247632184    12.000000000000
         C           -2.696778629892    -1.521448812345     0.391428367816    12.000000000000
         C           -3.469554629892    -0.395722812345     0.099103367816    12.000000000000
         C            2.934383370108    -1.064184812345    -0.715544632184    12.000000000000
         C            2.908138370108     0.834180187655     0.778372367816    12.000000000000
         C            3.622980370108    -0.104819812345     0.030703367816    12.000000000000
         H           -0.689781629892    -2.279698812345     0.607963367816     1.007825032230
         H            1.000952370108    -1.820465812345    -1.307800632184     1.007825032230
         H            0.956487370108     1.536980187655     1.377088367816     1.007825032230
         H           -3.459778629892     1.690571187655    -0.437152632184     1.007825032230
         H           -3.170348629892    -2.469145812345     0.634174367816     1.007825032230
         H           -4.555402629892    -0.454135812345     0.120468367816     1.007825032230
         H            3.484897370108    -1.794783812345    -1.304000632184     1.007825032230
         H            3.438890370108     1.578217187655     1.368201367816     1.007825032230
         H            4.710243370108    -0.088043812345     0.028309367816     1.007825032230
         H            0.068688370108     2.093007187655    -0.913623632184     1.007825032230
         H           -1.446609629892     2.763835187655    -1.100375632184     1.007825032230

  Basis Set: AUG-CC-PVTZ
    Blend: AUG-CC-PVTZ
  Basis Set: (AUG-CC-PVTZ AUX)
    Blend: AUG-CC-PVTZ-JKFIT
	 Reference Energy          =    -515.4380545125275148 [Eh]
	 Singles Energy            =      -0.0000000000000000 [Eh]
	 Same-Spin Energy          =      -0.5833032905640629 [Eh]
	 Opposite-Spin Energy      =      -1.8022307893883234 [Eh]
	 Correlation Energy        =      -2.3855340799523863 [Eh]
	 Total Energy              =    -517.8235885924799504 [Eh]

	 ================> DF-SCS-MP2 Energies <==================
	-----------------------------------------------------------
	 SCS Same-Spin Scale       =       0.3333333333333333 [-]
	 SCS Opposite-Spin Scale   =       1.2000000000000000 [-]
	 SCS Same-Spin Energy      =      -0.1944344301880210 [Eh]
	 SCS Opposite-Spin Energy  =      -2.1626769472659881 [Eh]
	 SCS Correlation Energy    =      -2.3571113774540091 [Eh]
	 SCS Total Energy          =    -517.7951658899814902 [Eh]
	-----------------------------------------------------------

  Dipole Moment: [D]
     X:     0.3394      Y:     0.5773      Z:    -1.1296     Total:     1.3132

*** Psi4 exiting successfully. Buy a developer a beer!
