                               Psi4 1.3.2 release

  ==> Input File <==

--------------------------------------------------------------------------
#psi4
#
memory 32 gb

molecule  {
0 1
  N       -0.8580750     2.1650740    -0.5094440
  C       -0.6634250    -0.2127650     0.0691530
  C        0.8126455    -0.1041030     0.0281524
  C       -1.4510140     0.9181800    -0.2423400
  C       -1.3025160    -1.4250040     0.3687340
  C        1.5441380    -1.0912920    -0.7082460
  C        1.5175140     0.8066950     0.7907500
  C       -2.8485400     0.8086890    -0.1980070
  C       -2.6918610    -1.5288690     0.3976690
  C       -3.4646370    -0.4031430     0.1053440
  C        2.9393010    -1.0716050    -0.7093040
  C        2.9130560     0.8267600     0.7846130
  C        3.6278980    -0.1122400     0.0369440
  H       -0.6848640    -2.2871190     0.6142040
  H        1.0058700    -1.8278860    -1.3015600
  H        0.9614050     1.5295600     1.3833290
  H       -3.4548610     1.6831510    -0.4309120
  H       -3.1654310    -2.4765660     0.6404150
  H       -4.5504850    -0.4615560     0.1267090
  H        3.4898150    -1.8022040    -1.2977600
  H        3.4438080     1.5707970     1.3744420
  H        4.7151610    -0.0954640     0.0345500
  H        0.0736060     2.0855870    -0.9073830
  H       -1.4416920     2.7564150    -1.0941350
units angstrom
no_reorient  #important for SAPT in psi4, default
symmetry c1  #important for SAPT in psi4, default
}

set PROPERTIES_ORIGIN ["COM"]
properties('MP2/aug-cc-pvtz', properties = ['dipole'])
--------------------------------------------------------------------------

    Molecular point group: c1
  Charge       = 0
  Multiplicity = 1
  Basis Set: AUG-CC-PVTZ
    Blend: AUG-CC-PVTZ
  Basis Set: (AUG-CC-PVTZ AUX)
    Blend: AUG-CC-PVTZ-JKFIT

    Orbital Energies [Eh]
    ---------------------

    Doubly Occupied:

       1A    -15.564246     2A    -11.278974     3A    -11.246575
       4A    -11.240150     5A    -11.239133     6A    -11.238477
       7A    -11.237337     8A    -11.237247     9A    -11.236831
      10A    -11.235847    11A    -11.233449    12A    -11.226669
      13A    -11.223368    14A     -1.225220    15A     -1.155838
      16A     -1.125615    17A     -1.051419    18A     -1.015581
      19A     -0.993795    20A     -0.973984    21A     -0.853381
      22A     -0.833384    23A     -0.811844    24A     -0.788978
      25A     -0.711933    26A     -0.686029    27A     -0.685157
      28A     -0.656304    29A     -0.625947    30A     -0.621966
      31A     -0.594965    32A     -0.592399    33A     -0.584944
      34A     -0.580051    35A     -0.537106    36A     -0.523128
      37A     -0.505722    38A     -0.500325    39A     -0.491858
      40A     -0.477016    41A     -0.448732    42A     -0.361091
      43A     -0.338102    44A     -0.318357    45A     -0.290021

  @DF-RHF Final Energy:  -515.44970479477843

   => Energetics <=

    Nuclear Repulsion Energy =            709.1425850770139050
    One-Electron Energy =               -2104.3875875287149029
    Two-Electron Energy =                 879.7952976569226848
    Total Energy =                       -515.4497047947784267
  Basis Set: (AUG-CC-PVTZ AUX)
    Blend: AUG-CC-PVTZ-RI
    Molecular point group: c1

    Geometry (in Angstrom), charge = 0, multiplicity = 1:

       Center              X                  Y                   Z               Mass
    ------------   -----------------  -----------------  -----------------  -----------------
         N           -0.855534495672     2.165468335690    -0.513483000146    14.003074004430
         C           -0.660884495672    -0.212370664310     0.065113999854    12.000000000000
         C            0.815186004328    -0.103708664310     0.024113399854    12.000000000000
         C           -1.448473495672     0.918574335690    -0.246379000146    12.000000000000
         C           -1.299975495672    -1.424609664310     0.364694999854    12.000000000000
         C            1.546678504328    -1.090897664310    -0.712285000146    12.000000000000
         C            1.520054504328     0.807089335690     0.786710999854    12.000000000000
         C           -2.845999495672     0.809083335690    -0.202046000146    12.000000000000
         C           -2.689320495672    -1.528474664310     0.393629999854    12.000000000000
         C           -3.462096495672    -0.402748664310     0.101304999854    12.000000000000
         C            2.941841504328    -1.071210664310    -0.713343000146    12.000000000000
         C            2.915596504328     0.827154335690     0.780573999854    12.000000000000
         C            3.630438504328    -0.111845664310     0.032904999854    12.000000000000
         H           -0.682323495672    -2.286724664310     0.610164999854     1.007825032230
         H            1.008410504328    -1.827491664310    -1.305599000146     1.007825032230
         H            0.963945504328     1.529954335690     1.379289999854     1.007825032230
         H           -3.452320495672     1.683545335690    -0.434951000146     1.007825032230
         H           -3.162890495672    -2.476171664310     0.636375999854     1.007825032230
         H           -4.547944495672    -0.461161664310     0.122669999854     1.007825032230
         H            3.492355504328    -1.801809664310    -1.301799000146     1.007825032230
         H            3.446348504328     1.571191335690     1.370402999854     1.007825032230
         H            4.717701504328    -0.095069664310     0.030510999854     1.007825032230
         H            0.076146504328     2.085981335690    -0.911422000146     1.007825032230
         H           -1.439151495672     2.756809335690    -1.098174000146     1.007825032230

  Basis Set: AUG-CC-PVTZ
    Blend: AUG-CC-PVTZ
  Basis Set: (AUG-CC-PVTZ AUX)
    Blend: AUG-CC-PVTZ-JKFIT
	 Reference Energy          =    -515.4497047947784267 [Eh]
	 Singles Energy            =      -0.0000000000000000 [Eh]
	 Same-Spin Energy          =      -0.5830563547782767 [Eh]
	 Opposite-Spin Energy      =      -1.8015363581687271 [Eh]
	 Correlation Energy        =      -2.3845927129470037 [Eh]
	 Total Energy              =    -517.8342975077254096 [Eh]

	 ================> DF-SCS-MP2 Energies <==================
	-----------------------------------------------------------
	 SCS Same-Spin Scale       =       0.3333333333333333 [-]
	 SCS Opposite-Spin Scale   =       1.2000000000000000 [-]
	 SCS Same-Spin Energy      =      -0.1943521182594256 [Eh]
	 SCS Opposite-Spin Energy  =      -2.1618436298024726 [Eh]
	 SCS Correlation Energy    =      -2.3561957480618982 [Eh]
	 SCS Total Energy          =    -517.8059005428402770 [Eh]
	-----------------------------------------------------------

  Dipole Moment: [D]
     X:     0.4687      Y:     0.5353      Z:    -1.1186     Total:     1.3257

*** Psi4 exiting successfully. Buy a developer a beer!
