                               Psi4 1.3.2 release

  ==> Input File <==

--------------------------------------------------------------------------
#psi4
#
memory 32 gb

molecule  {
0 1
  N       -0.8580750     2.1650740    -0.5094440
  C       -0.6626682    -0.2332881     0.0534680
  C        0.8157840    -0.1537790     0.0420590
  C       -1.4510140     0.9181800    -0.2423400
  C       -1.3025160    -1.4250040     0.3687340
  C        1.5441380    -1.0912920    -0.7082460
  C        1.5175140     0.8066950     0.7907500
  C       -2.8485400     0.8086890    -0.1980070
  C       -2.6918610    -1.5288690     0.3976690
  C       -3.4646370    -0.4031430     0.1053440
  C        2.9393010    -1.0716050    -0.7093040
  C        2.9130560     0.8267600     0.7846130
  C        3.6278980    -0.1122400     0.0369440
  H       -0.6848640    -2.2871190     0.6142040
  H        1.0058700    -1.8278860    -1.3015600
  H        0.9614050     1.5295600     1.3833290
  H       -3.4548610     1.6831510    -0.4309120
  H       -3.1654310    -2.4765660     0.6404150
  H       -4.5504850    -0.4615560     0.1267090
  H        3.4898150    -1.8022040    -1.2977600
  H        3.4438080     1.5707970     1.3744420
  H        4.7151610    -0.0954640     0.0345500
  H        0.0736060     2.0855870    -0.9073830
  H       -1.4416920     2.7564150    -1.0941350
units angstrom
no_reorient  #important for SAPT in psi4, default
symmetry c1  #important for SAPT in psi4, default
}

set PROPERTIES_ORIGIN ["COM"]
properties('MP2/aug-cc-pvtz', properties = ['dipole'])
--------------------------------------------------------------------------

    Molecular point group: c1
  Charge       = 0
  Multiplicity = 1
  Basis Set: AUG-CC-PVTZ
    Blend: AUG-CC-PVTZ
  Basis Set: (AUG-CC-PVTZ AUX)
    Blend: AUG-CC-PVTZ-JKFIT

    Orbital Energies [Eh]
    ---------------------

    Doubly Occupied:

       1A    -15.565222     2A    -11.281523     3A    -11.246606
       4A    -11.239255     5A    -11.238859     6A    -11.237134
       7A    -11.236735     8A    -11.236539     9A    -11.236448
      10A    -11.235961    11A    -11.234580    12A    -11.226420
      13A    -11.222631    14A     -1.224737    15A     -1.156562
      16A     -1.126217    17A     -1.051831    18A     -1.015259
      19A     -0.994527    20A     -0.973271    21A     -0.851951
      22A     -0.834905    23A     -0.810690    24A     -0.789961
      25A     -0.712233    26A     -0.686332    27A     -0.685323
      28A     -0.656059    29A     -0.625789    30A     -0.622347
      31A     -0.593841    32A     -0.592705    33A     -0.586143
      34A     -0.580523    35A     -0.536546    36A     -0.523206
      37A     -0.506078    38A     -0.500839    39A     -0.490158
      40A     -0.478138    41A     -0.449317    42A     -0.361192
      43A     -0.338825    44A     -0.318759    45A     -0.289092

  @DF-RHF Final Energy:  -515.45148571835421

   => Energetics <=

    Nuclear Repulsion Energy =            709.0180481513747281
    One-Electron Energy =               -2104.1365319662104412
    Two-Electron Energy =                 879.6669980964813931
    Total Energy =                       -515.4514857183542063
  Basis Set: (AUG-CC-PVTZ AUX)
    Blend: AUG-CC-PVTZ-RI
    Molecular point group: c1

    Geometry (in Angstrom), charge = 0, multiplicity = 1:

       Center              X                  Y                   Z               Mass
    ------------   -----------------  -----------------  -----------------  -----------------
         N           -0.855810939194     2.170450259149    -0.513356789800    14.003074004430
         C           -0.660404139194    -0.227911840851     0.049555210200    12.000000000000
         C            0.818048060806    -0.148402740851     0.038146210200    12.000000000000
         C           -1.448749939194     0.923556259149    -0.246252789800    12.000000000000
         C           -1.300251939194    -1.419627740851     0.364821210200    12.000000000000
         C            1.546402060806    -1.085915740851    -0.712158789800    12.000000000000
         C            1.519778060806     0.812071259149     0.786837210200    12.000000000000
         C           -2.846275939194     0.814065259149    -0.201919789800    12.000000000000
         C           -2.689596939194    -1.523492740851     0.393756210200    12.000000000000
         C           -3.462372939194    -0.397766740851     0.101431210200    12.000000000000
         C            2.941565060806    -1.066228740851    -0.713216789800    12.000000000000
         C            2.915320060806     0.832136259149     0.780700210200    12.000000000000
         C            3.630162060806    -0.106863740851     0.033031210200    12.000000000000
         H           -0.682599939194    -2.281742740851     0.610291210200     1.007825032230
         H            1.008134060806    -1.822509740851    -1.305472789800     1.007825032230
         H            0.963669060806     1.534936259149     1.379416210200     1.007825032230
         H           -3.452596939194     1.688527259149    -0.434824789800     1.007825032230
         H           -3.163166939194    -2.471189740851     0.636502210200     1.007825032230
         H           -4.548220939194    -0.456179740851     0.122796210200     1.007825032230
         H            3.492079060806    -1.796827740851    -1.301672789800     1.007825032230
         H            3.446072060806     1.576173259149     1.370529210200     1.007825032230
         H            4.717425060806    -0.090087740851     0.030637210200     1.007825032230
         H            0.075870060806     2.090963259149    -0.911295789800     1.007825032230
         H           -1.439427939194     2.761791259149    -1.098047789800     1.007825032230

  Basis Set: AUG-CC-PVTZ
    Blend: AUG-CC-PVTZ
  Basis Set: (AUG-CC-PVTZ AUX)
    Blend: AUG-CC-PVTZ-JKFIT
	 Reference Energy          =    -515.4514857183542063 [Eh]
	 Singles Energy            =      -0.0000000000000000 [Eh]
	 Same-Spin Energy          =      -0.5829539772832022 [Eh]
	 Opposite-Spin Energy      =      -1.8012168897890111 [Eh]
	 Correlation Energy        =      -2.3841708670722133 [Eh]
	 Total Energy              =    -517.8356565854263636 [Eh]

	 ================> DF-SCS-MP2 Energies <==================
	-----------------------------------------------------------
	 SCS Same-Spin Scale       =       0.3333333333333333 [-]
	 SCS Opposite-Spin Scale   =       1.2000000000000000 [-]
	 SCS Same-Spin Energy      =      -0.1943179924277341 [Eh]
	 SCS Opposite-Spin Energy  =      -2.1614602677468131 [Eh]
	 SCS Correlation Energy    =      -2.3557782601745472 [Eh]
	 SCS Total Energy          =    -517.8072639785287947 [Eh]
	-----------------------------------------------------------

  Dipole Moment: [D]
     X:     0.4701      Y:     0.5663      Z:    -1.1270     Total:     1.3460

*** Psi4 exiting successfully. Buy a developer a beer!
