                               Psi4 1.4a3.dev225

  ==> Input File <==

--------------------------------------------------------------------------
#psi4
#
memory 32 gb

molecule  {
0 1
  N       -0.8580750     2.1650740    -0.5094440
  C       -0.6634250    -0.2127650     0.0691530
  C        0.8157840    -0.1537790     0.0420590
  C       -1.4299324     0.9625126    -0.2518367
  C       -1.3025160    -1.4250040     0.3687340
  C        1.5441380    -1.0912920    -0.7082460
  C        1.5175140     0.8066950     0.7907500
  C       -2.8485400     0.8086890    -0.1980070
  C       -2.6918610    -1.5288690     0.3976690
  C       -3.4646370    -0.4031430     0.1053440
  C        2.9393010    -1.0716050    -0.7093040
  C        2.9130560     0.8267600     0.7846130
  C        3.6278980    -0.1122400     0.0369440
  H       -0.6848640    -2.2871190     0.6142040
  H        1.0058700    -1.8278860    -1.3015600
  H        0.9614050     1.5295600     1.3833290
  H       -3.4548610     1.6831510    -0.4309120
  H       -3.1654310    -2.4765660     0.6404150
  H       -4.5504850    -0.4615560     0.1267090
  H        3.4898150    -1.8022040    -1.2977600
  H        3.4438080     1.5707970     1.3744420
  H        4.7151610    -0.0954640     0.0345500
  H        0.0736060     2.0855870    -0.9073830
  H       -1.4416920     2.7564150    -1.0941350
units angstrom
no_reorient  #important for SAPT in psi4, default
symmetry c1  #important for SAPT in psi4, default
}

set PROPERTIES_ORIGIN ["COM"]
properties('MP2/aug-cc-pvtz', properties = ['dipole'])
--------------------------------------------------------------------------

    Molecular point group: c1
  Charge       = 0
  Multiplicity = 1
  Basis Set: AUG-CC-PVTZ
    Blend: AUG-CC-PVTZ
  Basis Set: (AUG-CC-PVTZ AUX)
    Blend: AUG-CC-PVTZ-JKFIT

    Orbital Energies [Eh]
    ---------------------

    Doubly Occupied:

       1A    -15.570514     2A    -11.284613     3A    -11.245320
       4A    -11.238875     5A    -11.238552     6A    -11.236537
       7A    -11.236398     8A    -11.235962     9A    -11.235863
      10A    -11.235069    11A    -11.235011    12A    -11.227128
      13A    -11.220199    14A     -1.242815    15A     -1.156819
      16A     -1.123280    17A     -1.049530    18A     -1.014844
      19A     -0.990642    20A     -0.970096    21A     -0.850873
      22A     -0.834364    23A     -0.810946    24A     -0.788675
      25A     -0.712328    26A     -0.693174    27A     -0.690768
      28A     -0.658649    29A     -0.625920    30A     -0.624267
      31A     -0.595026    32A     -0.587659    33A     -0.585730
      34A     -0.577523    35A     -0.539913    36A     -0.524516
      37A     -0.505858    38A     -0.500851    39A     -0.489570
      40A     -0.473160    41A     -0.453025    42A     -0.359464
      43A     -0.338541    44A     -0.316251    45A     -0.283659

  @DF-RHF Final Energy:  -515.44764018790170

   => Energetics <=

    Nuclear Repulsion Energy =            708.8463972995052700
    One-Electron Energy =               -2103.7705183918296825
    Two-Electron Energy =                 879.4764809044227150
    Total Energy =                       -515.4476401879016976
  Basis Set: (AUG-CC-PVTZ AUX)
    Blend: AUG-CC-PVTZ-RI
    Molecular point group: c1

    Geometry (in Angstrom), charge = 0, multiplicity = 1:

       Center              X                  Y                   Z               Mass
    ------------   -----------------  -----------------  -----------------  -----------------
         N           -0.857253359366     2.165847548668    -0.513795964048    14.003074004430
         C           -0.662603359366    -0.211991451332     0.064801035952    12.000000000000
         C            0.816605640634    -0.153005451332     0.037707035952    12.000000000000
         C           -1.429110759366     0.963286148668    -0.256188664048    12.000000000000
         C           -1.301694359366    -1.424230451332     0.364382035952    12.000000000000
         C            1.544959640634    -1.090518451332    -0.712597964048    12.000000000000
         C            1.518335640634     0.807468548668     0.786398035952    12.000000000000
         C           -2.847718359366     0.809462548668    -0.202358964048    12.000000000000
         C           -2.691039359366    -1.528095451332     0.393317035952    12.000000000000
         C           -3.463815359366    -0.402369451332     0.100992035952    12.000000000000
         C            2.940122640634    -1.070831451332    -0.713655964048    12.000000000000
         C            2.913877640634     0.827533548668     0.780261035952    12.000000000000
         C            3.628719640634    -0.111466451332     0.032592035952    12.000000000000
         H           -0.684042359366    -2.286345451332     0.609852035952     1.007825032230
         H            1.006691640634    -1.827112451332    -1.305911964048     1.007825032230
         H            0.962226640634     1.530333548668     1.378977035952     1.007825032230
         H           -3.454039359366     1.683924548668    -0.435263964048     1.007825032230
         H           -3.164609359366    -2.475792451332     0.636063035952     1.007825032230
         H           -4.549663359366    -0.460782451332     0.122357035952     1.007825032230
         H            3.490636640634    -1.801430451332    -1.302111964048     1.007825032230
         H            3.444629640634     1.571570548668     1.370090035952     1.007825032230
         H            4.715982640634    -0.094690451332     0.030198035952     1.007825032230
         H            0.074427640634     2.086360548668    -0.911734964048     1.007825032230
         H           -1.440870359366     2.757188548668    -1.098486964048     1.007825032230

  Basis Set: AUG-CC-PVTZ
    Blend: AUG-CC-PVTZ
  Basis Set: (AUG-CC-PVTZ AUX)
    Blend: AUG-CC-PVTZ-JKFIT
	 Reference Energy          =    -515.4476401879016976 [Eh]
	 Singles Energy            =      -0.0000000000000000 [Eh]
	 Same-Spin Energy          =      -0.5834807494490701 [Eh]
	 Opposite-Spin Energy      =      -1.8017051199340153 [Eh]
	 Correlation Energy        =      -2.3851858693830854 [Eh]
	 Total Energy              =    -517.8328260572848194 [Eh]

	 ================> DF-SCS-MP2 Energies <==================
	-----------------------------------------------------------
	 SCS Same-Spin Scale       =       0.3333333333333333 [-]
	 SCS Opposite-Spin Scale   =       1.2000000000000000 [-]
	 SCS Same-Spin Energy      =      -0.1944935831496900 [Eh]
	 SCS Opposite-Spin Energy  =      -2.1620461439208181 [Eh]
	 SCS Correlation Energy    =      -2.3565397270705080 [Eh]
	 SCS Total Energy          =    -517.8041799149722237 [Eh]
	-----------------------------------------------------------

  Dipole Moment: [D]
     X:     0.5599      Y:     0.8173      Z:    -1.2022     Total:     1.5578

*** Psi4 exiting successfully. Buy a developer a beer!
