                               Psi4 1.3.2 release

  ==> Input File <==

--------------------------------------------------------------------------
#psi4
#
memory 32 gb

molecule  {
0 1
  N       -0.8580750     2.1650740    -0.5094440
  C       -0.6634250    -0.2127650     0.0691530
  C        0.8157840    -0.1537790     0.0420590
  C       -1.4510140     0.9181800    -0.2423400
  C       -1.3025160    -1.4250040     0.3687340
  C        1.4922763    -1.0245374    -0.6548213
  C        1.5175140     0.8066950     0.7907500
  C       -2.8485400     0.8086890    -0.1980070
  C       -2.6918610    -1.5288690     0.3976690
  C       -3.4646370    -0.4031430     0.1053440
  C        2.9393010    -1.0716050    -0.7093040
  C        2.9130560     0.8267600     0.7846130
  C        3.6278980    -0.1122400     0.0369440
  H       -0.6848640    -2.2871190     0.6142040
  H        1.0058700    -1.8278860    -1.3015600
  H        0.9614050     1.5295600     1.3833290
  H       -3.4548610     1.6831510    -0.4309120
  H       -3.1654310    -2.4765660     0.6404150
  H       -4.5504850    -0.4615560     0.1267090
  H        3.4898150    -1.8022040    -1.2977600
  H        3.4438080     1.5707970     1.3744420
  H        4.7151610    -0.0954640     0.0345500
  H        0.0736060     2.0855870    -0.9073830
  H       -1.4416920     2.7564150    -1.0941350
units angstrom
no_reorient  #important for SAPT in psi4, default
symmetry c1  #important for SAPT in psi4, default
}

set PROPERTIES_ORIGIN ["COM"]
properties('MP2/aug-cc-pvtz', properties = ['dipole'])
--------------------------------------------------------------------------

    Molecular point group: c1
  Charge       = 0
  Multiplicity = 1
  Basis Set: AUG-CC-PVTZ
    Blend: AUG-CC-PVTZ
  Basis Set: (AUG-CC-PVTZ AUX)
    Blend: AUG-CC-PVTZ-JKFIT

    Orbital Energies [Eh]
    ---------------------

    Doubly Occupied:

       1A    -15.564865     2A    -11.279480     3A    -11.243704
       4A    -11.238443     5A    -11.237307     6A    -11.236463
       7A    -11.236430     8A    -11.236136     9A    -11.235697
      10A    -11.234890    11A    -11.233576    12A    -11.226683
      13A    -11.222615    14A     -1.225639    15A     -1.163861
      16A     -1.125281    17A     -1.056645    18A     -1.007675
      19A     -0.995601    20A     -0.977748    21A     -0.848767
      22A     -0.840867    23A     -0.810629    24A     -0.788795
      25A     -0.713100    26A     -0.685753    27A     -0.683747
      28A     -0.652637    29A     -0.631994    30A     -0.621874
      31A     -0.595184    32A     -0.592986    33A     -0.581949
      34A     -0.577400    35A     -0.538141    36A     -0.520190
      37A     -0.508926    38A     -0.502944    39A     -0.490854
      40A     -0.470537    41A     -0.448645    42A     -0.366696
      43A     -0.333047    44A     -0.320751    45A     -0.292211

  @DF-RHF Final Energy:  -515.43897419819905

   => Energetics <=

    Nuclear Repulsion Energy =            710.7118092715097646
    One-Electron Energy =               -2107.5068315997777972
    Two-Electron Energy =                 881.3560481300689844
    Total Energy =                       -515.4389741981990483
  Basis Set: (AUG-CC-PVTZ AUX)
    Blend: AUG-CC-PVTZ-RI
    Molecular point group: c1

    Geometry (in Angstrom), charge = 0, multiplicity = 1:

       Center              X                  Y                   Z               Mass
    ------------   -----------------  -----------------  -----------------  -----------------
         N           -0.852076684202     2.164256293398    -0.518261400197    14.003074004430
         C           -0.657426684202    -0.213582706602     0.060335599803    12.000000000000
         C            0.821782315798    -0.154596706602     0.033241599803    12.000000000000
         C           -1.445015684202     0.917362293398    -0.251157400197    12.000000000000
         C           -1.296517684202    -1.425821706602     0.359916599803    12.000000000000
         C            1.498274615798    -1.025355106602    -0.663638700197    12.000000000000
         C            1.523512315798     0.805877293398     0.781932599803    12.000000000000
         C           -2.842541684202     0.807871293398    -0.206824400197    12.000000000000
         C           -2.685862684202    -1.529686706602     0.388851599803    12.000000000000
         C           -3.458638684202    -0.403960706602     0.096526599803    12.000000000000
         C            2.945299315798    -1.072422706602    -0.718121400197    12.000000000000
         C            2.919054315798     0.825942293398     0.775795599803    12.000000000000
         C            3.633896315798    -0.113057706602     0.028126599803    12.000000000000
         H           -0.678865684202    -2.287936706602     0.605386599803     1.007825032230
         H            1.011868315798    -1.828703706602    -1.310377400197     1.007825032230
         H            0.967403315798     1.528742293398     1.374511599803     1.007825032230
         H           -3.448862684202     1.682333293398    -0.439729400197     1.007825032230
         H           -3.159432684202    -2.477383706602     0.631597599803     1.007825032230
         H           -4.544486684202    -0.462373706602     0.117891599803     1.007825032230
         H            3.495813315798    -1.803021706602    -1.306577400197     1.007825032230
         H            3.449806315798     1.569979293398     1.365624599803     1.007825032230
         H            4.721159315798    -0.096281706602     0.025732599803     1.007825032230
         H            0.079604315798     2.084769293398    -0.916200400197     1.007825032230
         H           -1.435693684202     2.755597293398    -1.102952400197     1.007825032230

  Basis Set: AUG-CC-PVTZ
    Blend: AUG-CC-PVTZ
  Basis Set: (AUG-CC-PVTZ AUX)
    Blend: AUG-CC-PVTZ-JKFIT
	 Reference Energy          =    -515.4389741981990483 [Eh]
	 Singles Energy            =      -0.0000000000000000 [Eh]
	 Same-Spin Energy          =      -0.5827350331244801 [Eh]
	 Opposite-Spin Energy      =      -1.8016048197913810 [Eh]
	 Correlation Energy        =      -2.3843398529158613 [Eh]
	 Total Energy              =    -517.8233140511149486 [Eh]

	 ================> DF-SCS-MP2 Energies <==================
	-----------------------------------------------------------
	 SCS Same-Spin Scale       =       0.3333333333333333 [-]
	 SCS Opposite-Spin Scale   =       1.2000000000000000 [-]
	 SCS Same-Spin Energy      =      -0.1942450110414933 [Eh]
	 SCS Opposite-Spin Energy  =      -2.1619257837496573 [Eh]
	 SCS Correlation Energy    =      -2.3561707947911508 [Eh]
	 SCS Total Energy          =    -517.7951449929902310 [Eh]
	-----------------------------------------------------------

  Dipole Moment: [D]
     X:     0.5053      Y:     0.5478      Z:    -1.1328     Total:     1.3559

*** Psi4 exiting successfully. Buy a developer a beer!
