                               Psi4 1.4a3.dev225

  ==> Input File <==

--------------------------------------------------------------------------
#psi4
#
memory 32 gb

molecule  {
0 1
  N       -0.8580750     2.1650740    -0.5094440
  C       -0.6634250    -0.2127650     0.0691530
  C        0.8157840    -0.1537790     0.0420590
  C       -1.4510140     0.9181800    -0.2423400
  C       -1.3025160    -1.4250040     0.3687340
  C        1.5182072    -1.0579147    -0.6815337
  C        1.5175140     0.8066950     0.7907500
  C       -2.8485400     0.8086890    -0.1980070
  C       -2.6918610    -1.5288690     0.3976690
  C       -3.4646370    -0.4031430     0.1053440
  C        2.9393010    -1.0716050    -0.7093040
  C        2.9130560     0.8267600     0.7846130
  C        3.6278980    -0.1122400     0.0369440
  H       -0.6848640    -2.2871190     0.6142040
  H        1.0058700    -1.8278860    -1.3015600
  H        0.9614050     1.5295600     1.3833290
  H       -3.4548610     1.6831510    -0.4309120
  H       -3.1654310    -2.4765660     0.6404150
  H       -4.5504850    -0.4615560     0.1267090
  H        3.4898150    -1.8022040    -1.2977600
  H        3.4438080     1.5707970     1.3744420
  H        4.7151610    -0.0954640     0.0345500
  H        0.0736060     2.0855870    -0.9073830
  H       -1.4416920     2.7564150    -1.0941350
units angstrom
no_reorient  #important for SAPT in psi4, default
symmetry c1  #important for SAPT in psi4, default
}

set PROPERTIES_ORIGIN ["COM"]
properties('MP2/aug-cc-pvtz', properties = ['dipole'])
--------------------------------------------------------------------------

    Molecular point group: c1
  Charge       = 0
  Multiplicity = 1
  Basis Set: AUG-CC-PVTZ
    Blend: AUG-CC-PVTZ
  Basis Set: (AUG-CC-PVTZ AUX)
    Blend: AUG-CC-PVTZ-JKFIT

    Orbital Energies [Eh]
    ---------------------

    Doubly Occupied:

       1A    -15.564667     2A    -11.279732     3A    -11.241361
       4A    -11.240991     5A    -11.238568     6A    -11.237156
       7A    -11.236673     8A    -11.236422     9A    -11.236150
      10A    -11.235794    11A    -11.235177    12A    -11.226866
      13A    -11.222836    14A     -1.225327    15A     -1.159607
      16A     -1.125452    17A     -1.053800    18A     -1.011378
      19A     -0.994648    20A     -0.976001    21A     -0.850523
      22A     -0.837647    23A     -0.810823    24A     -0.789558
      25A     -0.712596    26A     -0.685593    27A     -0.684624
      28A     -0.654046    29A     -0.628316    30A     -0.622572
      31A     -0.594562    32A     -0.592818    33A     -0.583143
      34A     -0.579685    35A     -0.537555    36A     -0.521062
      37A     -0.507508    38A     -0.501815    39A     -0.490005
      40A     -0.476761    41A     -0.448817    42A     -0.362999
      43A     -0.335703    44A     -0.319651    45A     -0.291250

  @DF-RHF Final Energy:  -515.44896801421953

   => Energetics <=

    Nuclear Repulsion Energy =            709.8659281978908666
    One-Electron Energy =               -2105.8333244410782754
    Two-Electron Energy =                 880.5184282289679913
    Total Energy =                       -515.4489680142195311
  Basis Set: (AUG-CC-PVTZ AUX)
    Blend: AUG-CC-PVTZ-RI
    Molecular point group: c1

    Geometry (in Angstrom), charge = 0, multiplicity = 1:

       Center              X                  Y                   Z               Mass
    ------------   -----------------  -----------------  -----------------  -----------------
         N           -0.853916960774     2.166625029663    -0.516365661759    14.003074004430
         C           -0.659266960774    -0.211213970337     0.062231338241    12.000000000000
         C            0.819942039226    -0.152227970337     0.035137338241    12.000000000000
         C           -1.446855960774     0.919731029663    -0.249261661759    12.000000000000
         C           -1.298357960774    -1.423452970337     0.361812338241    12.000000000000
         C            1.522365239226    -1.056363670337    -0.688455361759    12.000000000000
         C            1.521672039226     0.808246029663     0.783828338241    12.000000000000
         C           -2.844381960774     0.810240029663    -0.204928661759    12.000000000000
         C           -2.687702960774    -1.527317970337     0.390747338241    12.000000000000
         C           -3.460478960774    -0.401591970337     0.098422338241    12.000000000000
         C            2.943459039226    -1.070053970337    -0.716225661759    12.000000000000
         C            2.917214039226     0.828311029663     0.777691338241    12.000000000000
         C            3.632056039226    -0.110688970337     0.030022338241    12.000000000000
         H           -0.680705960774    -2.285567970337     0.607282338241     1.007825032230
         H            1.010028039226    -1.826334970337    -1.308481661759     1.007825032230
         H            0.965563039226     1.531111029663     1.376407338241     1.007825032230
         H           -3.450702960774     1.684702029663    -0.437833661759     1.007825032230
         H           -3.161272960774    -2.475014970337     0.633493338241     1.007825032230
         H           -4.546326960774    -0.460004970337     0.119787338241     1.007825032230
         H            3.493973039226    -1.800652970337    -1.304681661759     1.007825032230
         H            3.447966039226     1.572348029663     1.367520338241     1.007825032230
         H            4.719319039226    -0.093912970337     0.027628338241     1.007825032230
         H            0.077764039226     2.087138029663    -0.914304661759     1.007825032230
         H           -1.437533960774     2.757966029663    -1.101056661759     1.007825032230

  Basis Set: AUG-CC-PVTZ
    Blend: AUG-CC-PVTZ
  Basis Set: (AUG-CC-PVTZ AUX)
    Blend: AUG-CC-PVTZ-JKFIT
	 Reference Energy          =    -515.4489680142195311 [Eh]
	 Singles Energy            =      -0.0000000000000000 [Eh]
	 Same-Spin Energy          =      -0.5828881096461234 [Eh]
	 Opposite-Spin Energy      =      -1.8012934061623032 [Eh]
	 Correlation Energy        =      -2.3841815158084265 [Eh]
	 Total Energy              =    -517.8331495300279812 [Eh]

	 ================> DF-SCS-MP2 Energies <==================
	-----------------------------------------------------------
	 SCS Same-Spin Scale       =       0.3333333333333333 [-]
	 SCS Opposite-Spin Scale   =       1.2000000000000000 [-]
	 SCS Same-Spin Energy      =      -0.1942960365487078 [Eh]
	 SCS Opposite-Spin Energy  =      -2.1615520873947638 [Eh]
	 SCS Correlation Energy    =      -2.3558481239434714 [Eh]
	 SCS Total Energy          =    -517.8048161381630052 [Eh]
	-----------------------------------------------------------

  Dipole Moment: [D]
     X:     0.4769      Y:     0.5468      Z:    -1.1320     Total:     1.3446

*** Psi4 exiting successfully. Buy a developer a beer!
