                               Psi4 1.3.2 release

  ==> Input File <==

--------------------------------------------------------------------------
#psi4
#
memory 32 gb

molecule  {
0 1
  N       -0.8580750     2.1650740    -0.5094440
  C       -0.6634250    -0.2127650     0.0691530
  C        0.8157840    -0.1537790     0.0420590
  C       -1.4088508     1.0068452    -0.2613335
  C       -1.3025160    -1.4250040     0.3687340
  C        1.5441380    -1.0912920    -0.7082460
  C        1.5175140     0.8066950     0.7907500
  C       -2.8485400     0.8086890    -0.1980070
  C       -2.6918610    -1.5288690     0.3976690
  C       -3.4646370    -0.4031430     0.1053440
  C        2.9393010    -1.0716050    -0.7093040
  C        2.9130560     0.8267600     0.7846130
  C        3.6278980    -0.1122400     0.0369440
  H       -0.6848640    -2.2871190     0.6142040
  H        1.0058700    -1.8278860    -1.3015600
  H        0.9614050     1.5295600     1.3833290
  H       -3.4548610     1.6831510    -0.4309120
  H       -3.1654310    -2.4765660     0.6404150
  H       -4.5504850    -0.4615560     0.1267090
  H        3.4898150    -1.8022040    -1.2977600
  H        3.4438080     1.5707970     1.3744420
  H        4.7151610    -0.0954640     0.0345500
  H        0.0736060     2.0855870    -0.9073830
  H       -1.4416920     2.7564150    -1.0941350
units angstrom
no_reorient  #important for SAPT in psi4, default
symmetry c1  #important for SAPT in psi4, default
}

set PROPERTIES_ORIGIN ["COM"]
properties('MP2/aug-cc-pvtz', properties = ['dipole'])
--------------------------------------------------------------------------

    Molecular point group: c1
  Charge       = 0
  Multiplicity = 1
  Basis Set: AUG-CC-PVTZ
    Blend: AUG-CC-PVTZ
  Basis Set: (AUG-CC-PVTZ AUX)
    Blend: AUG-CC-PVTZ-JKFIT

    Orbital Energies [Eh]
    ---------------------

    Doubly Occupied:

       1A    -15.577189     2A    -11.289653     3A    -11.244119
       4A    -11.238672     5A    -11.238258     6A    -11.236097
       7A    -11.235972     8A    -11.235006     9A    -11.234893
      10A    -11.234660    11A    -11.234194    12A    -11.227007
      13A    -11.216726    14A     -1.265099    15A     -1.156810
      16A     -1.120111    17A     -1.047613    18A     -1.014492
      19A     -0.987308    20A     -0.965703    21A     -0.849566
      22A     -0.834274    23A     -0.811719    24A     -0.788250
      25A     -0.714895    26A     -0.702204    27A     -0.695928
      28A     -0.660021    29A     -0.626594    30A     -0.624656
      31A     -0.594863    32A     -0.585978    33A     -0.582947
      34A     -0.574181    35A     -0.546101    36A     -0.525536
      37A     -0.505319    38A     -0.500757    39A     -0.489556
      40A     -0.465512    41A     -0.455347    42A     -0.358468
      43A     -0.338341    44A     -0.314489    45A     -0.276625

  @DF-RHF Final Energy:  -515.43619792472828

   => Energetics <=

    Nuclear Repulsion Energy =            708.6777819426273481
    One-Electron Energy =               -2103.3845415620862696
    Two-Electron Energy =                 879.2705616947305316
    Total Energy =                       -515.4361979247282761
  Basis Set: (AUG-CC-PVTZ AUX)
    Blend: AUG-CC-PVTZ-RI
    Molecular point group: c1

    Geometry (in Angstrom), charge = 0, multiplicity = 1:

       Center              X                  Y                   Z               Mass
    ------------   -----------------  -----------------  -----------------  -----------------
         N           -0.858749488485     2.162701331409    -0.513121990582    14.003074004430
         C           -0.664099488485    -0.215137668591     0.065475009418    12.000000000000
         C            0.815109511515    -0.156151668591     0.038381009418    12.000000000000
         C           -1.409525288485     1.004472531409    -0.265011490582    12.000000000000
         C           -1.303190488485    -1.427376668591     0.365056009418    12.000000000000
         C            1.543463511515    -1.093664668591    -0.711923990582    12.000000000000
         C            1.516839511515     0.804322331409     0.787072009418    12.000000000000
         C           -2.849214488485     0.806316331409    -0.201684990582    12.000000000000
         C           -2.692535488485    -1.531241668591     0.393991009418    12.000000000000
         C           -3.465311488485    -0.405515668591     0.101666009418    12.000000000000
         C            2.938626511515    -1.073977668591    -0.712981990582    12.000000000000
         C            2.912381511515     0.824387331409     0.780935009418    12.000000000000
         C            3.627223511515    -0.114612668591     0.033266009418    12.000000000000
         H           -0.685538488485    -2.289491668591     0.610526009418     1.007825032230
         H            1.005195511515    -1.830258668591    -1.305237990582     1.007825032230
         H            0.960730511515     1.527187331409     1.379651009418     1.007825032230
         H           -3.455535488485     1.680778331409    -0.434589990582     1.007825032230
         H           -3.166105488485    -2.478938668591     0.636737009418     1.007825032230
         H           -4.551159488485    -0.463928668591     0.123031009418     1.007825032230
         H            3.489140511515    -1.804576668591    -1.301437990582     1.007825032230
         H            3.443133511515     1.568424331409     1.370764009418     1.007825032230
         H            4.714486511515    -0.097836668591     0.030872009418     1.007825032230
         H            0.072931511515     2.083214331409    -0.911060990582     1.007825032230
         H           -1.442366488485     2.754042331409    -1.097812990582     1.007825032230

  Basis Set: AUG-CC-PVTZ
    Blend: AUG-CC-PVTZ
  Basis Set: (AUG-CC-PVTZ AUX)
    Blend: AUG-CC-PVTZ-JKFIT
	 Reference Energy          =    -515.4361979247282761 [Eh]
	 Singles Energy            =      -0.0000000000000000 [Eh]
	 Same-Spin Energy          =      -0.5841438830144582 [Eh]
	 Opposite-Spin Energy      =      -1.8024365670996949 [Eh]
	 Correlation Energy        =      -2.3865804501141530 [Eh]
	 Total Energy              =    -517.8227783748424145 [Eh]

	 ================> DF-SCS-MP2 Energies <==================
	-----------------------------------------------------------
	 SCS Same-Spin Scale       =       0.3333333333333333 [-]
	 SCS Opposite-Spin Scale   =       1.2000000000000000 [-]
	 SCS Same-Spin Energy      =      -0.1947146276714861 [Eh]
	 SCS Opposite-Spin Energy  =      -2.1629238805196338 [Eh]
	 SCS Correlation Energy    =      -2.3576385081911200 [Eh]
	 SCS Total Energy          =    -517.7938364329194201 [Eh]
	-----------------------------------------------------------

  Dipole Moment: [D]
     X:     0.6771      Y:     1.1049      Z:    -1.2791     Total:     1.8208

*** Psi4 exiting successfully. Buy a developer a beer!
