                               Psi4 1.3.2 release

  ==> Input File <==

--------------------------------------------------------------------------
#psi4
#
memory 32 gb

molecule  {
0 1
  N       -0.8580750     2.1650740    -0.5094440
  C       -0.7903498    -0.2854973     0.0908936
  C        0.8157840    -0.1537790     0.0420590
  C       -1.4510140     0.9181800    -0.2423400
  C       -1.3025160    -1.4250040     0.3687340
  C        1.5441380    -1.0912920    -0.7082460
  C        1.5175140     0.8066950     0.7907500
  C       -2.8485400     0.8086890    -0.1980070
  C       -2.6918610    -1.5288690     0.3976690
  C       -3.4646370    -0.4031430     0.1053440
  C        2.9393010    -1.0716050    -0.7093040
  C        2.9130560     0.8267600     0.7846130
  C        3.6278980    -0.1122400     0.0369440
  H       -0.6848640    -2.2871190     0.6142040
  H        1.0058700    -1.8278860    -1.3015600
  H        0.9614050     1.5295600     1.3833290
  H       -3.4548610     1.6831510    -0.4309120
  H       -3.1654310    -2.4765660     0.6404150
  H       -4.5504850    -0.4615560     0.1267090
  H        3.4898150    -1.8022040    -1.2977600
  H        3.4438080     1.5707970     1.3744420
  H        4.7151610    -0.0954640     0.0345500
  H        0.0736060     2.0855870    -0.9073830
  H       -1.4416920     2.7564150    -1.0941350
units angstrom
no_reorient  #important for SAPT in psi4, default
symmetry c1  #important for SAPT in psi4, default
}

set PROPERTIES_ORIGIN ["COM"]
properties('MP2/aug-cc-pvtz', properties = ['dipole'])
--------------------------------------------------------------------------

    Molecular point group: c1
  Charge       = 0
  Multiplicity = 1
  Basis Set: AUG-CC-PVTZ
    Blend: AUG-CC-PVTZ
  Basis Set: (AUG-CC-PVTZ AUX)
    Blend: AUG-CC-PVTZ-JKFIT

    Orbital Energies [Eh]
    ---------------------

    Doubly Occupied:

       1A    -15.569778     2A    -11.281102     3A    -11.249890
       4A    -11.238112     5A    -11.237692     6A    -11.235656
       7A    -11.234881     8A    -11.234702     9A    -11.234493
      10A    -11.233931    11A    -11.225325    12A    -11.222532
      13A    -11.221125    14A     -1.226707    15A     -1.155016
      16A     -1.138628    17A     -1.044092    18A     -1.013533
      19A     -1.001654    20A     -0.977145    21A     -0.840891
      22A     -0.833973    23A     -0.815809    24A     -0.791738
      25A     -0.712673    26A     -0.689352    27A     -0.685097
      28A     -0.649763    29A     -0.622162    30A     -0.620743
      31A     -0.608633    32A     -0.591862    33A     -0.585163
      34A     -0.573971    35A     -0.540683    36A     -0.524263
      37A     -0.510485    38A     -0.499870    39A     -0.491745
      40A     -0.459239    41A     -0.446552    42A     -0.361882
      43A     -0.337440    44A     -0.325550    45A     -0.291891

  @DF-RHF Final Energy:  -515.42683023874849

   => Energetics <=

    Nuclear Repulsion Energy =            709.0132328262490091
    One-Electron Energy =               -2104.1052726390616954
    Two-Electron Energy =                 879.6652095740643063
    Total Energy =                       -515.4268302387484937
  Basis Set: (AUG-CC-PVTZ AUX)
    Blend: AUG-CC-PVTZ-RI
    Molecular point group: c1

    Geometry (in Angstrom), charge = 0, multiplicity = 1:

       Center              X                  Y                   Z               Mass
    ------------   -----------------  -----------------  -----------------  -----------------
         N           -0.846749570053     2.174155466742    -0.516012827764    14.003074004430
         C           -0.779024370053    -0.276415833258     0.084324772236    12.000000000000
         C            0.827109429947    -0.144697533258     0.035490172236    12.000000000000
         C           -1.439688570053     0.927261466742    -0.248908827764    12.000000000000
         C           -1.291190570053    -1.415922533258     0.362165172236    12.000000000000
         C            1.555463429947    -1.082210533258    -0.714814827764    12.000000000000
         C            1.528839429947     0.815776466742     0.784181172236    12.000000000000
         C           -2.837214570053     0.817770466742    -0.204575827764    12.000000000000
         C           -2.680535570053    -1.519787533258     0.391100172236    12.000000000000
         C           -3.453311570053    -0.394061533258     0.098775172236    12.000000000000
         C            2.950626429947    -1.062523533258    -0.715872827764    12.000000000000
         C            2.924381429947     0.835841466742     0.778044172236    12.000000000000
         C            3.639223429947    -0.103158533258     0.030375172236    12.000000000000
         H           -0.673538570053    -2.278037533258     0.607635172236     1.007825032230
         H            1.017195429947    -1.818804533258    -1.308128827764     1.007825032230
         H            0.972730429947     1.538641466742     1.376760172236     1.007825032230
         H           -3.443535570053     1.692232466742    -0.437480827764     1.007825032230
         H           -3.154105570053    -2.467484533258     0.633846172236     1.007825032230
         H           -4.539159570053    -0.452474533258     0.120140172236     1.007825032230
         H            3.501140429947    -1.793122533258    -1.304328827764     1.007825032230
         H            3.455133429947     1.579878466742     1.367873172236     1.007825032230
         H            4.726486429947    -0.086382533258     0.027981172236     1.007825032230
         H            0.084931429947     2.094668466742    -0.913951827764     1.007825032230
         H           -1.430366570053     2.765496466742    -1.100703827764     1.007825032230

  Basis Set: AUG-CC-PVTZ
    Blend: AUG-CC-PVTZ
  Basis Set: (AUG-CC-PVTZ AUX)
    Blend: AUG-CC-PVTZ-JKFIT
	 Reference Energy          =    -515.4268302387484937 [Eh]
	 Singles Energy            =      -0.0000000000000000 [Eh]
	 Same-Spin Energy          =      -0.5823102490193737 [Eh]
	 Opposite-Spin Energy      =      -1.8007072035242562 [Eh]
	 Correlation Energy        =      -2.3830174525436298 [Eh]
	 Total Energy              =    -517.8098476912921342 [Eh]

	 ================> DF-SCS-MP2 Energies <==================
	-----------------------------------------------------------
	 SCS Same-Spin Scale       =       0.3333333333333333 [-]
	 SCS Opposite-Spin Scale   =       1.2000000000000000 [-]
	 SCS Same-Spin Energy      =      -0.1941034163397912 [Eh]
	 SCS Opposite-Spin Energy  =      -2.1608486442291075 [Eh]
	 SCS Correlation Energy    =      -2.3549520605688987 [Eh]
	 SCS Total Energy          =    -517.7817822993173422 [Eh]
	-----------------------------------------------------------

  Dipole Moment: [D]
     X:     0.3803      Y:     0.5751      Z:    -1.1334     Total:     1.3266

*** Psi4 exiting successfully. Buy a developer a beer!
