                               Psi4 1.3.2 release

  ==> Input File <==

--------------------------------------------------------------------------
#psi4
#
memory 32 gb

molecule  {
0 1
  N       -0.8580750     2.1650740    -0.5094440
  C       -0.6634250    -0.2127650     0.0691530
  C        0.8157840    -0.1537790     0.0420590
  C       -1.4510140     0.9181800    -0.2423400
  C       -1.3025160    -1.4250040     0.3687340
  C        1.5959997    -1.1580466    -0.7616707
  C        1.5175140     0.8066950     0.7907500
  C       -2.8485400     0.8086890    -0.1980070
  C       -2.6918610    -1.5288690     0.3976690
  C       -3.4646370    -0.4031430     0.1053440
  C        2.9393010    -1.0716050    -0.7093040
  C        2.9130560     0.8267600     0.7846130
  C        3.6278980    -0.1122400     0.0369440
  H       -0.6848640    -2.2871190     0.6142040
  H        1.0058700    -1.8278860    -1.3015600
  H        0.9614050     1.5295600     1.3833290
  H       -3.4548610     1.6831510    -0.4309120
  H       -3.1654310    -2.4765660     0.6404150
  H       -4.5504850    -0.4615560     0.1267090
  H        3.4898150    -1.8022040    -1.2977600
  H        3.4438080     1.5707970     1.3744420
  H        4.7151610    -0.0954640     0.0345500
  H        0.0736060     2.0855870    -0.9073830
  H       -1.4416920     2.7564150    -1.0941350
units angstrom
no_reorient  #important for SAPT in psi4, default
symmetry c1  #important for SAPT in psi4, default
}

set PROPERTIES_ORIGIN ["COM"]
properties('MP2/aug-cc-pvtz', properties = ['dipole'])
--------------------------------------------------------------------------

    Molecular point group: c1
  Charge       = 0
  Multiplicity = 1
  Basis Set: AUG-CC-PVTZ
    Blend: AUG-CC-PVTZ
  Basis Set: (AUG-CC-PVTZ AUX)
    Blend: AUG-CC-PVTZ-JKFIT

    Orbital Energies [Eh]
    ---------------------

    Doubly Occupied:

       1A    -15.564187     2A    -11.280449     3A    -11.255482
       4A    -11.239880     5A    -11.238001     6A    -11.237389
       7A    -11.237348     8A    -11.237139     9A    -11.236215
      10A    -11.234642    11A    -11.233742    12A    -11.227406
      13A    -11.223503    14A     -1.224770    15A     -1.151512
      16A     -1.126073    17A     -1.048581    18A     -1.022700
      19A     -0.993018    20A     -0.970600    21A     -0.855995
      22A     -0.830599    23A     -0.812732    24A     -0.787169
      25A     -0.711344    26A     -0.689012    27A     -0.685207
      28A     -0.660593    29A     -0.628975    30A     -0.616965
      31A     -0.596402    32A     -0.593792    33A     -0.587957
      34A     -0.576401    35A     -0.536413    36A     -0.529210
      37A     -0.504377    38A     -0.498284    39A     -0.490302
      40A     -0.473197    41A     -0.448361    42A     -0.359177
      43A     -0.344265    44A     -0.315170    45A     -0.287632

  @DF-RHF Final Energy:  -515.44014277271049

   => Energetics <=

    Nuclear Repulsion Energy =            707.5602568841275115
    One-Electron Energy =               -2101.1964694038688322
    Two-Electron Energy =                 878.1960697470308332
    Total Energy =                       -515.4401427727104874
  Basis Set: (AUG-CC-PVTZ AUX)
    Blend: AUG-CC-PVTZ-RI
    Molecular point group: c1

    Geometry (in Angstrom), charge = 0, multiplicity = 1:

       Center              X                  Y                   Z               Mass
    ------------   -----------------  -----------------  -----------------  -----------------
         N           -0.859437776293     2.173731238456    -0.510678460636    14.003074004430
         C           -0.664787776293    -0.204107761544     0.067918539364    12.000000000000
         C            0.814421223707    -0.145121761544     0.040824539364    12.000000000000
         C           -1.452376776293     0.926837238456    -0.243574460636    12.000000000000
         C           -1.303878776293    -1.416346761544     0.367499539364    12.000000000000
         C            1.594636923707    -1.149389361544    -0.762905160636    12.000000000000
         C            1.516151223707     0.815352238456     0.789515539364    12.000000000000
         C           -2.849902776293     0.817346238456    -0.199241460636    12.000000000000
         C           -2.693223776293    -1.520211761544     0.396434539364    12.000000000000
         C           -3.465999776293    -0.394485761544     0.104109539364    12.000000000000
         C            2.937938223707    -1.062947761544    -0.710538460636    12.000000000000
         C            2.911693223707     0.835417238456     0.783378539364    12.000000000000
         C            3.626535223707    -0.103582761544     0.035709539364    12.000000000000
         H           -0.686226776293    -2.278461761544     0.612969539364     1.007825032230
         H            1.004507223707    -1.819228761544    -1.302794460636     1.007825032230
         H            0.960042223707     1.538217238456     1.382094539364     1.007825032230
         H           -3.456223776293     1.691808238456    -0.432146460636     1.007825032230
         H           -3.166793776293    -2.467908761544     0.639180539364     1.007825032230
         H           -4.551847776293    -0.452898761544     0.125474539364     1.007825032230
         H            3.488452223707    -1.793546761544    -1.298994460636     1.007825032230
         H            3.442445223707     1.579454238456     1.373207539364     1.007825032230
         H            4.713798223707    -0.086806761544     0.033315539364     1.007825032230
         H            0.072243223707     2.094244238456    -0.908617460636     1.007825032230
         H           -1.443054776293     2.765072238456    -1.095369460636     1.007825032230

  Basis Set: AUG-CC-PVTZ
    Blend: AUG-CC-PVTZ
  Basis Set: (AUG-CC-PVTZ AUX)
    Blend: AUG-CC-PVTZ-JKFIT
	 Reference Energy          =    -515.4401427727104874 [Eh]
	 Singles Energy            =      -0.0000000000000000 [Eh]
	 Same-Spin Energy          =      -0.5828981822237070 [Eh]
	 Opposite-Spin Energy      =      -1.8019832757188092 [Eh]
	 Correlation Energy        =      -2.3848814579425164 [Eh]
	 Total Energy              =    -517.8250242306529572 [Eh]

	 ================> DF-SCS-MP2 Energies <==================
	-----------------------------------------------------------
	 SCS Same-Spin Scale       =       0.3333333333333333 [-]
	 SCS Opposite-Spin Scale   =       1.2000000000000000 [-]
	 SCS Same-Spin Energy      =      -0.1942993940745690 [Eh]
	 SCS Opposite-Spin Energy  =      -2.1623799308625711 [Eh]
	 SCS Correlation Energy    =      -2.3566793249371401 [Eh]
	 SCS Total Energy          =    -517.7968220976475777 [Eh]
	-----------------------------------------------------------

  Dipole Moment: [D]
     X:     0.4184      Y:     0.5581      Z:    -1.1210     Total:     1.3203

*** Psi4 exiting successfully. Buy a developer a beer!
