                               Psi4 1.3.2 release

  ==> Input File <==

--------------------------------------------------------------------------
#psi4
#
memory 32 gb

molecule  {
0 1
  N       -0.8580750     2.1650740    -0.5094440
  C       -0.6634250    -0.2127650     0.0691530
  C        0.8166527    -0.2532860     0.0699542
  C       -1.4510140     0.9181800    -0.2423400
  C       -1.3025160    -1.4250040     0.3687340
  C        1.5441380    -1.0912920    -0.7082460
  C        1.5175140     0.8066950     0.7907500
  C       -2.8485400     0.8086890    -0.1980070
  C       -2.6918610    -1.5288690     0.3976690
  C       -3.4646370    -0.4031430     0.1053440
  C        2.9393010    -1.0716050    -0.7093040
  C        2.9130560     0.8267600     0.7846130
  C        3.6278980    -0.1122400     0.0369440
  H       -0.6848640    -2.2871190     0.6142040
  H        1.0058700    -1.8278860    -1.3015600
  H        0.9614050     1.5295600     1.3833290
  H       -3.4548610     1.6831510    -0.4309120
  H       -3.1654310    -2.4765660     0.6404150
  H       -4.5504850    -0.4615560     0.1267090
  H        3.4898150    -1.8022040    -1.2977600
  H        3.4438080     1.5707970     1.3744420
  H        4.7151610    -0.0954640     0.0345500
  H        0.0736060     2.0855870    -0.9073830
  H       -1.4416920     2.7564150    -1.0941350
units angstrom
no_reorient  #important for SAPT in psi4, default
symmetry c1  #important for SAPT in psi4, default
}

set PROPERTIES_ORIGIN ["COM"]
properties('MP2/aug-cc-pvtz', properties = ['dipole'])
--------------------------------------------------------------------------

    Molecular point group: c1
  Charge       = 0
  Multiplicity = 1
  Basis Set: AUG-CC-PVTZ
    Blend: AUG-CC-PVTZ
  Basis Set: (AUG-CC-PVTZ AUX)
    Blend: AUG-CC-PVTZ-JKFIT

    Orbital Energies [Eh]
    ---------------------

    Doubly Occupied:

       1A    -15.564879     2A    -11.281921     3A    -11.246977
       4A    -11.240408     5A    -11.239184     6A    -11.238142
       7A    -11.236938     8A    -11.236869     9A    -11.236341
      10A    -11.234475    11A    -11.231796    12A    -11.227788
      13A    -11.222416    14A     -1.224929    15A     -1.156998
      16A     -1.125695    17A     -1.052705    18A     -1.014624
      19A     -0.993619    20A     -0.974003    21A     -0.850671
      22A     -0.837148    23A     -0.810944    24A     -0.788495
      25A     -0.712337    26A     -0.685984    27A     -0.685638
      28A     -0.655689    29A     -0.625396    30A     -0.622371
      31A     -0.595055    32A     -0.592688    33A     -0.588625
      34A     -0.575803    35A     -0.537112    36A     -0.523726
      37A     -0.506980    38A     -0.500225    39A     -0.490938
      40A     -0.474161    41A     -0.448901    42A     -0.362083
      43A     -0.338243    44A     -0.317169    45A     -0.290364

  @DF-RHF Final Energy:  -515.44472215994494

   => Energetics <=

    Nuclear Repulsion Energy =            708.8143881468780592
    One-Electron Energy =               -2103.7233135948958989
    Two-Electron Energy =                 879.4642032880727811
    Total Energy =                       -515.4447221599449449
  Basis Set: (AUG-CC-PVTZ AUX)
    Blend: AUG-CC-PVTZ-RI
    Molecular point group: c1

    Geometry (in Angstrom), charge = 0, multiplicity = 1:

       Center              X                  Y                   Z               Mass
    ------------   -----------------  -----------------  -----------------  -----------------
         N           -0.855818880567     2.176055626517    -0.516449610374    14.003074004430
         C           -0.661168880567    -0.201783373483     0.062147389626    12.000000000000
         C            0.818908819433    -0.242304373483     0.062948589626    12.000000000000
         C           -1.448757880567     0.929161626517    -0.249345610374    12.000000000000
         C           -1.300259880567    -1.414022373483     0.361728389626    12.000000000000
         C            1.546394119433    -1.080310373483    -0.715251610374    12.000000000000
         C            1.519770119433     0.817676626517     0.783744389626    12.000000000000
         C           -2.846283880567     0.819670626517    -0.205012610374    12.000000000000
         C           -2.689604880567    -1.517887373483     0.390663389626    12.000000000000
         C           -3.462380880567    -0.392161373483     0.098338389626    12.000000000000
         C            2.941557119433    -1.060623373483    -0.716309610374    12.000000000000
         C            2.915312119433     0.837741626517     0.777607389626    12.000000000000
         C            3.630154119433    -0.101258373483     0.029938389626    12.000000000000
         H           -0.682607880567    -2.276137373483     0.607198389626     1.007825032230
         H            1.008126119433    -1.816904373483    -1.308565610374     1.007825032230
         H            0.963661119433     1.540541626517     1.376323389626     1.007825032230
         H           -3.452604880567     1.694132626517    -0.437917610374     1.007825032230
         H           -3.163174880567    -2.465584373483     0.633409389626     1.007825032230
         H           -4.548228880567    -0.450574373483     0.119703389626     1.007825032230
         H            3.492071119433    -1.791222373483    -1.304765610374     1.007825032230
         H            3.446064119433     1.581778626517     1.367436389626     1.007825032230
         H            4.717417119433    -0.084482373483     0.027544389626     1.007825032230
         H            0.075862119433     2.096568626517    -0.914388610374     1.007825032230
         H           -1.439435880567     2.767396626517    -1.101140610374     1.007825032230

  Basis Set: AUG-CC-PVTZ
    Blend: AUG-CC-PVTZ
  Basis Set: (AUG-CC-PVTZ AUX)
    Blend: AUG-CC-PVTZ-JKFIT
	 Reference Energy          =    -515.4447221599449449 [Eh]
	 Singles Energy            =      -0.0000000000000000 [Eh]
	 Same-Spin Energy          =      -0.5829044108674809 [Eh]
	 Opposite-Spin Energy      =      -1.8016892549378873 [Eh]
	 Correlation Energy        =      -2.3845936658053684 [Eh]
	 Total Energy              =    -517.8293158257503137 [Eh]

	 ================> DF-SCS-MP2 Energies <==================
	-----------------------------------------------------------
	 SCS Same-Spin Scale       =       0.3333333333333333 [-]
	 SCS Opposite-Spin Scale   =       1.2000000000000000 [-]
	 SCS Same-Spin Energy      =      -0.1943014702891603 [Eh]
	 SCS Opposite-Spin Energy  =      -2.1620271059254645 [Eh]
	 SCS Correlation Energy    =      -2.3563285762146249 [Eh]
	 SCS Total Energy          =    -517.8010507361595955 [Eh]
	-----------------------------------------------------------

  Dipole Moment: [D]
     X:     0.4380      Y:     0.5756      Z:    -1.1497     Total:     1.3584

*** Psi4 exiting successfully. Buy a developer a beer!
