                               Psi4 1.3.2 release

  ==> Input File <==

--------------------------------------------------------------------------
#psi4
#
memory 32 gb

molecule  {
0 1
  N       -0.8580750     2.1650740    -0.5094440
  C       -0.6634250    -0.2127650     0.0691530
  C        0.8077087    -0.0545594     0.0142958
  C       -1.4510140     0.9181800    -0.2423400
  C       -1.3025160    -1.4250040     0.3687340
  C        1.5441380    -1.0912920    -0.7082460
  C        1.5175140     0.8066950     0.7907500
  C       -2.8485400     0.8086890    -0.1980070
  C       -2.6918610    -1.5288690     0.3976690
  C       -3.4646370    -0.4031430     0.1053440
  C        2.9393010    -1.0716050    -0.7093040
  C        2.9130560     0.8267600     0.7846130
  C        3.6278980    -0.1122400     0.0369440
  H       -0.6848640    -2.2871190     0.6142040
  H        1.0058700    -1.8278860    -1.3015600
  H        0.9614050     1.5295600     1.3833290
  H       -3.4548610     1.6831510    -0.4309120
  H       -3.1654310    -2.4765660     0.6404150
  H       -4.5504850    -0.4615560     0.1267090
  H        3.4898150    -1.8022040    -1.2977600
  H        3.4438080     1.5707970     1.3744420
  H        4.7151610    -0.0954640     0.0345500
  H        0.0736060     2.0855870    -0.9073830
  H       -1.4416920     2.7564150    -1.0941350
units angstrom
no_reorient  #important for SAPT in psi4, default
symmetry c1  #important for SAPT in psi4, default
}

set PROPERTIES_ORIGIN ["COM"]
properties('MP2/aug-cc-pvtz', properties = ['dipole'])
--------------------------------------------------------------------------

    Molecular point group: c1
  Charge       = 0
  Multiplicity = 1
  Basis Set: AUG-CC-PVTZ
    Blend: AUG-CC-PVTZ
  Basis Set: (AUG-CC-PVTZ AUX)
    Blend: AUG-CC-PVTZ-JKFIT

    Orbital Energies [Eh]
    ---------------------

    Doubly Occupied:

       1A    -15.563966     2A    -11.277929     3A    -11.246767
       4A    -11.242929     5A    -11.239414     6A    -11.238545
       7A    -11.237998     8A    -11.237611     9A    -11.236692
      10A    -11.236152    11A    -11.231730    12A    -11.226266
      13A    -11.223647    14A     -1.225379    15A     -1.155434
      16A     -1.125570    17A     -1.051662    18A     -1.015979
      19A     -0.993537    20A     -0.973680    21A     -0.854464
      22A     -0.831923    23A     -0.812552    24A     -0.788077
      25A     -0.711633    26A     -0.686369    27A     -0.684868
      28A     -0.657109    29A     -0.626136    30A     -0.621054
      31A     -0.595816    32A     -0.592097    33A     -0.584488
      34A     -0.579304    35A     -0.537106    36A     -0.523150
      37A     -0.505343    38A     -0.499816    39A     -0.494837
      40A     -0.472747    41A     -0.448516    42A     -0.362514
      43A     -0.337014    44A     -0.318289    45A     -0.289872

  @DF-RHF Final Energy:  -515.44388618687549

   => Energetics <=

    Nuclear Repulsion Energy =            709.1930992807089069
    One-Electron Energy =               -2104.4820102209482684
    Two-Electron Energy =                 879.8450247533639867
    Total Energy =                       -515.4438861868754884
  Basis Set: (AUG-CC-PVTZ AUX)
    Blend: AUG-CC-PVTZ-RI
    Molecular point group: c1

    Geometry (in Angstrom), charge = 0, multiplicity = 1:

       Center              X                  Y                   Z               Mass
    ------------   -----------------  -----------------  -----------------  -----------------
         N           -0.855184138477     2.161952301679    -0.512499618299    14.003074004430
         C           -0.660534138477    -0.215886698321     0.066097381701    12.000000000000
         C            0.810599561523    -0.057681098321     0.011240181701    12.000000000000
         C           -1.448123138477     0.915058301679    -0.245395618299    12.000000000000
         C           -1.299625138477    -1.428125698321     0.365678381701    12.000000000000
         C            1.547028861523    -1.094413698321    -0.711301618299    12.000000000000
         C            1.520404861523     0.803573301679     0.787694381701    12.000000000000
         C           -2.845649138477     0.805567301679    -0.201062618299    12.000000000000
         C           -2.688970138477    -1.531990698321     0.394613381701    12.000000000000
         C           -3.461746138477    -0.406264698321     0.102288381701    12.000000000000
         C            2.942191861523    -1.074726698321    -0.712359618299    12.000000000000
         C            2.915946861523     0.823638301679     0.781557381701    12.000000000000
         C            3.630788861523    -0.115361698321     0.033888381701    12.000000000000
         H           -0.681973138477    -2.290240698321     0.611148381701     1.007825032230
         H            1.008760861523    -1.831007698321    -1.304615618299     1.007825032230
         H            0.964295861523     1.526438301679     1.380273381701     1.007825032230
         H           -3.451970138477     1.680029301679    -0.433967618299     1.007825032230
         H           -3.162540138477    -2.479687698321     0.637359381701     1.007825032230
         H           -4.547594138477    -0.464677698321     0.123653381701     1.007825032230
         H            3.492705861523    -1.805325698321    -1.300815618299     1.007825032230
         H            3.446698861523     1.567675301679     1.371386381701     1.007825032230
         H            4.718051861523    -0.098585698321     0.031494381701     1.007825032230
         H            0.076496861523     2.082465301679    -0.910438618299     1.007825032230
         H           -1.438801138477     2.753293301679    -1.097190618299     1.007825032230

  Basis Set: AUG-CC-PVTZ
    Blend: AUG-CC-PVTZ
  Basis Set: (AUG-CC-PVTZ AUX)
    Blend: AUG-CC-PVTZ-JKFIT
	 Reference Energy          =    -515.4438861868754884 [Eh]
	 Singles Energy            =      -0.0000000000000000 [Eh]
	 Same-Spin Energy          =      -0.5832037805317706 [Eh]
	 Opposite-Spin Energy      =      -1.8021585925698687 [Eh]
	 Correlation Energy        =      -2.3853623731016391 [Eh]
	 Total Energy              =    -517.8292485599771453 [Eh]

	 ================> DF-SCS-MP2 Energies <==================
	-----------------------------------------------------------
	 SCS Same-Spin Scale       =       0.3333333333333333 [-]
	 SCS Opposite-Spin Scale   =       1.2000000000000000 [-]
	 SCS Same-Spin Energy      =      -0.1944012601772568 [Eh]
	 SCS Opposite-Spin Energy  =      -2.1625903110838425 [Eh]
	 SCS Correlation Energy    =      -2.3569915712610991 [Eh]
	 SCS Total Energy          =    -517.8008777581366076 [Eh]
	-----------------------------------------------------------

  Dipole Moment: [D]
     X:     0.4911      Y:     0.5222      Z:    -1.1074     Total:     1.3191

*** Psi4 exiting successfully. Buy a developer a beer!
