                               Psi4 1.3.2 release

  ==> Input File <==

--------------------------------------------------------------------------
#psi4
#
memory 32 gb

molecule  {
0 1
  N       -0.8580750     2.1650740    -0.5094440
  C       -0.6634250    -0.2127650     0.0691530
  C        1.0155917    -0.1458113     0.0383992
  C       -1.4510140     0.9181800    -0.2423400
  C       -1.3025160    -1.4250040     0.3687340
  C        1.5441380    -1.0912920    -0.7082460
  C        1.5175140     0.8066950     0.7907500
  C       -2.8485400     0.8086890    -0.1980070
  C       -2.6918610    -1.5288690     0.3976690
  C       -3.4646370    -0.4031430     0.1053440
  C        2.9393010    -1.0716050    -0.7093040
  C        2.9130560     0.8267600     0.7846130
  C        3.6278980    -0.1122400     0.0369440
  H       -0.6848640    -2.2871190     0.6142040
  H        1.0058700    -1.8278860    -1.3015600
  H        0.9614050     1.5295600     1.3833290
  H       -3.4548610     1.6831510    -0.4309120
  H       -3.1654310    -2.4765660     0.6404150
  H       -4.5504850    -0.4615560     0.1267090
  H        3.4898150    -1.8022040    -1.2977600
  H        3.4438080     1.5707970     1.3744420
  H        4.7151610    -0.0954640     0.0345500
  H        0.0736060     2.0855870    -0.9073830
  H       -1.4416920     2.7564150    -1.0941350
units angstrom
no_reorient  #important for SAPT in psi4, default
symmetry c1  #important for SAPT in psi4, default
}

set PROPERTIES_ORIGIN ["COM"]
properties('MP2/aug-cc-pvtz', properties = ['dipole'])
--------------------------------------------------------------------------

    Molecular point group: c1
  Charge       = 0
  Multiplicity = 1
  Basis Set: AUG-CC-PVTZ
    Blend: AUG-CC-PVTZ
  Basis Set: (AUG-CC-PVTZ AUX)
    Blend: AUG-CC-PVTZ-JKFIT

    Orbital Energies [Eh]
    ---------------------

    Doubly Occupied:

       1A    -15.561824     2A    -11.275110     3A    -11.241922
       4A    -11.241579     5A    -11.241318     6A    -11.238393
       7A    -11.236113     8A    -11.232360     9A    -11.231779
      10A    -11.229734    11A    -11.227925    12A    -11.223730
      13A    -11.219867    14A     -1.220097    15A     -1.177064
      16A     -1.121209    17A     -1.038398    18A     -1.031464
      19A     -0.993537    20A     -0.974519    21A     -0.845647
      22A     -0.833217    23A     -0.810968    24A     -0.792661
      25A     -0.714083    26A     -0.684588    27A     -0.679791
      28A     -0.643536    29A     -0.642367    30A     -0.623681
      31A     -0.600603    32A     -0.587824    33A     -0.586574
      34A     -0.568921    35A     -0.535714    36A     -0.520963
      37A     -0.517451    38A     -0.514360    39A     -0.494965
      40A     -0.448120    41A     -0.430785    42A     -0.358909
      43A     -0.344668    44A     -0.323162    45A     -0.291581

  @DF-RHF Final Energy:  -515.41241290111157

   => Energetics <=

    Nuclear Repulsion Energy =            709.1054314964263767
    One-Electron Energy =               -2104.3295323308061597
    Two-Electron Energy =                 879.8116879332683311
    Total Energy =                       -515.4124129011115656
  Basis Set: (AUG-CC-PVTZ AUX)
    Blend: AUG-CC-PVTZ-RI
    Molecular point group: c1

    Geometry (in Angstrom), charge = 0, multiplicity = 1:

       Center              X                  Y                   Z               Mass
    ------------   -----------------  -----------------  -----------------  -----------------
         N           -0.869937279110     2.168428310365    -0.514210199972    14.003074004430
         C           -0.675287279110    -0.209410689635     0.064386800028    12.000000000000
         C            1.003729420890    -0.142456989635     0.033633000028    12.000000000000
         C           -1.462876279110     0.921534310365    -0.247106199972    12.000000000000
         C           -1.314378279110    -1.421649689635     0.363967800028    12.000000000000
         C            1.532275720890    -1.087937689635    -0.713012199972    12.000000000000
         C            1.505651720890     0.810049310365     0.785983800028    12.000000000000
         C           -2.860402279110     0.812043310365    -0.202773199972    12.000000000000
         C           -2.703723279110    -1.525514689635     0.392902800028    12.000000000000
         C           -3.476499279110    -0.399788689635     0.100577800028    12.000000000000
         C            2.927438720890    -1.068250689635    -0.714070199972    12.000000000000
         C            2.901193720890     0.830114310365     0.779846800028    12.000000000000
         C            3.616035720890    -0.108885689635     0.032177800028    12.000000000000
         H           -0.696726279110    -2.283764689635     0.609437800028     1.007825032230
         H            0.994007720890    -1.824531689635    -1.306326199972     1.007825032230
         H            0.949542720890     1.532914310365     1.378562800028     1.007825032230
         H           -3.466723279110     1.686505310365    -0.435678199972     1.007825032230
         H           -3.177293279110    -2.473211689635     0.635648800028     1.007825032230
         H           -4.562347279110    -0.458201689635     0.121942800028     1.007825032230
         H            3.477952720890    -1.798849689635    -1.302526199972     1.007825032230
         H            3.431945720890     1.574151310365     1.369675800028     1.007825032230
         H            4.703298720890    -0.092109689635     0.029783800028     1.007825032230
         H            0.061743720890     2.088941310365    -0.912149199972     1.007825032230
         H           -1.453554279110     2.759769310365    -1.098901199972     1.007825032230

  Basis Set: AUG-CC-PVTZ
    Blend: AUG-CC-PVTZ
  Basis Set: (AUG-CC-PVTZ AUX)
    Blend: AUG-CC-PVTZ-JKFIT
	 Reference Energy          =    -515.4124129011115656 [Eh]
	 Singles Energy            =      -0.0000000000000000 [Eh]
	 Same-Spin Energy          =      -0.5826410209093299 [Eh]
	 Opposite-Spin Energy      =      -1.8011455167211918 [Eh]
	 Correlation Energy        =      -2.3837865376305216 [Eh]
	 Total Energy              =    -517.7961994387420646 [Eh]

	 ================> DF-SCS-MP2 Energies <==================
	-----------------------------------------------------------
	 SCS Same-Spin Scale       =       0.3333333333333333 [-]
	 SCS Opposite-Spin Scale   =       1.2000000000000000 [-]
	 SCS Same-Spin Energy      =      -0.1942136736364433 [Eh]
	 SCS Opposite-Spin Energy  =      -2.1613746200654300 [Eh]
	 SCS Correlation Energy    =      -2.3555882937018735 [Eh]
	 SCS Total Energy          =    -517.7680011948134506 [Eh]
	-----------------------------------------------------------

  Dipole Moment: [D]
     X:     0.8237      Y:     0.5289      Z:    -1.1415     Total:     1.5037

*** Psi4 exiting successfully. Buy a developer a beer!
