                               Psi4 1.3.2 release

  ==> Input File <==

--------------------------------------------------------------------------
#psi4
#
memory 32 gb

molecule  {
0 1
  N       -0.8580750     2.1650740    -0.5094440
  C       -0.5835202    -0.1573381     0.0527470
  C        0.8157840    -0.1537790     0.0420590
  C       -1.4510140     0.9181800    -0.2423400
  C       -1.3025160    -1.4250040     0.3687340
  C        1.5441380    -1.0912920    -0.7082460
  C        1.5175140     0.8066950     0.7907500
  C       -2.8485400     0.8086890    -0.1980070
  C       -2.6918610    -1.5288690     0.3976690
  C       -3.4646370    -0.4031430     0.1053440
  C        2.9393010    -1.0716050    -0.7093040
  C        2.9130560     0.8267600     0.7846130
  C        3.6278980    -0.1122400     0.0369440
  H       -0.6848640    -2.2871190     0.6142040
  H        1.0058700    -1.8278860    -1.3015600
  H        0.9614050     1.5295600     1.3833290
  H       -3.4548610     1.6831510    -0.4309120
  H       -3.1654310    -2.4765660     0.6404150
  H       -4.5504850    -0.4615560     0.1267090
  H        3.4898150    -1.8022040    -1.2977600
  H        3.4438080     1.5707970     1.3744420
  H        4.7151610    -0.0954640     0.0345500
  H        0.0736060     2.0855870    -0.9073830
  H       -1.4416920     2.7564150    -1.0941350
units angstrom
no_reorient  #important for SAPT in psi4, default
symmetry c1  #important for SAPT in psi4, default
}

set PROPERTIES_ORIGIN ["COM"]
properties('MP2/aug-cc-pvtz', properties = ['dipole'])
--------------------------------------------------------------------------

    Molecular point group: c1
  Charge       = 0
  Multiplicity = 1
  Basis Set: AUG-CC-PVTZ
    Blend: AUG-CC-PVTZ
  Basis Set: (AUG-CC-PVTZ AUX)
    Blend: AUG-CC-PVTZ-JKFIT

    Orbital Energies [Eh]
    ---------------------

    Doubly Occupied:

       1A    -15.560982     2A    -11.280532     3A    -11.245014
       4A    -11.242338     5A    -11.239759     6A    -11.239251
       7A    -11.238987     8A    -11.237881     9A    -11.237397
      10A    -11.237335    11A    -11.235375    12A    -11.228872
      13A    -11.224362    14A     -1.225055    15A     -1.159253
      16A     -1.119105    17A     -1.059518    18A     -1.015931
      19A     -0.990229    20A     -0.970141    21A     -0.861300
      22A     -0.836000    23A     -0.810133    24A     -0.785193
      25A     -0.714142    26A     -0.685779    27A     -0.683730
      28A     -0.660584    29A     -0.628251    30A     -0.623040
      31A     -0.596149    32A     -0.592414    33A     -0.587335
      34A     -0.572409    35A     -0.536915    36A     -0.522751
      37A     -0.505590    38A     -0.500434    39A     -0.493151
      40A     -0.480517    41A     -0.445254    42A     -0.361047
      43A     -0.339308    44A     -0.314223    45A     -0.286218

  @DF-RHF Final Energy:  -515.43690732684763

   => Energetics <=

    Nuclear Repulsion Energy =            709.3013244717648149
    One-Electron Energy =               -2104.6580934470925968
    Two-Electron Energy =                 879.9198616484800368
    Total Energy =                       -515.4369073268476313
  Basis Set: (AUG-CC-PVTZ AUX)
    Blend: AUG-CC-PVTZ-RI
    Molecular point group: c1

    Geometry (in Angstrom), charge = 0, multiplicity = 1:

       Center              X                  Y                   Z               Mass
    ------------   -----------------  -----------------  -----------------  -----------------
         N           -0.861427952489     2.165060203055    -0.513305621526    14.003074004430
         C           -0.586873152489    -0.157351896945     0.048885378474    12.000000000000
         C            0.812431047511    -0.153792796945     0.038197378474    12.000000000000
         C           -1.454366952489     0.918166203055    -0.246201621526    12.000000000000
         C           -1.305868952489    -1.425017796945     0.364872378474    12.000000000000
         C            1.540785047511    -1.091305796945    -0.712107621526    12.000000000000
         C            1.514161047511     0.806681203055     0.786888378474    12.000000000000
         C           -2.851892952489     0.808675203055    -0.201868621526    12.000000000000
         C           -2.695213952489    -1.528882796945     0.393807378474    12.000000000000
         C           -3.467989952489    -0.403156796945     0.101482378474    12.000000000000
         C            2.935948047511    -1.071618796945    -0.713165621526    12.000000000000
         C            2.909703047511     0.826746203055     0.780751378474    12.000000000000
         C            3.624545047511    -0.112253796945     0.033082378474    12.000000000000
         H           -0.688216952489    -2.287132796945     0.610342378474     1.007825032230
         H            1.002517047511    -1.827899796945    -1.305421621526     1.007825032230
         H            0.958052047511     1.529546203055     1.379467378474     1.007825032230
         H           -3.458213952489     1.683137203055    -0.434773621526     1.007825032230
         H           -3.168783952489    -2.476579796945     0.636553378474     1.007825032230
         H           -4.553837952489    -0.461569796945     0.122847378474     1.007825032230
         H            3.486462047511    -1.802217796945    -1.301621621526     1.007825032230
         H            3.440455047511     1.570783203055     1.370580378474     1.007825032230
         H            4.711808047511    -0.095477796945     0.030688378474     1.007825032230
         H            0.070253047511     2.085573203055    -0.911244621526     1.007825032230
         H           -1.445044952489     2.756401203055    -1.097996621526     1.007825032230

  Basis Set: AUG-CC-PVTZ
    Blend: AUG-CC-PVTZ
  Basis Set: (AUG-CC-PVTZ AUX)
    Blend: AUG-CC-PVTZ-JKFIT
	 Reference Energy          =    -515.4369073268476313 [Eh]
	 Singles Energy            =      -0.0000000000000000 [Eh]
	 Same-Spin Energy          =      -0.5843802621025825 [Eh]
	 Opposite-Spin Energy      =      -1.8038041398396580 [Eh]
	 Correlation Energy        =      -2.3881844019422407 [Eh]
	 Total Energy              =    -517.8250917287898574 [Eh]

	 ================> DF-SCS-MP2 Energies <==================
	-----------------------------------------------------------
	 SCS Same-Spin Scale       =       0.3333333333333333 [-]
	 SCS Opposite-Spin Scale   =       1.2000000000000000 [-]
	 SCS Same-Spin Energy      =      -0.1947934207008608 [Eh]
	 SCS Opposite-Spin Energy  =      -2.1645649678075896 [Eh]
	 SCS Correlation Energy    =      -2.3593583885084506 [Eh]
	 SCS Total Energy          =    -517.7962657153560713 [Eh]
	-----------------------------------------------------------

  Dipole Moment: [D]
     X:     0.4704      Y:     0.5261      Z:    -1.1227     Total:     1.3260

*** Psi4 exiting successfully. Buy a developer a beer!
