                               Psi4 1.3.2 release

  ==> Input File <==

--------------------------------------------------------------------------
#psi4
#
memory 32 gb

molecule  {
0 1
  N       -0.8580750     2.1650740    -0.5094440
  C       -0.6634250    -0.2127650     0.0691530
  C        0.8157840    -0.1537790     0.0420590
  C       -1.3666876     1.0955104    -0.2803269
  C       -1.3025160    -1.4250040     0.3687340
  C        1.5441380    -1.0912920    -0.7082460
  C        1.5175140     0.8066950     0.7907500
  C       -2.8485400     0.8086890    -0.1980070
  C       -2.6918610    -1.5288690     0.3976690
  C       -3.4646370    -0.4031430     0.1053440
  C        2.9393010    -1.0716050    -0.7093040
  C        2.9130560     0.8267600     0.7846130
  C        3.6278980    -0.1122400     0.0369440
  H       -0.6848640    -2.2871190     0.6142040
  H        1.0058700    -1.8278860    -1.3015600
  H        0.9614050     1.5295600     1.3833290
  H       -3.4548610     1.6831510    -0.4309120
  H       -3.1654310    -2.4765660     0.6404150
  H       -4.5504850    -0.4615560     0.1267090
  H        3.4898150    -1.8022040    -1.2977600
  H        3.4438080     1.5707970     1.3744420
  H        4.7151610    -0.0954640     0.0345500
  H        0.0736060     2.0855870    -0.9073830
  H       -1.4416920     2.7564150    -1.0941350
units angstrom
no_reorient  #important for SAPT in psi4, default
symmetry c1  #important for SAPT in psi4, default
}

set PROPERTIES_ORIGIN ["COM"]
properties('MP2/aug-cc-pvtz', properties = ['dipole'])
--------------------------------------------------------------------------

    Molecular point group: c1
  Charge       = 0
  Multiplicity = 1
  Basis Set: AUG-CC-PVTZ
    Blend: AUG-CC-PVTZ
  Basis Set: (AUG-CC-PVTZ AUX)
    Blend: AUG-CC-PVTZ-JKFIT

    Orbital Energies [Eh]
    ---------------------

    Doubly Occupied:

       1A    -15.593058     2A    -11.299978     3A    -11.241835
       4A    -11.238478     5A    -11.237534     6A    -11.234742
       7A    -11.234720     8A    -11.233838     9A    -11.233002
      10A    -11.232715    11A    -11.232282    12A    -11.225978
      13A    -11.207785    14A     -1.321639    15A     -1.155816
      16A     -1.112425    17A     -1.043867    18A     -1.013760
      19A     -0.980658    20A     -0.955922    21A     -0.848472
      22A     -0.836986    23A     -0.817298    24A     -0.789833
      25A     -0.728315    26A     -0.721558    27A     -0.698556
      28A     -0.659408    29A     -0.626921    30A     -0.624410
      31A     -0.594787    32A     -0.585098    33A     -0.578249
      34A     -0.571505    35A     -0.561901    36A     -0.524675
      37A     -0.503964    38A     -0.499160    39A     -0.488629
      40A     -0.456905    41A     -0.445155    42A     -0.356486
      43A     -0.337952    44A     -0.311279    45A     -0.261661

  @DF-RHF Final Energy:  -515.38706138260159

   => Energetics <=

    Nuclear Repulsion Energy =            708.5152147105899303
    One-Electron Energy =               -2102.8861655260470798
    Two-Electron Energy =                 878.9838894328554488
    Total Energy =                       -515.3870613826015870
  Basis Set: (AUG-CC-PVTZ AUX)
    Blend: AUG-CC-PVTZ-RI
    Molecular point group: c1

    Geometry (in Angstrom), charge = 0, multiplicity = 1:

       Center              X                  Y                   Z               Mass
    ------------   -----------------  -----------------  -----------------  -----------------
         N           -0.861741746722     2.156408896892    -0.511774057845    14.003074004430
         C           -0.667091746722    -0.221430103108     0.066822942155    12.000000000000
         C            0.812117253278    -0.162444103108     0.039728942155    12.000000000000
         C           -1.370354346722     1.086845296892    -0.282656957845    12.000000000000
         C           -1.306182746722    -1.433669103108     0.366403942155    12.000000000000
         C            1.540471253278    -1.099957103108    -0.710576057845    12.000000000000
         C            1.513847253278     0.798029896892     0.788419942155    12.000000000000
         C           -2.852206746722     0.800023896892    -0.200337057845    12.000000000000
         C           -2.695527746722    -1.537534103108     0.395338942155    12.000000000000
         C           -3.468303746722    -0.411808103108     0.103013942155    12.000000000000
         C            2.935634253278    -1.080270103108    -0.711634057845    12.000000000000
         C            2.909389253278     0.818094896892     0.782282942155    12.000000000000
         C            3.624231253278    -0.120905103108     0.034613942155    12.000000000000
         H           -0.688530746722    -2.295784103108     0.611873942155     1.007825032230
         H            1.002203253278    -1.836551103108    -1.303890057845     1.007825032230
         H            0.957738253278     1.520894896892     1.380998942155     1.007825032230
         H           -3.458527746722     1.674485896892    -0.433242057845     1.007825032230
         H           -3.169097746722    -2.485231103108     0.638084942155     1.007825032230
         H           -4.554151746722    -0.470221103108     0.124378942155     1.007825032230
         H            3.486148253278    -1.810869103108    -1.300090057845     1.007825032230
         H            3.440141253278     1.562131896892     1.372111942155     1.007825032230
         H            4.711494253278    -0.104129103108     0.032219942155     1.007825032230
         H            0.069939253278     2.076921896892    -0.909713057845     1.007825032230
         H           -1.445358746722     2.747749896892    -1.096465057845     1.007825032230

  Basis Set: AUG-CC-PVTZ
    Blend: AUG-CC-PVTZ
  Basis Set: (AUG-CC-PVTZ AUX)
    Blend: AUG-CC-PVTZ-JKFIT
	 Reference Energy          =    -515.3870613826015870 [Eh]
	 Singles Energy            =      -0.0000000000000000 [Eh]
	 Same-Spin Energy          =      -0.5856399385578721 [Eh]
	 Opposite-Spin Energy      =      -1.8043552393321565 [Eh]
	 Correlation Energy        =      -2.3899951778900288 [Eh]
	 Total Energy              =    -517.7770565604915873 [Eh]

	 ================> DF-SCS-MP2 Energies <==================
	-----------------------------------------------------------
	 SCS Same-Spin Scale       =       0.3333333333333333 [-]
	 SCS Opposite-Spin Scale   =       1.2000000000000000 [-]
	 SCS Same-Spin Energy      =      -0.1952133128526240 [Eh]
	 SCS Opposite-Spin Energy  =      -2.1652262871985877 [Eh]
	 SCS Correlation Energy    =      -2.3604396000512118 [Eh]
	 SCS Total Energy          =    -517.7475009826528094 [Eh]
	-----------------------------------------------------------

  Dipole Moment: [D]
     X:     0.9407      Y:     1.7389      Z:    -1.4448     Total:     2.4487

*** Psi4 exiting successfully. Buy a developer a beer!
