                               Psi4 1.3.2 release

  ==> Input File <==

--------------------------------------------------------------------------
#psi4
#
memory 32 gb

molecule  {
0 1
  N       -0.8359452     2.1550689    -0.5058964
  C       -0.6634250    -0.2127650     0.0691530
  C        0.8157840    -0.1537790     0.0420590
  C       -1.4510140     0.9181800    -0.2423400
  C       -1.3025160    -1.4250040     0.3687340
  C        1.5441380    -1.0912920    -0.7082460
  C        1.5175140     0.8066950     0.7907500
  C       -2.8485400     0.8086890    -0.1980070
  C       -2.6918610    -1.5288690     0.3976690
  C       -3.4646370    -0.4031430     0.1053440
  C        2.9393010    -1.0716050    -0.7093040
  C        2.9130560     0.8267600     0.7846130
  C        3.6278980    -0.1122400     0.0369440
  H       -0.6848640    -2.2871190     0.6142040
  H        1.0058700    -1.8278860    -1.3015600
  H        0.9614050     1.5295600     1.3833290
  H       -3.4548610     1.6831510    -0.4309120
  H       -3.1654310    -2.4765660     0.6404150
  H       -4.5504850    -0.4615560     0.1267090
  H        3.4898150    -1.8022040    -1.2977600
  H        3.4438080     1.5707970     1.3744420
  H        4.7151610    -0.0954640     0.0345500
  H        0.0736060     2.0855870    -0.9073830
  H       -1.4416920     2.7564150    -1.0941350
units angstrom
no_reorient  #important for SAPT in psi4, default
symmetry c1  #important for SAPT in psi4, default
}

set PROPERTIES_ORIGIN ["COM"]
properties('MP2/aug-cc-pvtz', properties = ['dipole'])
--------------------------------------------------------------------------

    Molecular point group: c1
  Charge       = 0
  Multiplicity = 1
  Basis Set: AUG-CC-PVTZ
    Blend: AUG-CC-PVTZ
  Basis Set: (AUG-CC-PVTZ AUX)
    Blend: AUG-CC-PVTZ-JKFIT

    Orbital Energies [Eh]
    ---------------------

    Doubly Occupied:

       1A    -15.564726     2A    -11.280115     3A    -11.246349
       4A    -11.239013     5A    -11.238573     6A    -11.237194
       7A    -11.236953     8A    -11.236577     9A    -11.236505
      10A    -11.235242    11A    -11.235197    12A    -11.227640
      13A    -11.223146    14A     -1.225374    15A     -1.155908
      16A     -1.125758    17A     -1.051381    18A     -1.014992
      19A     -0.994209    20A     -0.974148    21A     -0.852536
      22A     -0.834388    23A     -0.811011    24A     -0.789808
      25A     -0.712551    26A     -0.688301    27A     -0.682325
      28A     -0.656020    29A     -0.625974    30A     -0.621907
      31A     -0.595400    32A     -0.591629    33A     -0.585990
      34A     -0.579076    35A     -0.537152    36A     -0.523588
      37A     -0.505735    38A     -0.500552    39A     -0.488995
      40A     -0.479746    41A     -0.448935    42A     -0.360377
      43A     -0.338554    44A     -0.318408    45A     -0.290052

  @DF-RHF Final Energy:  -515.45084820930185

   => Energetics <=

    Nuclear Repulsion Energy =            709.2863065969464742
    One-Electron Energy =               -2104.6782930744366240
    Two-Electron Energy =                 879.9411382681884106
    Total Energy =                       -515.4508482093018529
  Basis Set: (AUG-CC-PVTZ AUX)
    Blend: AUG-CC-PVTZ-RI
    Molecular point group: c1

    Geometry (in Angstrom), charge = 0, multiplicity = 1:

       Center              X                  Y                   Z               Mass
    ------------   -----------------  -----------------  -----------------  -----------------
         N           -0.835460103889     2.159817235686    -0.511216123990    14.003074004430
         C           -0.662939903889    -0.208016664314     0.063833276010    12.000000000000
         C            0.816269096111    -0.149030664314     0.036739276010    12.000000000000
         C           -1.450528903889     0.922928335686    -0.247659723990    12.000000000000
         C           -1.302030903889    -1.420255664314     0.363414276010    12.000000000000
         C            1.544623096111    -1.086543664314    -0.713565723990    12.000000000000
         C            1.517999096111     0.811443335686     0.785430276010    12.000000000000
         C           -2.848054903889     0.813437335686    -0.203326723990    12.000000000000
         C           -2.691375903889    -1.524120664314     0.392349276010    12.000000000000
         C           -3.464151903889    -0.398394664314     0.100024276010    12.000000000000
         C            2.939786096111    -1.066856664314    -0.714623723990    12.000000000000
         C            2.913541096111     0.831508335686     0.779293276010    12.000000000000
         C            3.628383096111    -0.107491664314     0.031624276010    12.000000000000
         H           -0.684378903889    -2.282370664314     0.608884276010     1.007825032230
         H            1.006355096111    -1.823137664314    -1.306879723990     1.007825032230
         H            0.961890096111     1.534308335686     1.378009276010     1.007825032230
         H           -3.454375903889     1.687899335686    -0.436231723990     1.007825032230
         H           -3.164945903889    -2.471817664314     0.635095276010     1.007825032230
         H           -4.549999903889    -0.456807664314     0.121389276010     1.007825032230
         H            3.490300096111    -1.797455664314    -1.303079723990     1.007825032230
         H            3.444293096111     1.575545335686     1.369122276010     1.007825032230
         H            4.715646096111    -0.090715664314     0.029230276010     1.007825032230
         H            0.074091096111     2.090335335686    -0.912702723990     1.007825032230
         H           -1.441206903889     2.761163335686    -1.099454723990     1.007825032230

  Basis Set: AUG-CC-PVTZ
    Blend: AUG-CC-PVTZ
  Basis Set: (AUG-CC-PVTZ AUX)
    Blend: AUG-CC-PVTZ-JKFIT
	 Reference Energy          =    -515.4508482093018529 [Eh]
	 Singles Energy            =      -0.0000000000000000 [Eh]
	 Same-Spin Energy          =      -0.5830084127994193 [Eh]
	 Opposite-Spin Energy      =      -1.8013691352063961 [Eh]
	 Correlation Energy        =      -2.3843775480058156 [Eh]
	 Total Energy              =    -517.8352257573076258 [Eh]

	 ================> DF-SCS-MP2 Energies <==================
	-----------------------------------------------------------
	 SCS Same-Spin Scale       =       0.3333333333333333 [-]
	 SCS Opposite-Spin Scale   =       1.2000000000000000 [-]
	 SCS Same-Spin Energy      =      -0.1943361375998064 [Eh]
	 SCS Opposite-Spin Energy  =      -2.1616429622476754 [Eh]
	 SCS Correlation Energy    =      -2.3559790998474819 [Eh]
	 SCS Total Energy          =    -517.8068273091492983 [Eh]
	-----------------------------------------------------------

  Dipole Moment: [D]
     X:     0.4246      Y:     0.5604      Z:    -1.1307     Total:     1.3315

*** Psi4 exiting successfully. Buy a developer a beer!
