                               Psi4 1.3.2 release

  ==> Input File <==

--------------------------------------------------------------------------
#psi4
#
memory 32 gb

molecule  {
0 1
  N       -0.8580750     2.1650740    -0.5094440
  C       -0.6619462    -0.1305556     0.1317626
  C        0.8157840    -0.1537790     0.0420590
  C       -1.4510140     0.9181800    -0.2423400
  C       -1.3025160    -1.4250040     0.3687340
  C        1.5441380    -1.0912920    -0.7082460
  C        1.5175140     0.8066950     0.7907500
  C       -2.8485400     0.8086890    -0.1980070
  C       -2.6918610    -1.5288690     0.3976690
  C       -3.4646370    -0.4031430     0.1053440
  C        2.9393010    -1.0716050    -0.7093040
  C        2.9130560     0.8267600     0.7846130
  C        3.6278980    -0.1122400     0.0369440
  H       -0.6848640    -2.2871190     0.6142040
  H        1.0058700    -1.8278860    -1.3015600
  H        0.9614050     1.5295600     1.3833290
  H       -3.4548610     1.6831510    -0.4309120
  H       -3.1654310    -2.4765660     0.6404150
  H       -4.5504850    -0.4615560     0.1267090
  H        3.4898150    -1.8022040    -1.2977600
  H        3.4438080     1.5707970     1.3744420
  H        4.7151610    -0.0954640     0.0345500
  H        0.0736060     2.0855870    -0.9073830
  H       -1.4416920     2.7564150    -1.0941350
units angstrom
no_reorient  #important for SAPT in psi4, default
symmetry c1  #important for SAPT in psi4, default
}

set PROPERTIES_ORIGIN ["COM"]
properties('MP2/aug-cc-pvtz', properties = ['dipole'])
--------------------------------------------------------------------------

    Molecular point group: c1
  Charge       = 0
  Multiplicity = 1
  Basis Set: AUG-CC-PVTZ
    Blend: AUG-CC-PVTZ
  Basis Set: (AUG-CC-PVTZ AUX)
    Blend: AUG-CC-PVTZ-JKFIT

    Orbital Energies [Eh]
    ---------------------

    Doubly Occupied:

       1A    -15.561624     2A    -11.274288     3A    -11.246596
       4A    -11.242344     5A    -11.239576     6A    -11.238246
       7A    -11.238122     8A    -11.237754     9A    -11.236479
      10A    -11.235150    11A    -11.233329    12A    -11.229412
      13A    -11.224690    14A     -1.226772    15A     -1.155064
      16A     -1.123300    17A     -1.050626    18A     -1.014845
      19A     -0.992532    20A     -0.976481    21A     -0.854371
      22A     -0.833841    23A     -0.814054    24A     -0.786007
      25A     -0.711603    26A     -0.686259    27A     -0.683378
      28A     -0.655101    29A     -0.625584    30A     -0.623418
      31A     -0.595885    32A     -0.593179    33A     -0.586392
      34A     -0.573511    35A     -0.539251    36A     -0.523189
      37A     -0.506762    38A     -0.499301    39A     -0.490858
      40A     -0.476584    41A     -0.447002    42A     -0.358132
      43A     -0.338407    44A     -0.315938    45A     -0.294252

  @DF-RHF Final Energy:  -515.44360524351259

   => Energetics <=

    Nuclear Repulsion Energy =            709.1625578386496045
    One-Electron Energy =               -2104.4333417885432027
    Two-Electron Energy =                 879.8271787063808915
    Total Energy =                       -515.4436052435125930
  Basis Set: (AUG-CC-PVTZ AUX)
    Blend: AUG-CC-PVTZ-RI
    Molecular point group: c1

    Geometry (in Angstrom), charge = 0, multiplicity = 1:

       Center              X                  Y                   Z               Mass
    ------------   -----------------  -----------------  -----------------  -----------------
         N           -0.855862178437     2.163159489726    -0.518913238594    14.003074004430
         C           -0.659733378437    -0.132470110274     0.122293361406    12.000000000000
         C            0.817996821563    -0.155693510274     0.032589761406    12.000000000000
         C           -1.448801178437     0.916265489726    -0.251809238594    12.000000000000
         C           -1.300303178437    -1.426918510274     0.359264761406    12.000000000000
         C            1.546350821563    -1.093206510274    -0.717715238594    12.000000000000
         C            1.519726821563     0.804780489726     0.781280761406    12.000000000000
         C           -2.846327178437     0.806774489726    -0.207476238594    12.000000000000
         C           -2.689648178437    -1.530783510274     0.388199761406    12.000000000000
         C           -3.462424178437    -0.405057510274     0.095874761406    12.000000000000
         C            2.941513821563    -1.073519510274    -0.718773238594    12.000000000000
         C            2.915268821563     0.824845489726     0.775143761406    12.000000000000
         C            3.630110821563    -0.114154510274     0.027474761406    12.000000000000
         H           -0.682651178437    -2.289033510274     0.604734761406     1.007825032230
         H            1.008082821563    -1.829800510274    -1.311029238594     1.007825032230
         H            0.963617821563     1.527645489726     1.373859761406     1.007825032230
         H           -3.452648178437     1.681236489726    -0.440381238594     1.007825032230
         H           -3.163218178437    -2.478480510274     0.630945761406     1.007825032230
         H           -4.548272178437    -0.463470510274     0.117239761406     1.007825032230
         H            3.492027821563    -1.804118510274    -1.307229238594     1.007825032230
         H            3.446020821563     1.568882489726     1.364972761406     1.007825032230
         H            4.717373821563    -0.097378510274     0.025080761406     1.007825032230
         H            0.075818821563     2.083672489726    -0.916852238594     1.007825032230
         H           -1.439479178437     2.754500489726    -1.103604238594     1.007825032230

  Basis Set: AUG-CC-PVTZ
    Blend: AUG-CC-PVTZ
  Basis Set: (AUG-CC-PVTZ AUX)
    Blend: AUG-CC-PVTZ-JKFIT
	 Reference Energy          =    -515.4436052435125930 [Eh]
	 Singles Energy            =      -0.0000000000000000 [Eh]
	 Same-Spin Energy          =      -0.5830276421800116 [Eh]
	 Opposite-Spin Energy      =      -1.8020896072903696 [Eh]
	 Correlation Energy        =      -2.3851172494703814 [Eh]
	 Total Energy              =    -517.8287224929829335 [Eh]

	 ================> DF-SCS-MP2 Energies <==================
	-----------------------------------------------------------
	 SCS Same-Spin Scale       =       0.3333333333333333 [-]
	 SCS Opposite-Spin Scale   =       1.2000000000000000 [-]
	 SCS Same-Spin Energy      =      -0.1943425473933372 [Eh]
	 SCS Opposite-Spin Energy  =      -2.1625075287484434 [Eh]
	 SCS Correlation Energy    =      -2.3568500761417805 [Eh]
	 SCS Total Energy          =    -517.8004553196543611 [Eh]
	-----------------------------------------------------------

  Dipole Moment: [D]
     X:     0.3667      Y:     0.4771      Z:    -1.1379     Total:     1.2872

*** Psi4 exiting successfully. Buy a developer a beer!
