                               Psi4 1.3.2 release

  ==> Input File <==

--------------------------------------------------------------------------
#psi4
#
memory 32 gb

molecule  {
0 1
  N       -0.8580750     2.1650740    -0.5094440
  C       -0.7048414    -0.2384281     0.0767916
  C        0.8157840    -0.1537790     0.0420590
  C       -1.4510140     0.9181800    -0.2423400
  C       -1.3025160    -1.4250040     0.3687340
  C        1.5441380    -1.0912920    -0.7082460
  C        1.5175140     0.8066950     0.7907500
  C       -2.8485400     0.8086890    -0.1980070
  C       -2.6918610    -1.5288690     0.3976690
  C       -3.4646370    -0.4031430     0.1053440
  C        2.9393010    -1.0716050    -0.7093040
  C        2.9130560     0.8267600     0.7846130
  C        3.6278980    -0.1122400     0.0369440
  H       -0.6848640    -2.2871190     0.6142040
  H        1.0058700    -1.8278860    -1.3015600
  H        0.9614050     1.5295600     1.3833290
  H       -3.4548610     1.6831510    -0.4309120
  H       -3.1654310    -2.4765660     0.6404150
  H       -4.5504850    -0.4615560     0.1267090
  H        3.4898150    -1.8022040    -1.2977600
  H        3.4438080     1.5707970     1.3744420
  H        4.7151610    -0.0954640     0.0345500
  H        0.0736060     2.0855870    -0.9073830
  H       -1.4416920     2.7564150    -1.0941350
units angstrom
no_reorient  #important for SAPT in psi4, default
symmetry c1  #important for SAPT in psi4, default
}

set PROPERTIES_ORIGIN ["COM"]
properties('MP2/aug-cc-pvtz', properties = ['dipole'])
--------------------------------------------------------------------------

    Molecular point group: c1
  Charge       = 0
  Multiplicity = 1
  Basis Set: AUG-CC-PVTZ
    Blend: AUG-CC-PVTZ
  Basis Set: (AUG-CC-PVTZ AUX)
    Blend: AUG-CC-PVTZ-JKFIT

    Orbital Energies [Eh]
    ---------------------

    Doubly Occupied:

       1A    -15.566262     2A    -11.280086     3A    -11.248189
       4A    -11.238884     5A    -11.238534     6A    -11.236715
       7A    -11.236204     8A    -11.235822     9A    -11.235487
      10A    -11.235348    11A    -11.231344    12A    -11.226312
      13A    -11.222553    14A     -1.225428    15A     -1.155195
      16A     -1.129747    17A     -1.048301    18A     -1.014734
      19A     -0.996413    20A     -0.975494    21A     -0.848101
      22A     -0.834421    23A     -0.812651    24A     -0.790698
      25A     -0.711873    26A     -0.686867    27A     -0.685374
      28A     -0.653492    29A     -0.624495    30A     -0.622087
      31A     -0.597269    32A     -0.592660    33A     -0.585788
      34A     -0.579327    35A     -0.537793    36A     -0.523556
      37A     -0.507301    38A     -0.500612    39A     -0.491106
      40A     -0.471033    41A     -0.450906    42A     -0.360474
      43A     -0.338394    44A     -0.320773    45A     -0.291106

  @DF-RHF Final Energy:  -515.44999899512675

   => Energetics <=

    Nuclear Repulsion Energy =            709.0041091173185350
    One-Electron Energy =               -2104.1178009939749245
    Two-Electron Energy =                 879.6636928815297551
    Total Energy =                       -515.4499989951267480
  Basis Set: (AUG-CC-PVTZ AUX)
    Blend: AUG-CC-PVTZ-RI
    Molecular point group: c1

    Geometry (in Angstrom), charge = 0, multiplicity = 1:

       Center              X                  Y                   Z               Mass
    ------------   -----------------  -----------------  -----------------  -----------------
         N           -0.852817971272     2.170815037139    -0.515012030252    14.003074004430
         C           -0.699584371272    -0.232687062861     0.071223569748    12.000000000000
         C            0.821041028728    -0.148037962861     0.036490969748    12.000000000000
         C           -1.445756971272     0.923921037139    -0.247908030252    12.000000000000
         C           -1.297258971272    -1.419262962861     0.363165969748    12.000000000000
         C            1.549395028728    -1.085550962861    -0.713814030252    12.000000000000
         C            1.522771028728     0.812436037139     0.785181969748    12.000000000000
         C           -2.843282971272     0.814430037139    -0.203575030252    12.000000000000
         C           -2.686603971272    -1.523127962861     0.392100969748    12.000000000000
         C           -3.459379971272    -0.397401962861     0.099775969748    12.000000000000
         C            2.944558028728    -1.065863962861    -0.714872030252    12.000000000000
         C            2.918313028728     0.832501037139     0.779044969748    12.000000000000
         C            3.633155028728    -0.106498962861     0.031375969748    12.000000000000
         H           -0.679606971272    -2.281377962861     0.608635969748     1.007825032230
         H            1.011127028728    -1.822144962861    -1.307128030252     1.007825032230
         H            0.966662028728     1.535301037139     1.377760969748     1.007825032230
         H           -3.449603971272     1.688892037139    -0.436480030252     1.007825032230
         H           -3.160173971272    -2.470824962861     0.634846969748     1.007825032230
         H           -4.545227971272    -0.455814962861     0.121140969748     1.007825032230
         H            3.495072028728    -1.796462962861    -1.303328030252     1.007825032230
         H            3.449065028728     1.576538037139     1.368873969748     1.007825032230
         H            4.720418028728    -0.089722962861     0.028981969748     1.007825032230
         H            0.078863028728     2.091328037139    -0.912951030252     1.007825032230
         H           -1.436434971272     2.762156037139    -1.099703030252     1.007825032230

  Basis Set: AUG-CC-PVTZ
    Blend: AUG-CC-PVTZ
  Basis Set: (AUG-CC-PVTZ AUX)
    Blend: AUG-CC-PVTZ-JKFIT
	 Reference Energy          =    -515.4499989951267480 [Eh]
	 Singles Energy            =      -0.0000000000000000 [Eh]
	 Same-Spin Energy          =      -0.5825394126823994 [Eh]
	 Opposite-Spin Energy      =      -1.8006211555823990 [Eh]
	 Correlation Energy        =      -2.3831605682647985 [Eh]
	 Total Energy              =    -517.8331595633915185 [Eh]

	 ================> DF-SCS-MP2 Energies <==================
	-----------------------------------------------------------
	 SCS Same-Spin Scale       =       0.3333333333333333 [-]
	 SCS Opposite-Spin Scale   =       1.2000000000000000 [-]
	 SCS Same-Spin Energy      =      -0.1941798042274664 [Eh]
	 SCS Opposite-Spin Energy  =      -2.1607453866988786 [Eh]
	 SCS Correlation Energy    =      -2.3549251909263451 [Eh]
	 SCS Total Energy          =    -517.8049241860530856 [Eh]
	-----------------------------------------------------------

  Dipole Moment: [D]
     X:     0.4370      Y:     0.5590      Z:    -1.1313     Total:     1.3354

*** Psi4 exiting successfully. Buy a developer a beer!
