                               Psi4 1.3.2 release

  ==> Input File <==

--------------------------------------------------------------------------
#psi4
#
memory 32 gb

molecule  {
0 1
  N       -0.8580750     2.1650740    -0.5094440
  C       -0.6634250    -0.2127650     0.0691530
  C        0.8157840    -0.1537790     0.0420590
  C       -1.4510140     0.9181800    -0.2423400
  C       -1.3025160    -1.4250040     0.3687340
  C        1.6478613    -1.2248012    -0.8150953
  C        1.5175140     0.8066950     0.7907500
  C       -2.8485400     0.8086890    -0.1980070
  C       -2.6918610    -1.5288690     0.3976690
  C       -3.4646370    -0.4031430     0.1053440
  C        2.9393010    -1.0716050    -0.7093040
  C        2.9130560     0.8267600     0.7846130
  C        3.6278980    -0.1122400     0.0369440
  H       -0.6848640    -2.2871190     0.6142040
  H        1.0058700    -1.8278860    -1.3015600
  H        0.9614050     1.5295600     1.3833290
  H       -3.4548610     1.6831510    -0.4309120
  H       -3.1654310    -2.4765660     0.6404150
  H       -4.5504850    -0.4615560     0.1267090
  H        3.4898150    -1.8022040    -1.2977600
  H        3.4438080     1.5707970     1.3744420
  H        4.7151610    -0.0954640     0.0345500
  H        0.0736060     2.0855870    -0.9073830
  H       -1.4416920     2.7564150    -1.0941350
units angstrom
no_reorient  #important for SAPT in psi4, default
symmetry c1  #important for SAPT in psi4, default
}

set PROPERTIES_ORIGIN ["COM"]
properties('MP2/aug-cc-pvtz', properties = ['dipole'])
--------------------------------------------------------------------------

    Molecular point group: c1
  Charge       = 0
  Multiplicity = 1
  Basis Set: AUG-CC-PVTZ
    Blend: AUG-CC-PVTZ
  Basis Set: (AUG-CC-PVTZ AUX)
    Blend: AUG-CC-PVTZ-JKFIT

    Orbital Energies [Eh]
    ---------------------

    Doubly Occupied:

       1A    -15.563855     2A    -11.280695     3A    -11.261169
       4A    -11.241362     5A    -11.239026     6A    -11.237823
       7A    -11.237592     8A    -11.236963     9A    -11.236641
      10A    -11.233670    11A    -11.230179    12A    -11.227615
      13A    -11.223804    14A     -1.224451    15A     -1.148734
      16A     -1.126453    17A     -1.047751    18A     -1.029398
      19A     -0.992503    20A     -0.967717    21A     -0.859233
      22A     -0.828327    23A     -0.814386    24A     -0.784574
      25A     -0.710648    26A     -0.693952    27A     -0.684894
      28A     -0.666832    29A     -0.634068    30A     -0.613166
      31A     -0.599012    32A     -0.593881    33A     -0.586870
      34A     -0.571636    35A     -0.536042    36A     -0.534371
      37A     -0.503759    38A     -0.497070    39A     -0.491456
      40A     -0.459134    41A     -0.444537    42A     -0.363535
      43A     -0.346287    44A     -0.312737    45A     -0.284898

  @DF-RHF Final Energy:  -515.41068342324104

   => Energetics <=

    Nuclear Repulsion Energy =            706.1566702251535617
    One-Electron Energy =               -2098.3292972880108209
    Two-Electron Energy =                 876.7619436396163337
    Total Energy =                       -515.4106834232410392
  Basis Set: (AUG-CC-PVTZ AUX)
    Blend: AUG-CC-PVTZ-RI
    Molecular point group: c1

    Geometry (in Angstrom), charge = 0, multiplicity = 1:

       Center              X                  Y                   Z               Mass
    ------------   -----------------  -----------------  -----------------  -----------------
         N           -0.863118315242     2.178468710985    -0.506886997953    14.003074004430
         C           -0.668468315242    -0.199370289015     0.071710002047    12.000000000000
         C            0.810740684758    -0.140384289015     0.044616002047    12.000000000000
         C           -1.456057315242     0.931574710985    -0.239782997953    12.000000000000
         C           -1.307559315242    -1.411609289015     0.371291002047    12.000000000000
         C            1.642817984758    -1.211406489015    -0.812538297953    12.000000000000
         C            1.512470684758     0.820089710985     0.793307002047    12.000000000000
         C           -2.853583315242     0.822083710985    -0.195449997953    12.000000000000
         C           -2.696904315242    -1.515474289015     0.400226002047    12.000000000000
         C           -3.469680315242    -0.389748289015     0.107901002047    12.000000000000
         C            2.934257684758    -1.058210289015    -0.706746997953    12.000000000000
         C            2.908012684758     0.840154710985     0.787170002047    12.000000000000
         C            3.622854684758    -0.098845289015     0.039501002047    12.000000000000
         H           -0.689907315242    -2.273724289015     0.616761002047     1.007825032230
         H            1.000826684758    -1.814491289015    -1.299002997953     1.007825032230
         H            0.956361684758     1.542954710985     1.385886002047     1.007825032230
         H           -3.459904315242     1.696545710985    -0.428354997953     1.007825032230
         H           -3.170474315242    -2.463171289015     0.642972002047     1.007825032230
         H           -4.555528315242    -0.448161289015     0.129266002047     1.007825032230
         H            3.484771684758    -1.788809289015    -1.295202997953     1.007825032230
         H            3.438764684758     1.584191710985     1.376999002047     1.007825032230
         H            4.710117684758    -0.082069289015     0.037107002047     1.007825032230
         H            0.068562684758     2.098981710985    -0.904825997953     1.007825032230
         H           -1.446735315242     2.769809710985    -1.091577997953     1.007825032230

  Basis Set: AUG-CC-PVTZ
    Blend: AUG-CC-PVTZ
  Basis Set: (AUG-CC-PVTZ AUX)
    Blend: AUG-CC-PVTZ-JKFIT
	 Reference Energy          =    -515.4106834232410392 [Eh]
	 Singles Energy            =      -0.0000000000000000 [Eh]
	 Same-Spin Energy          =      -0.5828033814560911 [Eh]
	 Opposite-Spin Energy      =      -1.8036772072939993 [Eh]
	 Correlation Energy        =      -2.3864805887500902 [Eh]
	 Total Energy              =    -517.7971640119911854 [Eh]

	 ================> DF-SCS-MP2 Energies <==================
	-----------------------------------------------------------
	 SCS Same-Spin Scale       =       0.3333333333333333 [-]
	 SCS Opposite-Spin Scale   =       1.2000000000000000 [-]
	 SCS Same-Spin Energy      =      -0.1942677938186970 [Eh]
	 SCS Opposite-Spin Energy  =      -2.1644126487527990 [Eh]
	 SCS Correlation Energy    =      -2.3586804425714960 [Eh]
	 SCS Total Energy          =    -517.7693638658125792 [Eh]
	-----------------------------------------------------------

  Dipole Moment: [D]
     X:     0.4080      Y:     0.5671      Z:    -1.1148     Total:     1.3156

*** Psi4 exiting successfully. Buy a developer a beer!
