                               Psi4 1.3.2 release

  ==> Input File <==

--------------------------------------------------------------------------
#psi4
#
memory 32 gb

molecule  {
0 1
  N       -0.8580750     2.1650740    -0.5094440
  C       -0.6521382    -0.3354155    -0.0249133
  C        0.8157840    -0.1537790     0.0420590
  C       -1.4510140     0.9181800    -0.2423400
  C       -1.3025160    -1.4250040     0.3687340
  C        1.5441380    -1.0912920    -0.7082460
  C        1.5175140     0.8066950     0.7907500
  C       -2.8485400     0.8086890    -0.1980070
  C       -2.6918610    -1.5288690     0.3976690
  C       -3.4646370    -0.4031430     0.1053440
  C        2.9393010    -1.0716050    -0.7093040
  C        2.9130560     0.8267600     0.7846130
  C        3.6278980    -0.1122400     0.0369440
  H       -0.6848640    -2.2871190     0.6142040
  H        1.0058700    -1.8278860    -1.3015600
  H        0.9614050     1.5295600     1.3833290
  H       -3.4548610     1.6831510    -0.4309120
  H       -3.1654310    -2.4765660     0.6404150
  H       -4.5504850    -0.4615560     0.1267090
  H        3.4898150    -1.8022040    -1.2977600
  H        3.4438080     1.5707970     1.3744420
  H        4.7151610    -0.0954640     0.0345500
  H        0.0736060     2.0855870    -0.9073830
  H       -1.4416920     2.7564150    -1.0941350
units angstrom
no_reorient  #important for SAPT in psi4, default
symmetry c1  #important for SAPT in psi4, default
}

set PROPERTIES_ORIGIN ["COM"]
properties('MP2/aug-cc-pvtz', properties = ['dipole'])
--------------------------------------------------------------------------

    Molecular point group: c1
  Charge       = 0
  Multiplicity = 1
  Basis Set: AUG-CC-PVTZ
    Blend: AUG-CC-PVTZ
  Basis Set: (AUG-CC-PVTZ AUX)
    Blend: AUG-CC-PVTZ-JKFIT

    Orbital Energies [Eh]
    ---------------------

    Doubly Occupied:

       1A    -15.568640     2A    -11.289006     3A    -11.247260
       4A    -11.240501     5A    -11.238626     6A    -11.238389
       7A    -11.238278     8A    -11.237226     9A    -11.236766
      10A    -11.234777    11A    -11.228249    12A    -11.223117
      13A    -11.220415    14A     -1.223118    15A     -1.158398
      16A     -1.128813    17A     -1.053867    18A     -1.015555
      19A     -0.998324    20A     -0.968147    21A     -0.850655
      22A     -0.834634    23A     -0.809357    24A     -0.790066
      25A     -0.712269    26A     -0.689008    27A     -0.684894
      28A     -0.657498    29A     -0.626437    30A     -0.621541
      31A     -0.593677    32A     -0.591460    33A     -0.585720
      34A     -0.582582    35A     -0.533769    36A     -0.522907
      37A     -0.506392    38A     -0.502044    39A     -0.495123
      40A     -0.464974    41A     -0.451482    42A     -0.365386
      43A     -0.339231    44A     -0.321361    45A     -0.284006

  @DF-RHF Final Energy:  -515.43580461946920

   => Energetics <=

    Nuclear Repulsion Energy =            708.6749913325007810
    One-Electron Energy =               -2103.4137003439077489
    Two-Electron Energy =                 879.3029043919378864
    Total Energy =                       -515.4358046194691951
  Basis Set: (AUG-CC-PVTZ AUX)
    Blend: AUG-CC-PVTZ-RI
    Molecular point group: c1

    Geometry (in Angstrom), charge = 0, multiplicity = 1:

       Center              X                  Y                   Z               Mass
    ------------   -----------------  -----------------  -----------------  -----------------
         N           -0.856558237294     2.177698085545    -0.507794188039    14.003074004430
         C           -0.650621437294    -0.322791414455    -0.023263488039    12.000000000000
         C            0.817300762706    -0.141154914455     0.043708811961    12.000000000000
         C           -1.449497237294     0.930804085545    -0.240690188039    12.000000000000
         C           -1.300999237294    -1.412379914455     0.370383811961    12.000000000000
         C            1.545654762706    -1.078667914455    -0.706596188039    12.000000000000
         C            1.519030762706     0.819319085545     0.792399811961    12.000000000000
         C           -2.847023237294     0.821313085545    -0.196357188039    12.000000000000
         C           -2.690344237294    -1.516244914455     0.399318811961    12.000000000000
         C           -3.463120237294    -0.390518914455     0.106993811961    12.000000000000
         C            2.940817762706    -1.058980914455    -0.707654188039    12.000000000000
         C            2.914572762706     0.839384085545     0.786262811961    12.000000000000
         C            3.629414762706    -0.099615914455     0.038593811961    12.000000000000
         H           -0.683347237294    -2.274494914455     0.615853811961     1.007825032230
         H            1.007386762706    -1.815261914455    -1.299910188039     1.007825032230
         H            0.962921762706     1.542184085545     1.384978811961     1.007825032230
         H           -3.453344237294     1.695775085545    -0.429262188039     1.007825032230
         H           -3.163914237294    -2.463941914455     0.642064811961     1.007825032230
         H           -4.548968237294    -0.448931914455     0.128358811961     1.007825032230
         H            3.491331762706    -1.789579914455    -1.296110188039     1.007825032230
         H            3.445324762706     1.583421085545     1.376091811961     1.007825032230
         H            4.716677762706    -0.082839914455     0.036199811961     1.007825032230
         H            0.075122762706     2.098211085545    -0.905733188039     1.007825032230
         H           -1.440175237294     2.769039085545    -1.092485188039     1.007825032230

  Basis Set: AUG-CC-PVTZ
    Blend: AUG-CC-PVTZ
  Basis Set: (AUG-CC-PVTZ AUX)
    Blend: AUG-CC-PVTZ-JKFIT
	 Reference Energy          =    -515.4358046194691951 [Eh]
	 Singles Energy            =      -0.0000000000000000 [Eh]
	 Same-Spin Energy          =      -0.5830151245082423 [Eh]
	 Opposite-Spin Energy      =      -1.8020617213117989 [Eh]
	 Correlation Energy        =      -2.3850768458200413 [Eh]
	 Total Energy              =    -517.8208814652892897 [Eh]

	 ================> DF-SCS-MP2 Energies <==================
	-----------------------------------------------------------
	 SCS Same-Spin Scale       =       0.3333333333333333 [-]
	 SCS Opposite-Spin Scale   =       1.2000000000000000 [-]
	 SCS Same-Spin Energy      =      -0.1943383748360808 [Eh]
	 SCS Opposite-Spin Energy  =      -2.1624740655741586 [Eh]
	 SCS Correlation Energy    =      -2.3568124404102395 [Eh]
	 SCS Total Energy          =    -517.7926170598794897 [Eh]
	-----------------------------------------------------------

  Dipole Moment: [D]
     X:     0.5338      Y:     0.6417      Z:    -1.1143     Total:     1.3923

*** Psi4 exiting successfully. Buy a developer a beer!
