                               Psi4 1.4a3.dev225

  ==> Input File <==

--------------------------------------------------------------------------
#psi4
#
memory 32 gb

molecule  {
0 1
  N       -0.8580750     2.1650740    -0.5094440
  C       -0.6634250    -0.2127650     0.0691530
  C        0.8357648    -0.1529822     0.0416930
  C       -1.4510140     0.9181800    -0.2423400
  C       -1.3025160    -1.4250040     0.3687340
  C        1.5441380    -1.0912920    -0.7082460
  C        1.5175140     0.8066950     0.7907500
  C       -2.8485400     0.8086890    -0.1980070
  C       -2.6918610    -1.5288690     0.3976690
  C       -3.4646370    -0.4031430     0.1053440
  C        2.9393010    -1.0716050    -0.7093040
  C        2.9130560     0.8267600     0.7846130
  C        3.6278980    -0.1122400     0.0369440
  H       -0.6848640    -2.2871190     0.6142040
  H        1.0058700    -1.8278860    -1.3015600
  H        0.9614050     1.5295600     1.3833290
  H       -3.4548610     1.6831510    -0.4309120
  H       -3.1654310    -2.4765660     0.6404150
  H       -4.5504850    -0.4615560     0.1267090
  H        3.4898150    -1.8022040    -1.2977600
  H        3.4438080     1.5707970     1.3744420
  H        4.7151610    -0.0954640     0.0345500
  H        0.0736060     2.0855870    -0.9073830
  H       -1.4416920     2.7564150    -1.0941350
units angstrom
no_reorient  #important for SAPT in psi4, default
symmetry c1  #important for SAPT in psi4, default
}

set PROPERTIES_ORIGIN ["COM"]
properties('MP2/aug-cc-pvtz', properties = ['dipole'])
--------------------------------------------------------------------------

    Molecular point group: c1
  Charge       = 0
  Multiplicity = 1
  Basis Set: AUG-CC-PVTZ
    Blend: AUG-CC-PVTZ
  Basis Set: (AUG-CC-PVTZ AUX)
    Blend: AUG-CC-PVTZ-JKFIT

    Orbital Energies [Eh]
    ---------------------

    Doubly Occupied:

       1A    -15.564239     2A    -11.279525     3A    -11.245742
       4A    -11.239275     5A    -11.238879     6A    -11.237048
       7A    -11.236929     8A    -11.236481     9A    -11.235913
      10A    -11.235578    11A    -11.234501    12A    -11.226757
      13A    -11.222778    14A     -1.224532    15A     -1.157742
      16A     -1.125314    17A     -1.049743    18A     -1.016416
      19A     -0.993878    20A     -0.974574    21A     -0.850471
      22A     -0.835170    23A     -0.811565    24A     -0.789845
      25A     -0.712016    26A     -0.685682    27A     -0.684885
      28A     -0.654211    29A     -0.626638    30A     -0.622717
      31A     -0.594092    32A     -0.592266    33A     -0.587368
      34A     -0.578431    35A     -0.536788    36A     -0.522980
      37A     -0.506232    38A     -0.502000    39A     -0.491137
      40A     -0.476312    41A     -0.448549    42A     -0.360102
      43A     -0.339191    44A     -0.318812    45A     -0.290727

  @DF-RHF Final Energy:  -515.45197229183805

   => Energetics <=

    Nuclear Repulsion Energy =            709.0409186874425131
    One-Electron Energy =               -2104.1977229194380925
    Two-Electron Energy =                 879.7048319401574190
    Total Energy =                       -515.4519722918380467
  Basis Set: (AUG-CC-PVTZ AUX)
    Blend: AUG-CC-PVTZ-RI
    Molecular point group: c1

    Geometry (in Angstrom), charge = 0, multiplicity = 1:

       Center              X                  Y                   Z               Mass
    ------------   -----------------  -----------------  -----------------  -----------------
         N           -0.857175237263     2.168937218242    -0.514443955953    14.003074004430
         C           -0.662525237263    -0.208901781758     0.064153044047    12.000000000000
         C            0.836664562737    -0.149118981758     0.036693044047    12.000000000000
         C           -1.450114237263     0.922043218242    -0.247339955953    12.000000000000
         C           -1.301616237263    -1.421140781758     0.363734044047    12.000000000000
         C            1.545037762737    -1.087428781758    -0.713245955953    12.000000000000
         C            1.518413762737     0.810558218242     0.785750044047    12.000000000000
         C           -2.847640237263     0.812552218242    -0.203006955953    12.000000000000
         C           -2.690961237263    -1.525005781758     0.392669044047    12.000000000000
         C           -3.463737237263    -0.399279781758     0.100344044047    12.000000000000
         C            2.940200762737    -1.067741781758    -0.714303955953    12.000000000000
         C            2.913955762737     0.830623218242     0.779613044047    12.000000000000
         C            3.628797762737    -0.108376781758     0.031944044047    12.000000000000
         H           -0.683964237263    -2.283255781758     0.609204044047     1.007825032230
         H            1.006769762737    -1.824022781758    -1.306559955953     1.007825032230
         H            0.962304762737     1.533423218242     1.378329044047     1.007825032230
         H           -3.453961237263     1.687014218242    -0.435911955953     1.007825032230
         H           -3.164531237263    -2.472702781758     0.635415044047     1.007825032230
         H           -4.549585237263    -0.457692781758     0.121709044047     1.007825032230
         H            3.490714762737    -1.798340781758    -1.302759955953     1.007825032230
         H            3.444707762737     1.574660218242     1.369442044047     1.007825032230
         H            4.716060762737    -0.091600781758     0.029550044047     1.007825032230
         H            0.074505762737     2.089450218242    -0.912382955953     1.007825032230
         H           -1.440792237263     2.760278218242    -1.099134955953     1.007825032230

  Basis Set: AUG-CC-PVTZ
    Blend: AUG-CC-PVTZ
  Basis Set: (AUG-CC-PVTZ AUX)
    Blend: AUG-CC-PVTZ-JKFIT
	 Reference Energy          =    -515.4519722918380467 [Eh]
	 Singles Energy            =      -0.0000000000000000 [Eh]
	 Same-Spin Energy          =      -0.5827072227425909 [Eh]
	 Opposite-Spin Energy      =      -1.8008676618137702 [Eh]
	 Correlation Energy        =      -2.3835748845563609 [Eh]
	 Total Energy              =    -517.8355471763943569 [Eh]

	 ================> DF-SCS-MP2 Energies <==================
	-----------------------------------------------------------
	 SCS Same-Spin Scale       =       0.3333333333333333 [-]
	 SCS Opposite-Spin Scale   =       1.2000000000000000 [-]
	 SCS Same-Spin Energy      =      -0.1942357409141970 [Eh]
	 SCS Opposite-Spin Energy  =      -2.1610411941765242 [Eh]
	 SCS Correlation Energy    =      -2.3552769350907212 [Eh]
	 SCS Total Energy          =    -517.8072492269287750 [Eh]
	-----------------------------------------------------------

  Dipole Moment: [D]
     X:     0.4878      Y:     0.5461      Z:    -1.1307     Total:     1.3471

*** Psi4 exiting successfully. Buy a developer a beer!
