                               Psi4 1.3.2 release

  ==> Input File <==

--------------------------------------------------------------------------
#psi4
#
memory 32 gb

molecule  {
0 1
  N       -0.8580750     2.1650740    -0.5094440
  C       -0.6634250    -0.2127650     0.0691530
  C        0.8157840    -0.1537790     0.0420590
  C       -1.4907477     0.9416304    -0.2255831
  C       -1.3025160    -1.4250040     0.3687340
  C        1.5441380    -1.0912920    -0.7082460
  C        1.5175140     0.8066950     0.7907500
  C       -2.8485400     0.8086890    -0.1980070
  C       -2.6918610    -1.5288690     0.3976690
  C       -3.4646370    -0.4031430     0.1053440
  C        2.9393010    -1.0716050    -0.7093040
  C        2.9130560     0.8267600     0.7846130
  C        3.6278980    -0.1122400     0.0369440
  H       -0.6848640    -2.2871190     0.6142040
  H        1.0058700    -1.8278860    -1.3015600
  H        0.9614050     1.5295600     1.3833290
  H       -3.4548610     1.6831510    -0.4309120
  H       -3.1654310    -2.4765660     0.6404150
  H       -4.5504850    -0.4615560     0.1267090
  H        3.4898150    -1.8022040    -1.2977600
  H        3.4438080     1.5707970     1.3744420
  H        4.7151610    -0.0954640     0.0345500
  H        0.0736060     2.0855870    -0.9073830
  H       -1.4416920     2.7564150    -1.0941350
units angstrom
no_reorient  #important for SAPT in psi4, default
symmetry c1  #important for SAPT in psi4, default
}

set PROPERTIES_ORIGIN ["COM"]
properties('MP2/aug-cc-pvtz', properties = ['dipole'])
--------------------------------------------------------------------------

    Molecular point group: c1
  Charge       = 0
  Multiplicity = 1
  Basis Set: AUG-CC-PVTZ
    Blend: AUG-CC-PVTZ
  Basis Set: (AUG-CC-PVTZ AUX)
    Blend: AUG-CC-PVTZ-JKFIT

    Orbital Energies [Eh]
    ---------------------

    Doubly Occupied:

       1A    -15.563973     2A    -11.279804     3A    -11.247248
       4A    -11.240045     5A    -11.239351     6A    -11.238918
       7A    -11.237337     8A    -11.237245     9A    -11.236970
      10A    -11.235691    11A    -11.235582    12A    -11.223028
      13A    -11.222478    14A     -1.224368    15A     -1.156222
      16A     -1.125715    17A     -1.051355    18A     -1.015353
      19A     -0.998245    20A     -0.971604    21A     -0.854228
      22A     -0.833587    23A     -0.808195    24A     -0.791269
      25A     -0.712338    26A     -0.687712    27A     -0.684235
      28A     -0.655704    29A     -0.626046    30A     -0.621114
      31A     -0.598768    32A     -0.590071    33A     -0.585618
      34A     -0.579414    35A     -0.537474    36A     -0.524813
      37A     -0.504802    38A     -0.500515    39A     -0.488506
      40A     -0.479539    41A     -0.448215    42A     -0.360743
      43A     -0.338911    44A     -0.320353    45A     -0.288162

  @DF-RHF Final Energy:  -515.44949178714626

   => Energetics <=

    Nuclear Repulsion Energy =            708.7314379850907926
    One-Electron Energy =               -2103.5601313419460894
    Two-Electron Energy =                 879.3792015697089255
    Total Energy =                       -515.4494917871462576
  Basis Set: (AUG-CC-PVTZ AUX)
    Blend: AUG-CC-PVTZ-RI
    Molecular point group: c1

    Geometry (in Angstrom), charge = 0, multiplicity = 1:

       Center              X                  Y                   Z               Mass
    ------------   -----------------  -----------------  -----------------  -----------------
         N           -0.852937389934     2.167329526672    -0.515659142148    14.003074004430
         C           -0.658287389934    -0.210509473328     0.062937857852    12.000000000000
         C            0.820921610066    -0.151523473328     0.035843857852    12.000000000000
         C           -1.485610089934     0.943885926672    -0.231798242148    12.000000000000
         C           -1.297378389934    -1.422748473328     0.362518857852    12.000000000000
         C            1.549275610066    -1.089036473328    -0.714461142148    12.000000000000
         C            1.522651610066     0.808950526672     0.784534857852    12.000000000000
         C           -2.843402389934     0.810944526672    -0.204222142148    12.000000000000
         C           -2.686723389934    -1.526613473328     0.391453857852    12.000000000000
         C           -3.459499389934    -0.400887473328     0.099128857852    12.000000000000
         C            2.944438610066    -1.069349473328    -0.715519142148    12.000000000000
         C            2.918193610066     0.829015526672     0.778397857852    12.000000000000
         C            3.633035610066    -0.109984473328     0.030728857852    12.000000000000
         H           -0.679726389934    -2.284863473328     0.607988857852     1.007825032230
         H            1.011007610066    -1.825630473328    -1.307775142148     1.007825032230
         H            0.966542610066     1.531815526672     1.377113857852     1.007825032230
         H           -3.449723389934     1.685406526672    -0.437127142148     1.007825032230
         H           -3.160293389934    -2.474310473328     0.634199857852     1.007825032230
         H           -4.545347389934    -0.459300473328     0.120493857852     1.007825032230
         H            3.494952610066    -1.799948473328    -1.303975142148     1.007825032230
         H            3.448945610066     1.573052526672     1.368226857852     1.007825032230
         H            4.720298610066    -0.093208473328     0.028334857852     1.007825032230
         H            0.078743610066     2.087842526672    -0.913598142148     1.007825032230
         H           -1.436554389934     2.758670526672    -1.100350142148     1.007825032230

  Basis Set: AUG-CC-PVTZ
    Blend: AUG-CC-PVTZ
  Basis Set: (AUG-CC-PVTZ AUX)
    Blend: AUG-CC-PVTZ-JKFIT
	 Reference Energy          =    -515.4494917871462576 [Eh]
	 Singles Energy            =      -0.0000000000000000 [Eh]
	 Same-Spin Energy          =      -0.5829594136288698 [Eh]
	 Opposite-Spin Energy      =      -1.8012739971132916 [Eh]
	 Correlation Energy        =      -2.3842334107421612 [Eh]
	 Total Energy              =    -517.8337251978883842 [Eh]

	 ================> DF-SCS-MP2 Energies <==================
	-----------------------------------------------------------
	 SCS Same-Spin Scale       =       0.3333333333333333 [-]
	 SCS Opposite-Spin Scale   =       1.2000000000000000 [-]
	 SCS Same-Spin Energy      =      -0.1943198045429566 [Eh]
	 SCS Opposite-Spin Energy  =      -2.1615287965359498 [Eh]
	 SCS Correlation Energy    =      -2.3558486010789066 [Eh]
	 SCS Total Energy          =    -517.8053403882252042 [Eh]
	-----------------------------------------------------------

  Dipole Moment: [D]
     X:     0.4715      Y:     0.5364      Z:    -1.1246     Total:     1.3321

*** Psi4 exiting successfully. Buy a developer a beer!
