                               Psi4 1.3.2 release

  ==> Input File <==

--------------------------------------------------------------------------
#psi4
#
memory 32 gb

molecule  {
0 1
  N       -0.8580750     2.1650740    -0.5094440
  C       -0.6430735    -0.1994147     0.0651908
  C        0.8157840    -0.1537790     0.0420590
  C       -1.4510140     0.9181800    -0.2423400
  C       -1.3025160    -1.4250040     0.3687340
  C        1.5441380    -1.0912920    -0.7082460
  C        1.5175140     0.8066950     0.7907500
  C       -2.8485400     0.8086890    -0.1980070
  C       -2.6918610    -1.5288690     0.3976690
  C       -3.4646370    -0.4031430     0.1053440
  C        2.9393010    -1.0716050    -0.7093040
  C        2.9130560     0.8267600     0.7846130
  C        3.6278980    -0.1122400     0.0369440
  H       -0.6848640    -2.2871190     0.6142040
  H        1.0058700    -1.8278860    -1.3015600
  H        0.9614050     1.5295600     1.3833290
  H       -3.4548610     1.6831510    -0.4309120
  H       -3.1654310    -2.4765660     0.6404150
  H       -4.5504850    -0.4615560     0.1267090
  H        3.4898150    -1.8022040    -1.2977600
  H        3.4438080     1.5707970     1.3744420
  H        4.7151610    -0.0954640     0.0345500
  H        0.0736060     2.0855870    -0.9073830
  H       -1.4416920     2.7564150    -1.0941350
units angstrom
no_reorient  #important for SAPT in psi4, default
symmetry c1  #important for SAPT in psi4, default
}

set PROPERTIES_ORIGIN ["COM"]
properties('MP2/aug-cc-pvtz', properties = ['dipole'])
--------------------------------------------------------------------------

    Molecular point group: c1
  Charge       = 0
  Multiplicity = 1
  Basis Set: AUG-CC-PVTZ
    Blend: AUG-CC-PVTZ
  Basis Set: (AUG-CC-PVTZ AUX)
    Blend: AUG-CC-PVTZ-JKFIT

    Orbital Energies [Eh]
    ---------------------

    Doubly Occupied:

       1A    -15.563610     2A    -11.280037     3A    -11.245590
       4A    -11.239336     5A    -11.238841     6A    -11.238722
       7A    -11.237489     8A    -11.237287     9A    -11.236938
      10A    -11.236239    11A    -11.235455    12A    -11.227476
      13A    -11.223368    14A     -1.225009    15A     -1.156876
      16A     -1.123804    17A     -1.053348    18A     -1.015386
      19A     -0.992814    20A     -0.973306    21A     -0.854571
      22A     -0.835038    23A     -0.810774    24A     -0.788516
      25A     -0.712470    26A     -0.685587    27A     -0.685167
      28A     -0.657014    29A     -0.626323    30A     -0.622737
      31A     -0.594334    32A     -0.592374    33A     -0.586638
      34A     -0.578151    35A     -0.536920    36A     -0.523074
      37A     -0.505806    38A     -0.500480    39A     -0.487757
      40A     -0.483455    41A     -0.447866    42A     -0.360584
      43A     -0.338894    44A     -0.316994    45A     -0.289449

  @DF-RHF Final Energy:  -515.45035762447094

   => Energetics <=

    Nuclear Repulsion Energy =            709.1077638061507287
    One-Electron Energy =               -2104.3124443650040121
    Two-Electron Energy =                 879.7543229343824578
    Total Energy =                       -515.4503576244709393
  Basis Set: (AUG-CC-PVTZ AUX)
    Blend: AUG-CC-PVTZ-RI
    Molecular point group: c1

    Geometry (in Angstrom), charge = 0, multiplicity = 1:

       Center              X                  Y                   Z               Mass
    ------------   -----------------  -----------------  -----------------  -----------------
         N           -0.857201545279     2.168046315422    -0.514188739103    14.003074004430
         C           -0.642200045279    -0.196442384578     0.060446060897    12.000000000000
         C            0.816657454721    -0.150806684578     0.037314260897    12.000000000000
         C           -1.450140545279     0.921152315422    -0.247084739103    12.000000000000
         C           -1.301642545279    -1.422031684578     0.363989260897    12.000000000000
         C            1.545011454721    -1.088319684578    -0.712990739103    12.000000000000
         C            1.518387454721     0.809667315422     0.786005260897    12.000000000000
         C           -2.847666545279     0.811661315422    -0.202751739103    12.000000000000
         C           -2.690987545279    -1.525896684578     0.392924260897    12.000000000000
         C           -3.463763545279    -0.400170684578     0.100599260897    12.000000000000
         C            2.940174454721    -1.068632684578    -0.714048739103    12.000000000000
         C            2.913929454721     0.829732315422     0.779868260897    12.000000000000
         C            3.628771454721    -0.109267684578     0.032199260897    12.000000000000
         H           -0.683990545279    -2.284146684578     0.609459260897     1.007825032230
         H            1.006743454721    -1.824913684578    -1.306304739103     1.007825032230
         H            0.962278454721     1.532532315422     1.378584260897     1.007825032230
         H           -3.453987545279     1.686123315422    -0.435656739103     1.007825032230
         H           -3.164557545279    -2.473593684578     0.635670260897     1.007825032230
         H           -4.549611545279    -0.458583684578     0.121964260897     1.007825032230
         H            3.490688454721    -1.799231684578    -1.302504739103     1.007825032230
         H            3.444681454721     1.573769315422     1.369697260897     1.007825032230
         H            4.716034454721    -0.092491684578     0.029805260897     1.007825032230
         H            0.074479454721     2.088559315422    -0.912127739103     1.007825032230
         H           -1.440818545279     2.759387315422    -1.098879739103     1.007825032230

  Basis Set: AUG-CC-PVTZ
    Blend: AUG-CC-PVTZ
  Basis Set: (AUG-CC-PVTZ AUX)
    Blend: AUG-CC-PVTZ-JKFIT
	 Reference Energy          =    -515.4503576244709393 [Eh]
	 Singles Energy            =      -0.0000000000000000 [Eh]
	 Same-Spin Energy          =      -0.5832435720451328 [Eh]
	 Opposite-Spin Energy      =      -1.8017294122027721 [Eh]
	 Correlation Energy        =      -2.3849729842479048 [Eh]
	 Total Energy              =    -517.8353306087188912 [Eh]

	 ================> DF-SCS-MP2 Energies <==================
	-----------------------------------------------------------
	 SCS Same-Spin Scale       =       0.3333333333333333 [-]
	 SCS Opposite-Spin Scale   =       1.2000000000000000 [-]
	 SCS Same-Spin Energy      =      -0.1944145240150442 [Eh]
	 SCS Opposite-Spin Energy  =      -2.1620752946433264 [Eh]
	 SCS Correlation Energy    =      -2.3564898186583707 [Eh]
	 SCS Total Energy          =    -517.8068474431292998 [Eh]
	-----------------------------------------------------------

  Dipole Moment: [D]
     X:     0.4581      Y:     0.5436      Z:    -1.1279     Total:     1.3332

*** Psi4 exiting successfully. Buy a developer a beer!
