                               Psi4 1.4a3.dev225

  ==> Input File <==

--------------------------------------------------------------------------
#psi4
#
memory 32 gb

molecule  {
0 1
  N       -0.8580750     2.1650740    -0.5094440
  C       -0.6634250    -0.2127650     0.0691530
  C        0.8157840    -0.1537790     0.0420590
  C       -1.4510140     0.9181800    -0.2423400
  C       -1.3025160    -1.4250040     0.3687340
  C        1.5337657    -1.0779411    -0.6975611
  C        1.5175140     0.8066950     0.7907500
  C       -2.8485400     0.8086890    -0.1980070
  C       -2.6918610    -1.5288690     0.3976690
  C       -3.4646370    -0.4031430     0.1053440
  C        2.9393010    -1.0716050    -0.7093040
  C        2.9130560     0.8267600     0.7846130
  C        3.6278980    -0.1122400     0.0369440
  H       -0.6848640    -2.2871190     0.6142040
  H        1.0058700    -1.8278860    -1.3015600
  H        0.9614050     1.5295600     1.3833290
  H       -3.4548610     1.6831510    -0.4309120
  H       -3.1654310    -2.4765660     0.6404150
  H       -4.5504850    -0.4615560     0.1267090
  H        3.4898150    -1.8022040    -1.2977600
  H        3.4438080     1.5707970     1.3744420
  H        4.7151610    -0.0954640     0.0345500
  H        0.0736060     2.0855870    -0.9073830
  H       -1.4416920     2.7564150    -1.0941350
units angstrom
no_reorient  #important for SAPT in psi4, default
symmetry c1  #important for SAPT in psi4, default
}

set PROPERTIES_ORIGIN ["COM"]
properties('MP2/aug-cc-pvtz', properties = ['dipole'])
--------------------------------------------------------------------------

    Molecular point group: c1
  Charge       = 0
  Multiplicity = 1
  Basis Set: AUG-CC-PVTZ
    Blend: AUG-CC-PVTZ
  Basis Set: (AUG-CC-PVTZ AUX)
    Blend: AUG-CC-PVTZ-JKFIT

    Orbital Energies [Eh]
    ---------------------

    Doubly Occupied:

       1A    -15.564560     2A    -11.279889     3A    -11.244402
       4A    -11.239968     5A    -11.238711     6A    -11.237100
       7A    -11.236822     8A    -11.236634     9A    -11.236589
      10A    -11.235602    11A    -11.235399    12A    -11.226980
      13A    -11.222975    14A     -1.225182    15A     -1.157487
      16A     -1.125568    17A     -1.052364    18A     -1.013657
      19A     -0.994183    20A     -0.974892    21A     -0.851625
      22A     -0.835878    23A     -0.811067    24A     -0.789558
      25A     -0.712324    26A     -0.685520    27A     -0.685267
      28A     -0.655059    29A     -0.626373    30A     -0.622857
      31A     -0.594351    32A     -0.592738    33A     -0.585053
      34A     -0.579605    35A     -0.537274    36A     -0.522231
      37A     -0.506671    38A     -0.501070    39A     -0.489493
      40A     -0.478946    41A     -0.448851    42A     -0.361345
      43A     -0.337505    44A     -0.318794    45A     -0.290609

  @DF-RHF Final Energy:  -515.45145887046760

   => Energetics <=

    Nuclear Repulsion Energy =            709.3793601237146049
    One-Electron Energy =               -2104.8635829121271854
    Two-Electron Energy =                 880.0327639179449761
    Total Energy =                       -515.4514588704676044
  Basis Set: (AUG-CC-PVTZ AUX)
    Blend: AUG-CC-PVTZ-RI
    Molecular point group: c1

    Geometry (in Angstrom), charge = 0, multiplicity = 1:

       Center              X                  Y                   Z               Mass
    ------------   -----------------  -----------------  -----------------  -----------------
         N           -0.855021123877     2.168046272841    -0.515228221534    14.003074004430
         C           -0.660371123877    -0.209792727159     0.063368778466    12.000000000000
         C            0.818837876123    -0.150806727159     0.036274778466    12.000000000000
         C           -1.447960123877     0.921152272841    -0.248124221534    12.000000000000
         C           -1.299462123877    -1.422031727159     0.362949778466    12.000000000000
         C            1.536819576123    -1.074968827159    -0.703345321534    12.000000000000
         C            1.520567876123     0.809667272841     0.784965778466    12.000000000000
         C           -2.845486123877     0.811661272841    -0.203791221534    12.000000000000
         C           -2.688807123877    -1.525896727159     0.391884778466    12.000000000000
         C           -3.461583123877    -0.400170727159     0.099559778466    12.000000000000
         C            2.942354876123    -1.068632727159    -0.715088221534    12.000000000000
         C            2.916109876123     0.829732272841     0.778828778466    12.000000000000
         C            3.630951876123    -0.109267727159     0.031159778466    12.000000000000
         H           -0.681810123877    -2.284146727159     0.608419778466     1.007825032230
         H            1.008923876123    -1.824913727159    -1.307344221534     1.007825032230
         H            0.964458876123     1.532532272841     1.377544778466     1.007825032230
         H           -3.451807123877     1.686123272841    -0.436696221534     1.007825032230
         H           -3.162377123877    -2.473593727159     0.634630778466     1.007825032230
         H           -4.547431123877    -0.458583727159     0.120924778466     1.007825032230
         H            3.492868876123    -1.799231727159    -1.303544221534     1.007825032230
         H            3.446861876123     1.573769272841     1.368657778466     1.007825032230
         H            4.718214876123    -0.092491727159     0.028765778466     1.007825032230
         H            0.076659876123     2.088559272841    -0.913167221534     1.007825032230
         H           -1.438638123877     2.759387272841    -1.099919221534     1.007825032230

  Basis Set: AUG-CC-PVTZ
    Blend: AUG-CC-PVTZ
  Basis Set: (AUG-CC-PVTZ AUX)
    Blend: AUG-CC-PVTZ-JKFIT
	 Reference Energy          =    -515.4514588704676044 [Eh]
	 Singles Energy            =      -0.0000000000000000 [Eh]
	 Same-Spin Energy          =      -0.5829413669735666 [Eh]
	 Opposite-Spin Energy      =      -1.8012342333412783 [Eh]
	 Correlation Energy        =      -2.3841756003148449 [Eh]
	 Total Energy              =    -517.8356344707824519 [Eh]

	 ================> DF-SCS-MP2 Energies <==================
	-----------------------------------------------------------
	 SCS Same-Spin Scale       =       0.3333333333333333 [-]
	 SCS Opposite-Spin Scale   =       1.2000000000000000 [-]
	 SCS Same-Spin Energy      =      -0.1943137889911888 [Eh]
	 SCS Opposite-Spin Energy  =      -2.1614810800095339 [Eh]
	 SCS Correlation Energy    =      -2.3557948690007229 [Eh]
	 SCS Total Energy          =    -517.8072537394683650 [Eh]
	-----------------------------------------------------------

  Dipole Moment: [D]
     X:     0.4617      Y:     0.5478      Z:    -1.1305     Total:     1.3384

*** Psi4 exiting successfully. Buy a developer a beer!
