                               Psi4 1.3.2 release

  ==> Input File <==

--------------------------------------------------------------------------
#psi4
#
memory 32 gb

molecule  {
0 1
  N       -0.8580750     2.1650740    -0.5094440
  C       -0.6634250    -0.2127650     0.0691530
  C        0.8157840    -0.1537790     0.0420590
  C       -1.5678551     0.9929727    -0.1931268
  C       -1.3025160    -1.4250040     0.3687340
  C        1.5441380    -1.0912920    -0.7082460
  C        1.5175140     0.8066950     0.7907500
  C       -2.8485400     0.8086890    -0.1980070
  C       -2.6918610    -1.5288690     0.3976690
  C       -3.4646370    -0.4031430     0.1053440
  C        2.9393010    -1.0716050    -0.7093040
  C        2.9130560     0.8267600     0.7846130
  C        3.6278980    -0.1122400     0.0369440
  H       -0.6848640    -2.2871190     0.6142040
  H        1.0058700    -1.8278860    -1.3015600
  H        0.9614050     1.5295600     1.3833290
  H       -3.4548610     1.6831510    -0.4309120
  H       -3.1654310    -2.4765660     0.6404150
  H       -4.5504850    -0.4615560     0.1267090
  H        3.4898150    -1.8022040    -1.2977600
  H        3.4438080     1.5707970     1.3744420
  H        4.7151610    -0.0954640     0.0345500
  H        0.0736060     2.0855870    -0.9073830
  H       -1.4416920     2.7564150    -1.0941350
units angstrom
no_reorient  #important for SAPT in psi4, default
symmetry c1  #important for SAPT in psi4, default
}

set PROPERTIES_ORIGIN ["COM"]
properties('MP2/aug-cc-pvtz', properties = ['dipole'])
--------------------------------------------------------------------------

    Molecular point group: c1
  Charge       = 0
  Multiplicity = 1
  Basis Set: AUG-CC-PVTZ
    Blend: AUG-CC-PVTZ
  Basis Set: (AUG-CC-PVTZ AUX)
    Blend: AUG-CC-PVTZ-JKFIT

    Orbital Energies [Eh]
    ---------------------

    Doubly Occupied:

       1A    -15.563035     2A    -11.278448     3A    -11.248459
       4A    -11.246804     5A    -11.239594     6A    -11.239151
       7A    -11.237712     8A    -11.237645     9A    -11.237324
      10A    -11.236063    11A    -11.234152    12A    -11.223871
      13A    -11.213281    14A     -1.223215    15A     -1.156240
      16A     -1.126462    17A     -1.052201    18A     -1.015616
      19A     -1.007477    20A     -0.967020    21A     -0.857894
      22A     -0.831692    23A     -0.801200    24A     -0.793354
      25A     -0.712928    26A     -0.692225    27A     -0.681323
      28A     -0.656751    29A     -0.627722    30A     -0.620880
      31A     -0.605462    32A     -0.587895    33A     -0.580522
      34A     -0.577448    35A     -0.538902    36A     -0.527770
      37A     -0.504084    38A     -0.499996    39A     -0.489582
      40A     -0.469803    41A     -0.446366    42A     -0.362260
      43A     -0.339173    44A     -0.325799    45A     -0.284122

  @DF-RHF Final Energy:  -515.42946355346214

   => Energetics <=

    Nuclear Repulsion Energy =            708.0700529399863399
    One-Electron Energy =               -2102.2011837939380712
    Two-Electron Energy =                 878.7016673004894756
    Total Energy =                       -515.4294635534621420
  Basis Set: (AUG-CC-PVTZ AUX)
    Blend: AUG-CC-PVTZ-RI
    Molecular point group: c1

    Geometry (in Angstrom), charge = 0, multiplicity = 1:

       Center              X                  Y                   Z               Mass
    ------------   -----------------  -----------------  -----------------  -----------------
         N           -0.847465194920     2.163685841655    -0.517962516442    14.003074004430
         C           -0.652815194920    -0.214153158345     0.060634483558    12.000000000000
         C            0.826393805080    -0.155167158345     0.033540483558    12.000000000000
         C           -1.557245294920     0.991584541655    -0.201645316442    12.000000000000
         C           -1.291906194920    -1.426392158345     0.360215483558    12.000000000000
         C            1.554747805080    -1.092680158345    -0.716764516442    12.000000000000
         C            1.528123805080     0.805306841655     0.782231483558    12.000000000000
         C           -2.837930194920     0.807300841655    -0.206525516442    12.000000000000
         C           -2.681251194920    -1.530257158345     0.389150483558    12.000000000000
         C           -3.454027194920    -0.404531158345     0.096825483558    12.000000000000
         C            2.949910805080    -1.072993158345    -0.717822516442    12.000000000000
         C            2.923665805080     0.825371841655     0.776094483558    12.000000000000
         C            3.638507805080    -0.113628158345     0.028425483558    12.000000000000
         H           -0.674254194920    -2.288507158345     0.605685483558     1.007825032230
         H            1.016479805080    -1.829274158345    -1.310078516442     1.007825032230
         H            0.972014805080     1.528171841655     1.374810483558     1.007825032230
         H           -3.444251194920     1.681762841655    -0.439430516442     1.007825032230
         H           -3.154821194920    -2.477954158345     0.631896483558     1.007825032230
         H           -4.539875194920    -0.462944158345     0.118190483558     1.007825032230
         H            3.500424805080    -1.803592158345    -1.306278516442     1.007825032230
         H            3.454417805080     1.569408841655     1.365923483558     1.007825032230
         H            4.725770805080    -0.096852158345     0.026031483558     1.007825032230
         H            0.084215805080     2.084198841655    -0.915901516442     1.007825032230
         H           -1.431082194920     2.755026841655    -1.102653516442     1.007825032230

  Basis Set: AUG-CC-PVTZ
    Blend: AUG-CC-PVTZ
  Basis Set: (AUG-CC-PVTZ AUX)
    Blend: AUG-CC-PVTZ-JKFIT
	 Reference Energy          =    -515.4294635534621420 [Eh]
	 Singles Energy            =      -0.0000000000000000 [Eh]
	 Same-Spin Energy          =      -0.5827619387814504 [Eh]
	 Opposite-Spin Energy      =      -1.8020958749766471 [Eh]
	 Correlation Energy        =      -2.3848578137580976 [Eh]
	 Total Energy              =    -517.8143213672202592 [Eh]

	 ================> DF-SCS-MP2 Energies <==================
	-----------------------------------------------------------
	 SCS Same-Spin Scale       =       0.3333333333333333 [-]
	 SCS Opposite-Spin Scale   =       1.2000000000000000 [-]
	 SCS Same-Spin Energy      =      -0.1942539795938168 [Eh]
	 SCS Opposite-Spin Energy  =      -2.1625150499719763 [Eh]
	 SCS Correlation Energy    =      -2.3567690295657933 [Eh]
	 SCS Total Energy          =    -517.7862325830279815 [Eh]
	-----------------------------------------------------------

  Dipole Moment: [D]
     X:     0.4880      Y:     0.5018      Z:    -1.1109     Total:     1.3130

*** Psi4 exiting successfully. Buy a developer a beer!
