                               Psi4 1.3.2 release

  ==> Input File <==

--------------------------------------------------------------------------
#psi4
#
memory 32 gb

molecule  {
0 1
  N       -0.8580750     2.1650740    -0.5094440
  C       -0.6634250    -0.2127650     0.0691530
  C        0.8143820    -0.3029957     0.0839088
  C       -1.4510140     0.9181800    -0.2423400
  C       -1.3025160    -1.4250040     0.3687340
  C        1.5441380    -1.0912920    -0.7082460
  C        1.5175140     0.8066950     0.7907500
  C       -2.8485400     0.8086890    -0.1980070
  C       -2.6918610    -1.5288690     0.3976690
  C       -3.4646370    -0.4031430     0.1053440
  C        2.9393010    -1.0716050    -0.7093040
  C        2.9130560     0.8267600     0.7846130
  C        3.6278980    -0.1122400     0.0369440
  H       -0.6848640    -2.2871190     0.6142040
  H        1.0058700    -1.8278860    -1.3015600
  H        0.9614050     1.5295600     1.3833290
  H       -3.4548610     1.6831510    -0.4309120
  H       -3.1654310    -2.4765660     0.6404150
  H       -4.5504850    -0.4615560     0.1267090
  H        3.4898150    -1.8022040    -1.2977600
  H        3.4438080     1.5707970     1.3744420
  H        4.7151610    -0.0954640     0.0345500
  H        0.0736060     2.0855870    -0.9073830
  H       -1.4416920     2.7564150    -1.0941350
units angstrom
no_reorient  #important for SAPT in psi4, default
symmetry c1  #important for SAPT in psi4, default
}

set PROPERTIES_ORIGIN ["COM"]
properties('MP2/aug-cc-pvtz', properties = ['dipole'])
--------------------------------------------------------------------------

    Molecular point group: c1
  Charge       = 0
  Multiplicity = 1
  Basis Set: AUG-CC-PVTZ
    Blend: AUG-CC-PVTZ
  Basis Set: (AUG-CC-PVTZ AUX)
    Blend: AUG-CC-PVTZ-JKFIT

    Orbital Energies [Eh]
    ---------------------

    Doubly Occupied:

       1A    -15.565011     2A    -11.282821     3A    -11.247463
       4A    -11.242737     5A    -11.239249     6A    -11.238093
       7A    -11.237009     8A    -11.236872     9A    -11.236496
      10A    -11.233730    11A    -11.229757    12A    -11.228130
      13A    -11.222071    14A     -1.224864    15A     -1.157360
      16A     -1.125710    17A     -1.053710    18A     -1.014540
      19A     -0.993194    20A     -0.973701    21A     -0.850097
      22A     -0.837958    23A     -0.811231    24A     -0.787221
      25A     -0.712301    26A     -0.686230    27A     -0.685776
      28A     -0.655910    29A     -0.625391    30A     -0.621648
      31A     -0.596353    32A     -0.592449    33A     -0.589009
      34A     -0.573613    35A     -0.537120    36A     -0.524124
      37A     -0.507362    38A     -0.499746    39A     -0.492972
      40A     -0.468307    41A     -0.448859    42A     -0.364004
      43A     -0.337300    44A     -0.316385    45A     -0.290431

  @DF-RHF Final Energy:  -515.43571654093603

   => Energetics <=

    Nuclear Repulsion Energy =            708.6444609720480230
    One-Electron Energy =               -2103.3717241045842457
    Two-Electron Energy =                 879.2915465916003086
    Total Energy =                       -515.4357165409360277
  Basis Set: (AUG-CC-PVTZ AUX)
    Blend: AUG-CC-PVTZ-RI
    Molecular point group: c1

    Geometry (in Angstrom), charge = 0, multiplicity = 1:

       Center              X                  Y                   Z               Mass
    ------------   -----------------  -----------------  -----------------  -----------------
         N           -0.855657732438     2.179583448392    -0.517439947132    14.003074004430
         C           -0.661007732438    -0.198255551608     0.061157052868    12.000000000000
         C            0.816799267562    -0.288486251608     0.075912852868    12.000000000000
         C           -1.448596732438     0.932689448392    -0.250335947132    12.000000000000
         C           -1.300098732438    -1.410494551608     0.360738052868    12.000000000000
         C            1.546555267562    -1.076782551608    -0.716241947132    12.000000000000
         C            1.519931267562     0.821204448392     0.782754052868    12.000000000000
         C           -2.846122732438     0.823198448392    -0.206002947132    12.000000000000
         C           -2.689443732438    -1.514359551608     0.389673052868    12.000000000000
         C           -3.462219732438    -0.388633551608     0.097348052868    12.000000000000
         C            2.941718267562    -1.057095551608    -0.717299947132    12.000000000000
         C            2.915473267562     0.841269448392     0.776617052868    12.000000000000
         C            3.630315267562    -0.097730551608     0.028948052868    12.000000000000
         H           -0.682446732438    -2.272609551608     0.606208052868     1.007825032230
         H            1.008287267562    -1.813376551608    -1.309555947132     1.007825032230
         H            0.963822267562     1.544069448392     1.375333052868     1.007825032230
         H           -3.452443732438     1.697660448392    -0.438907947132     1.007825032230
         H           -3.163013732438    -2.462056551608     0.632419052868     1.007825032230
         H           -4.548067732438    -0.447046551608     0.118713052868     1.007825032230
         H            3.492232267562    -1.787694551608    -1.305755947132     1.007825032230
         H            3.446225267562     1.585306448392     1.366446052868     1.007825032230
         H            4.717578267562    -0.080954551608     0.026554052868     1.007825032230
         H            0.076023267562     2.100096448392    -0.915378947132     1.007825032230
         H           -1.439274732438     2.770924448392    -1.102130947132     1.007825032230

  Basis Set: AUG-CC-PVTZ
    Blend: AUG-CC-PVTZ
  Basis Set: (AUG-CC-PVTZ AUX)
    Blend: AUG-CC-PVTZ-JKFIT
	 Reference Energy          =    -515.4357165409360277 [Eh]
	 Singles Energy            =      -0.0000000000000000 [Eh]
	 Same-Spin Energy          =      -0.5829630925753687 [Eh]
	 Opposite-Spin Energy      =      -1.8023957985065600 [Eh]
	 Correlation Energy        =      -2.3853588910819288 [Eh]
	 Total Energy              =    -517.8210754320180058 [Eh]

	 ================> DF-SCS-MP2 Energies <==================
	-----------------------------------------------------------
	 SCS Same-Spin Scale       =       0.3333333333333333 [-]
	 SCS Opposite-Spin Scale   =       1.2000000000000000 [-]
	 SCS Same-Spin Energy      =      -0.1943210308584562 [Eh]
	 SCS Opposite-Spin Energy  =      -2.1628749582078717 [Eh]
	 SCS Correlation Energy    =      -2.3571959890663279 [Eh]
	 SCS Total Energy          =    -517.7929125300023543 [Eh]
	-----------------------------------------------------------

  Dipole Moment: [D]
     X:     0.4399      Y:     0.5872      Z:    -1.1602     Total:     1.3727

*** Psi4 exiting successfully. Buy a developer a beer!
