                               Psi4 1.3.2 release

  ==> Input File <==

--------------------------------------------------------------------------
#psi4
#
memory 32 gb

molecule  {
0 1
  N       -0.8580750     2.1650740    -0.5094440
  C       -0.6634250    -0.2127650     0.0691530
  C        0.8009795    -0.0052086     0.0005060
  C       -1.4510140     0.9181800    -0.2423400
  C       -1.3025160    -1.4250040     0.3687340
  C        1.5441380    -1.0912920    -0.7082460
  C        1.5175140     0.8066950     0.7907500
  C       -2.8485400     0.8086890    -0.1980070
  C       -2.6918610    -1.5288690     0.3976690
  C       -3.4646370    -0.4031430     0.1053440
  C        2.9393010    -1.0716050    -0.7093040
  C        2.9130560     0.8267600     0.7846130
  C        3.6278980    -0.1122400     0.0369440
  H       -0.6848640    -2.2871190     0.6142040
  H        1.0058700    -1.8278860    -1.3015600
  H        0.9614050     1.5295600     1.3833290
  H       -3.4548610     1.6831510    -0.4309120
  H       -3.1654310    -2.4765660     0.6404150
  H       -4.5504850    -0.4615560     0.1267090
  H        3.4898150    -1.8022040    -1.2977600
  H        3.4438080     1.5707970     1.3744420
  H        4.7151610    -0.0954640     0.0345500
  H        0.0736060     2.0855870    -0.9073830
  H       -1.4416920     2.7564150    -1.0941350
units angstrom
no_reorient  #important for SAPT in psi4, default
symmetry c1  #important for SAPT in psi4, default
}

set PROPERTIES_ORIGIN ["COM"]
properties('MP2/aug-cc-pvtz', properties = ['dipole'])
--------------------------------------------------------------------------

    Molecular point group: c1
  Charge       = 0
  Multiplicity = 1
  Basis Set: AUG-CC-PVTZ
    Blend: AUG-CC-PVTZ
  Basis Set: (AUG-CC-PVTZ AUX)
    Blend: AUG-CC-PVTZ-JKFIT

    Orbital Energies [Eh]
    ---------------------

    Doubly Occupied:

       1A    -15.563658     2A    -11.276864     3A    -11.247195
       4A    -11.245778     5A    -11.239920     6A    -11.238664
       7A    -11.238636     8A    -11.237759     9A    -11.236538
      10A    -11.236494    11A    -11.230418    12A    -11.225850
      13A    -11.223905    14A     -1.225589    15A     -1.155006
      16A     -1.125513    17A     -1.052225    18A     -1.016329
      19A     -0.993194    20A     -0.973254    21A     -0.855605
      22A     -0.830481    23A     -0.813291    24A     -0.786784
      25A     -0.711256    26A     -0.686786    27A     -0.684596
      28A     -0.658173    29A     -0.626250    30A     -0.619919
      31A     -0.596747    32A     -0.591847    33A     -0.584771
      34A     -0.577368    35A     -0.537103    36A     -0.523296
      37A     -0.505063    38A     -0.499351    39A     -0.497100
      40A     -0.467617    41A     -0.448121    42A     -0.364483
      43A     -0.335692    44A     -0.317984    45A     -0.289706

  @DF-RHF Final Energy:  -515.43453161330615

   => Energetics <=

    Nuclear Repulsion Energy =            709.2145446619955464
    One-Electron Energy =               -2104.5137933848009197
    Two-Electron Energy =                 879.8647171094991108
    Total Energy =                       -515.4345316133061488
  Basis Set: (AUG-CC-PVTZ AUX)
    Blend: AUG-CC-PVTZ-RI
    Molecular point group: c1

    Geometry (in Angstrom), charge = 0, multiplicity = 1:

       Center              X                  Y                   Z               Mass
    ------------   -----------------  -----------------  -----------------  -----------------
         N           -0.854706577378     2.158449950391    -0.511520977146    14.003074004430
         C           -0.660056577378    -0.219389049609     0.067076022854    12.000000000000
         C            0.804347922622    -0.011832649609    -0.001570977146    12.000000000000
         C           -1.447645577378     0.911555950391    -0.244416977146    12.000000000000
         C           -1.299147577378    -1.431628049609     0.366657022854    12.000000000000
         C            1.547506422622    -1.097916049609    -0.710322977146    12.000000000000
         C            1.520882422622     0.800070950391     0.788673022854    12.000000000000
         C           -2.845171577378     0.802064950391    -0.200083977146    12.000000000000
         C           -2.688492577378    -1.535493049609     0.395592022854    12.000000000000
         C           -3.461268577378    -0.409767049609     0.103267022854    12.000000000000
         C            2.942669422622    -1.078229049609    -0.711380977146    12.000000000000
         C            2.916424422622     0.820135950391     0.782536022854    12.000000000000
         C            3.631266422622    -0.118864049609     0.034867022854    12.000000000000
         H           -0.681495577378    -2.293743049609     0.612127022854     1.007825032230
         H            1.009238422622    -1.834510049609    -1.303636977146     1.007825032230
         H            0.964773422622     1.522935950391     1.381252022854     1.007825032230
         H           -3.451492577378     1.676526950391    -0.432988977146     1.007825032230
         H           -3.162062577378    -2.483190049609     0.638338022854     1.007825032230
         H           -4.547116577378    -0.468180049609     0.124632022854     1.007825032230
         H            3.493183422622    -1.808828049609    -1.299836977146     1.007825032230
         H            3.447176422622     1.564172950391     1.372365022854     1.007825032230
         H            4.718529422622    -0.102088049609     0.032473022854     1.007825032230
         H            0.076974422622     2.078962950391    -0.909459977146     1.007825032230
         H           -1.438323577378     2.749790950391    -1.096211977146     1.007825032230

  Basis Set: AUG-CC-PVTZ
    Blend: AUG-CC-PVTZ
  Basis Set: (AUG-CC-PVTZ AUX)
    Blend: AUG-CC-PVTZ-JKFIT
	 Reference Energy          =    -515.4345316133061488 [Eh]
	 Singles Energy            =      -0.0000000000000000 [Eh]
	 Same-Spin Energy          =      -0.5834179980887713 [Eh]
	 Opposite-Spin Energy      =      -1.8031025106339054 [Eh]
	 Correlation Energy        =      -2.3865205087226764 [Eh]
	 Total Energy              =    -517.8210521220288456 [Eh]

	 ================> DF-SCS-MP2 Energies <==================
	-----------------------------------------------------------
	 SCS Same-Spin Scale       =       0.3333333333333333 [-]
	 SCS Opposite-Spin Scale   =       1.2000000000000000 [-]
	 SCS Same-Spin Energy      =      -0.1944726660295904 [Eh]
	 SCS Opposite-Spin Energy  =      -2.1637230127606863 [Eh]
	 SCS Correlation Energy    =      -2.3581956787902767 [Eh]
	 SCS Total Energy          =    -517.7927272920964015 [Eh]
	-----------------------------------------------------------

  Dipole Moment: [D]
     X:     0.5193      Y:     0.5103      Z:    -1.0954     Total:     1.3152

*** Psi4 exiting successfully. Buy a developer a beer!
