                               Psi4 1.3.2 release

  ==> Input File <==

--------------------------------------------------------------------------
#psi4
#
memory 32 gb

molecule  {
0 1
  N       -0.8580750     2.1650740    -0.5094440
  C       -0.6634250    -0.2127650     0.0691530
  C        0.8157840    -0.1537790     0.0420590
  C       -1.4105579     0.8962487    -0.2594223
  C       -1.3025160    -1.4250040     0.3687340
  C        1.5441380    -1.0912920    -0.7082460
  C        1.5175140     0.8066950     0.7907500
  C       -2.8485400     0.8086890    -0.1980070
  C       -2.6918610    -1.5288690     0.3976690
  C       -3.4646370    -0.4031430     0.1053440
  C        2.9393010    -1.0716050    -0.7093040
  C        2.9130560     0.8267600     0.7846130
  C        3.6278980    -0.1122400     0.0369440
  H       -0.6848640    -2.2871190     0.6142040
  H        1.0058700    -1.8278860    -1.3015600
  H        0.9614050     1.5295600     1.3833290
  H       -3.4548610     1.6831510    -0.4309120
  H       -3.1654310    -2.4765660     0.6404150
  H       -4.5504850    -0.4615560     0.1267090
  H        3.4898150    -1.8022040    -1.2977600
  H        3.4438080     1.5707970     1.3744420
  H        4.7151610    -0.0954640     0.0345500
  H        0.0736060     2.0855870    -0.9073830
  H       -1.4416920     2.7564150    -1.0941350
units angstrom
no_reorient  #important for SAPT in psi4, default
symmetry c1  #important for SAPT in psi4, default
}

set PROPERTIES_ORIGIN ["COM"]
properties('MP2/aug-cc-pvtz', properties = ['dipole'])
--------------------------------------------------------------------------

    Molecular point group: c1
  Charge       = 0
  Multiplicity = 1
  Basis Set: AUG-CC-PVTZ
    Blend: AUG-CC-PVTZ
  Basis Set: (AUG-CC-PVTZ AUX)
    Blend: AUG-CC-PVTZ-JKFIT

    Orbital Energies [Eh]
    ---------------------

    Doubly Occupied:

       1A    -15.565020     2A    -11.279768     3A    -11.245823
       4A    -11.239019     5A    -11.238601     6A    -11.236888
       7A    -11.236859     8A    -11.236527     9A    -11.236432
      10A    -11.235187    11A    -11.231834    12A    -11.231369
      13A    -11.223425    14A     -1.225908    15A     -1.156288
      16A     -1.125772    17A     -1.052086    18A     -1.015006
      19A     -0.990055    20A     -0.976668    21A     -0.850693
      22A     -0.836023    23A     -0.813769    24A     -0.787146
      25A     -0.712049    26A     -0.686483    27A     -0.684025
      28A     -0.656407    29A     -0.625566    30A     -0.624750
      31A     -0.597010    32A     -0.587980    33A     -0.586055
      34A     -0.578988    35A     -0.537009    36A     -0.521496
      37A     -0.508092    38A     -0.500431    39A     -0.490441
      40A     -0.476960    41A     -0.449301    42A     -0.360560
      43A     -0.338561    44A     -0.316679    45A     -0.291898

  @DF-RHF Final Energy:  -515.44901224427235

   => Energetics <=

    Nuclear Repulsion Energy =            709.3954207934876877
    One-Electron Energy =               -2104.8950536799829933
    Two-Electron Energy =                 880.0506206422230662
    Total Energy =                       -515.4490122442723532
  Basis Set: (AUG-CC-PVTZ AUX)
    Blend: AUG-CC-PVTZ-RI
    Molecular point group: c1

    Geometry (in Angstrom), charge = 0, multiplicity = 1:

       Center              X                  Y                   Z               Mass
    ------------   -----------------  -----------------  -----------------  -----------------
         N           -0.858628338192     2.170550196964    -0.513257625542    14.003074004430
         C           -0.663978338192    -0.207288803036     0.065339374458    12.000000000000
         C            0.815230661808    -0.148302803036     0.038245374458    12.000000000000
         C           -1.411111238192     0.901724896964    -0.263235925542    12.000000000000
         C           -1.303069338192    -1.419527803036     0.364920374458    12.000000000000
         C            1.543584661808    -1.085815803036    -0.712059625542    12.000000000000
         C            1.516960661808     0.812171196964     0.786936374458    12.000000000000
         C           -2.849093338192     0.814165196964    -0.201820625542    12.000000000000
         C           -2.692414338192    -1.523392803036     0.393855374458    12.000000000000
         C           -3.465190338192    -0.397666803036     0.101530374458    12.000000000000
         C            2.938747661808    -1.066128803036    -0.713117625542    12.000000000000
         C            2.912502661808     0.832236196964     0.780799374458    12.000000000000
         C            3.627344661808    -0.106763803036     0.033130374458    12.000000000000
         H           -0.685417338192    -2.281642803036     0.610390374458     1.007825032230
         H            1.005316661808    -1.822409803036    -1.305373625542     1.007825032230
         H            0.960851661808     1.535036196964     1.379515374458     1.007825032230
         H           -3.455414338192     1.688627196964    -0.434725625542     1.007825032230
         H           -3.165984338192    -2.471089803036     0.636601374458     1.007825032230
         H           -4.551038338192    -0.456079803036     0.122895374458     1.007825032230
         H            3.489261661808    -1.796727803036    -1.301573625542     1.007825032230
         H            3.443254661808     1.576273196964     1.370628374458     1.007825032230
         H            4.714607661808    -0.089987803036     0.030736374458     1.007825032230
         H            0.073052661808     2.091063196964    -0.911196625542     1.007825032230
         H           -1.442245338192     2.761891196964    -1.097948625542     1.007825032230

  Basis Set: AUG-CC-PVTZ
    Blend: AUG-CC-PVTZ
  Basis Set: (AUG-CC-PVTZ AUX)
    Blend: AUG-CC-PVTZ-JKFIT
	 Reference Energy          =    -515.4490122442723532 [Eh]
	 Singles Energy            =      -0.0000000000000000 [Eh]
	 Same-Spin Energy          =      -0.5828703224454755 [Eh]
	 Opposite-Spin Energy      =      -1.8014932694615726 [Eh]
	 Correlation Energy        =      -2.3843635919070483 [Eh]
	 Total Energy              =    -517.8333758361793571 [Eh]

	 ================> DF-SCS-MP2 Energies <==================
	-----------------------------------------------------------
	 SCS Same-Spin Scale       =       0.3333333333333333 [-]
	 SCS Opposite-Spin Scale   =       1.2000000000000000 [-]
	 SCS Same-Spin Energy      =      -0.1942901074818252 [Eh]
	 SCS Opposite-Spin Energy  =      -2.1617919233538871 [Eh]
	 SCS Correlation Energy    =      -2.3560820308357124 [Eh]
	 SCS Total Energy          =    -517.8050942751081038 [Eh]
	-----------------------------------------------------------

  Dipole Moment: [D]
     X:     0.4290      Y:     0.5575      Z:    -1.1324     Total:     1.3331

*** Psi4 exiting successfully. Buy a developer a beer!
