                               Psi4 1.3.2 release

  ==> Input File <==

--------------------------------------------------------------------------
#psi4
#
memory 32 gb

molecule  {
0 1
  N       -0.8580750     2.1650740    -0.5094440
  C       -0.7471668    -0.2626821     0.0840414
  C        0.8157840    -0.1537790     0.0420590
  C       -1.4510140     0.9181800    -0.2423400
  C       -1.3025160    -1.4250040     0.3687340
  C        1.5441380    -1.0912920    -0.7082460
  C        1.5175140     0.8066950     0.7907500
  C       -2.8485400     0.8086890    -0.1980070
  C       -2.6918610    -1.5288690     0.3976690
  C       -3.4646370    -0.4031430     0.1053440
  C        2.9393010    -1.0716050    -0.7093040
  C        2.9130560     0.8267600     0.7846130
  C        3.6278980    -0.1122400     0.0369440
  H       -0.6848640    -2.2871190     0.6142040
  H        1.0058700    -1.8278860    -1.3015600
  H        0.9614050     1.5295600     1.3833290
  H       -3.4548610     1.6831510    -0.4309120
  H       -3.1654310    -2.4765660     0.6404150
  H       -4.5504850    -0.4615560     0.1267090
  H        3.4898150    -1.8022040    -1.2977600
  H        3.4438080     1.5707970     1.3744420
  H        4.7151610    -0.0954640     0.0345500
  H        0.0736060     2.0855870    -0.9073830
  H       -1.4416920     2.7564150    -1.0941350
units angstrom
no_reorient  #important for SAPT in psi4, default
symmetry c1  #important for SAPT in psi4, default
}

set PROPERTIES_ORIGIN ["COM"]
properties('MP2/aug-cc-pvtz', properties = ['dipole'])
--------------------------------------------------------------------------

    Molecular point group: c1
  Charge       = 0
  Multiplicity = 1
  Basis Set: AUG-CC-PVTZ
    Blend: AUG-CC-PVTZ
  Basis Set: (AUG-CC-PVTZ AUX)
    Blend: AUG-CC-PVTZ-JKFIT

    Orbital Energies [Eh]
    ---------------------

    Doubly Occupied:

       1A    -15.568024     2A    -11.280445     3A    -11.249342
       4A    -11.238541     5A    -11.238181     6A    -11.236247
       7A    -11.235597     8A    -11.235120     9A    -11.234878
      10A    -11.234811    11A    -11.226471    12A    -11.225721
      13A    -11.222181    14A     -1.225957    15A     -1.154634
      16A     -1.134240    17A     -1.045774    18A     -1.014195
      19A     -0.999092    20A     -0.976459    21A     -0.844156
      22A     -0.834214    23A     -0.814283    24A     -0.791449
      25A     -0.712054    26A     -0.688065    27A     -0.685258
      28A     -0.651428    29A     -0.623308    30A     -0.621493
      31A     -0.602581    32A     -0.592230    33A     -0.585526
      34A     -0.577066    35A     -0.538958    36A     -0.523912
      37A     -0.508871    38A     -0.500380    39A     -0.491774
      40A     -0.462105    41A     -0.452270    42A     -0.360894
      43A     -0.337971    44A     -0.323346    45A     -0.291616

  @DF-RHF Final Energy:  -515.44172221950248

   => Energetics <=

    Nuclear Repulsion Energy =            708.9875906718046963
    One-Electron Energy =               -2104.0763970570292258
    Two-Electron Energy =                 879.6470841657219353
    Total Energy =                       -515.4417222195024806
  Basis Set: (AUG-CC-PVTZ AUX)
    Blend: AUG-CC-PVTZ-RI
    Molecular point group: c1

    Geometry (in Angstrom), charge = 0, multiplicity = 1:

       Center              X                  Y                   Z               Mass
    ------------   -----------------  -----------------  -----------------  -----------------
         N           -0.849814201947     2.172536306665    -0.515526537542    14.003074004430
         C           -0.738906001947    -0.255219793335     0.077958862458    12.000000000000
         C            0.824044798053    -0.146316693335     0.035976462458    12.000000000000
         C           -1.442753201947     0.925642306665    -0.248422537542    12.000000000000
         C           -1.294255201947    -1.417541693335     0.362651462458    12.000000000000
         C            1.552398798053    -1.083829693335    -0.714328537542    12.000000000000
         C            1.525774798053     0.814157306665     0.784667462458    12.000000000000
         C           -2.840279201947     0.816151306665    -0.204089537542    12.000000000000
         C           -2.683600201947    -1.521406693335     0.391586462458    12.000000000000
         C           -3.456376201947    -0.395680693335     0.099261462458    12.000000000000
         C            2.947561798053    -1.064142693335    -0.715386537542    12.000000000000
         C            2.921316798053     0.834222306665     0.778530462458    12.000000000000
         C            3.636158798053    -0.104777693335     0.030861462458    12.000000000000
         H           -0.676603201947    -2.279656693335     0.608121462458     1.007825032230
         H            1.014130798053    -1.820423693335    -1.307642537542     1.007825032230
         H            0.969665798053     1.537022306665     1.377246462458     1.007825032230
         H           -3.446600201947     1.690613306665    -0.436994537542     1.007825032230
         H           -3.157170201947    -2.469103693335     0.634332462458     1.007825032230
         H           -4.542224201947    -0.454093693335     0.120626462458     1.007825032230
         H            3.498075798053    -1.794741693335    -1.303842537542     1.007825032230
         H            3.452068798053     1.578259306665     1.368359462458     1.007825032230
         H            4.723421798053    -0.088001693335     0.028467462458     1.007825032230
         H            0.081866798053     2.093049306665    -0.913465537542     1.007825032230
         H           -1.433431201947     2.763877306665    -1.100217537542     1.007825032230

  Basis Set: AUG-CC-PVTZ
    Blend: AUG-CC-PVTZ
  Basis Set: (AUG-CC-PVTZ AUX)
    Blend: AUG-CC-PVTZ-JKFIT
	 Reference Energy          =    -515.4417222195024806 [Eh]
	 Singles Energy            =      -0.0000000000000000 [Eh]
	 Same-Spin Energy          =      -0.5823200511804588 [Eh]
	 Opposite-Spin Energy      =      -1.8004405544165465 [Eh]
	 Correlation Energy        =      -2.3827606055970052 [Eh]
	 Total Energy              =    -517.8244828250994942 [Eh]

	 ================> DF-SCS-MP2 Energies <==================
	-----------------------------------------------------------
	 SCS Same-Spin Scale       =       0.3333333333333333 [-]
	 SCS Opposite-Spin Scale   =       1.2000000000000000 [-]
	 SCS Same-Spin Energy      =      -0.1941066837268196 [Eh]
	 SCS Opposite-Spin Energy  =      -2.1605286652998559 [Eh]
	 SCS Correlation Energy    =      -2.3546353490266756 [Eh]
	 SCS Total Energy          =    -517.7963575685291744 [Eh]
	-----------------------------------------------------------

  Dipole Moment: [D]
     X:     0.4141      Y:     0.5677      Z:    -1.1326     Total:     1.3329

*** Psi4 exiting successfully. Buy a developer a beer!
