                               Psi4 1.3.2 release

  ==> Input File <==

--------------------------------------------------------------------------
#psi4
#
memory 32 gb

molecule  {
0 1
  N       -0.8803854     2.1746993    -0.5129103
  C       -0.6634250    -0.2127650     0.0691530
  C        0.8157840    -0.1537790     0.0420590
  C       -1.4510140     0.9181800    -0.2423400
  C       -1.3025160    -1.4250040     0.3687340
  C        1.5441380    -1.0912920    -0.7082460
  C        1.5175140     0.8066950     0.7907500
  C       -2.8485400     0.8086890    -0.1980070
  C       -2.6918610    -1.5288690     0.3976690
  C       -3.4646370    -0.4031430     0.1053440
  C        2.9393010    -1.0716050    -0.7093040
  C        2.9130560     0.8267600     0.7846130
  C        3.6278980    -0.1122400     0.0369440
  H       -0.6848640    -2.2871190     0.6142040
  H        1.0058700    -1.8278860    -1.3015600
  H        0.9614050     1.5295600     1.3833290
  H       -3.4548610     1.6831510    -0.4309120
  H       -3.1654310    -2.4765660     0.6404150
  H       -4.5504850    -0.4615560     0.1267090
  H        3.4898150    -1.8022040    -1.2977600
  H        3.4438080     1.5707970     1.3744420
  H        4.7151610    -0.0954640     0.0345500
  H        0.0736060     2.0855870    -0.9073830
  H       -1.4416920     2.7564150    -1.0941350
units angstrom
no_reorient  #important for SAPT in psi4, default
symmetry c1  #important for SAPT in psi4, default
}

set PROPERTIES_ORIGIN ["COM"]
properties('MP2/aug-cc-pvtz', properties = ['dipole'])
--------------------------------------------------------------------------

    Molecular point group: c1
  Charge       = 0
  Multiplicity = 1
  Basis Set: AUG-CC-PVTZ
    Blend: AUG-CC-PVTZ
  Basis Set: (AUG-CC-PVTZ AUX)
    Blend: AUG-CC-PVTZ-JKFIT

    Orbital Energies [Eh]
    ---------------------

    Doubly Occupied:

       1A    -15.564245     2A    -11.279964     3A    -11.246763
       4A    -11.239370     5A    -11.238956     6A    -11.237263
       7A    -11.237052     8A    -11.236868     9A    -11.236656
      10A    -11.235881    11A    -11.235681    12A    -11.226511
      13A    -11.223023    14A     -1.225027    15A     -1.156586
      16A     -1.125629    17A     -1.051670    18A     -1.015383
      19A     -0.993712    20A     -0.974257    21A     -0.852213
      22A     -0.835277    23A     -0.811695    24A     -0.789067
      25A     -0.712160    26A     -0.688606    27A     -0.683256
      28A     -0.655552    29A     -0.625687    30A     -0.623046
      31A     -0.595553    32A     -0.590981    33A     -0.586495
      34A     -0.579395    35A     -0.537082    36A     -0.522842
      37A     -0.506536    38A     -0.500578    39A     -0.489559
      40A     -0.479399    41A     -0.448799    42A     -0.360590
      43A     -0.338931    44A     -0.317985    45A     -0.290286

  @DF-RHF Final Energy:  -515.45109942061515

   => Energetics <=

    Nuclear Repulsion Energy =            708.8503341172630599
    One-Electron Energy =               -2103.7987395041877789
    Two-Electron Energy =                 879.4973059663094546
    Total Energy =                       -515.4510994206151508
  Basis Set: (AUG-CC-PVTZ AUX)
    Blend: AUG-CC-PVTZ-RI
    Molecular point group: c1

    Geometry (in Angstrom), charge = 0, multiplicity = 1:

       Center              X                  Y                   Z               Mass
    ------------   -----------------  -----------------  -----------------  -----------------
         N           -0.876220000264     2.177821949207    -0.517649169682    14.003074004430
         C           -0.659259600264    -0.209642350793     0.064414130318    12.000000000000
         C            0.819949399736    -0.150656350793     0.037320130318    12.000000000000
         C           -1.446848600264     0.921302649207    -0.247078869682    12.000000000000
         C           -1.298350600264    -1.421881350793     0.363995130318    12.000000000000
         C            1.548303399736    -1.088169350793    -0.712984869682    12.000000000000
         C            1.521679399736     0.809817649207     0.786011130318    12.000000000000
         C           -2.844374600264     0.811811649207    -0.202745869682    12.000000000000
         C           -2.687695600264    -1.525746350793     0.392930130318    12.000000000000
         C           -3.460471600264    -0.400020350793     0.100605130318    12.000000000000
         C            2.943466399736    -1.068482350793    -0.714042869682    12.000000000000
         C            2.917221399736     0.829882649207     0.779874130318    12.000000000000
         C            3.632063399736    -0.109117350793     0.032205130318    12.000000000000
         H           -0.680698600264    -2.283996350793     0.609465130318     1.007825032230
         H            1.010035399736    -1.824763350793    -1.306298869682     1.007825032230
         H            0.965570399736     1.532682649207     1.378590130318     1.007825032230
         H           -3.450695600264     1.686273649207    -0.435650869682     1.007825032230
         H           -3.161265600264    -2.473443350793     0.635676130318     1.007825032230
         H           -4.546319600264    -0.458433350793     0.121970130318     1.007825032230
         H            3.493980399736    -1.799081350793    -1.302498869682     1.007825032230
         H            3.447973399736     1.573919649207     1.369703130318     1.007825032230
         H            4.719326399736    -0.092341350793     0.029811130318     1.007825032230
         H            0.077771399736     2.088709649207    -0.912121869682     1.007825032230
         H           -1.437526600264     2.759537649207    -1.098873869682     1.007825032230

  Basis Set: AUG-CC-PVTZ
    Blend: AUG-CC-PVTZ
  Basis Set: (AUG-CC-PVTZ AUX)
    Blend: AUG-CC-PVTZ-JKFIT
	 Reference Energy          =    -515.4510994206151508 [Eh]
	 Singles Energy            =      -0.0000000000000000 [Eh]
	 Same-Spin Energy          =      -0.5829363515249423 [Eh]
	 Opposite-Spin Energy      =      -1.8012156832932198 [Eh]
	 Correlation Energy        =      -2.3841520348181620 [Eh]
	 Total Energy              =    -517.8352514554333084 [Eh]

	 ================> DF-SCS-MP2 Energies <==================
	-----------------------------------------------------------
	 SCS Same-Spin Scale       =       0.3333333333333333 [-]
	 SCS Opposite-Spin Scale   =       1.2000000000000000 [-]
	 SCS Same-Spin Energy      =      -0.1943121171749808 [Eh]
	 SCS Opposite-Spin Energy  =      -2.1614588199518638 [Eh]
	 SCS Correlation Energy    =      -2.3557709371268447 [Eh]
	 SCS Total Energy          =    -517.8068703577420138 [Eh]
	-----------------------------------------------------------

  Dipole Moment: [D]
     X:     0.4797      Y:     0.5347      Z:    -1.1268     Total:     1.3363

*** Psi4 exiting successfully. Buy a developer a beer!
