                               Psi4 1.3.2 release

  ==> Input File <==

--------------------------------------------------------------------------
#psi4
#
memory 32 gb

molecule  {
0 1
  N       -0.8580750     2.1650740    -0.5094440
  C       -0.6634250    -0.2127650     0.0691530
  C        0.7158801    -0.1577628     0.0438889
  C       -1.4510140     0.9181800    -0.2423400
  C       -1.3025160    -1.4250040     0.3687340
  C        1.5441380    -1.0912920    -0.7082460
  C        1.5175140     0.8066950     0.7907500
  C       -2.8485400     0.8086890    -0.1980070
  C       -2.6918610    -1.5288690     0.3976690
  C       -3.4646370    -0.4031430     0.1053440
  C        2.9393010    -1.0716050    -0.7093040
  C        2.9130560     0.8267600     0.7846130
  C        3.6278980    -0.1122400     0.0369440
  H       -0.6848640    -2.2871190     0.6142040
  H        1.0058700    -1.8278860    -1.3015600
  H        0.9614050     1.5295600     1.3833290
  H       -3.4548610     1.6831510    -0.4309120
  H       -3.1654310    -2.4765660     0.6404150
  H       -4.5504850    -0.4615560     0.1267090
  H        3.4898150    -1.8022040    -1.2977600
  H        3.4438080     1.5707970     1.3744420
  H        4.7151610    -0.0954640     0.0345500
  H        0.0736060     2.0855870    -0.9073830
  H       -1.4416920     2.7564150    -1.0941350
units angstrom
no_reorient  #important for SAPT in psi4, default
symmetry c1  #important for SAPT in psi4, default
}

set PROPERTIES_ORIGIN ["COM"]
properties('MP2/aug-cc-pvtz', properties = ['dipole'])
--------------------------------------------------------------------------

    Molecular point group: c1
  Charge       = 0
  Multiplicity = 1
  Basis Set: AUG-CC-PVTZ
    Blend: AUG-CC-PVTZ
  Basis Set: (AUG-CC-PVTZ AUX)
    Blend: AUG-CC-PVTZ-JKFIT

    Orbital Energies [Eh]
    ---------------------

    Doubly Occupied:

       1A    -15.565899     2A    -11.282584     3A    -11.250940
       4A    -11.242048     5A    -11.240784     6A    -11.239294
       7A    -11.238610     8A    -11.238587     9A    -11.237797
      10A    -11.236896    11A    -11.230885    12A    -11.228652
      13A    -11.224622    14A     -1.228472    15A     -1.151674
      16A     -1.126479    17A     -1.062249    18A     -1.009886
      19A     -0.994654    20A     -0.970358    21A     -0.863245
      22A     -0.834159    23A     -0.808562    24A     -0.786596
      25A     -0.714150    26A     -0.688931    27A     -0.685674
      28A     -0.664089    29A     -0.623142    30A     -0.621427
      31A     -0.596517    32A     -0.595106    33A     -0.584277
      34A     -0.578403    35A     -0.539089    36A     -0.524300
      37A     -0.508042    38A     -0.493873    39A     -0.492872
      40A     -0.476676    41A     -0.449698    42A     -0.362597
      43A     -0.336746    44A     -0.315617    45A     -0.285109

  @DF-RHF Final Energy:  -515.43462215618968

   => Energetics <=

    Nuclear Repulsion Energy =            709.2882197434377076
    One-Electron Energy =               -2104.5851485487764876
    Two-Electron Energy =                 879.8623066491489908
    Total Energy =                       -515.4346221561896755
  Basis Set: (AUG-CC-PVTZ AUX)
    Blend: AUG-CC-PVTZ-RI
    Molecular point group: c1

    Geometry (in Angstrom), charge = 0, multiplicity = 1:

       Center              X                  Y                   Z               Mass
    ------------   -----------------  -----------------  -----------------  -----------------
         N           -0.848667202268     2.169276490160    -0.514599795639    14.003074004430
         C           -0.654017202268    -0.208562509840     0.063997204361    12.000000000000
         C            0.725287897732    -0.153560309840     0.038733104361    12.000000000000
         C           -1.441606202268     0.922382490160    -0.247495795639    12.000000000000
         C           -1.293108202268    -1.420801509840     0.363578204361    12.000000000000
         C            1.553545797732    -1.087089509840    -0.713401795639    12.000000000000
         C            1.526921797732     0.810897490160     0.785594204361    12.000000000000
         C           -2.839132202268     0.812891490160    -0.203162795639    12.000000000000
         C           -2.682453202268    -1.524666509840     0.392513204361    12.000000000000
         C           -3.455229202268    -0.398940509840     0.100188204361    12.000000000000
         C            2.948708797732    -1.067402509840    -0.714459795639    12.000000000000
         C            2.922463797732     0.830962490160     0.779457204361    12.000000000000
         C            3.637305797732    -0.108037509840     0.031788204361    12.000000000000
         H           -0.675456202268    -2.282916509840     0.609048204361     1.007825032230
         H            1.015277797732    -1.823683509840    -1.306715795639     1.007825032230
         H            0.970812797732     1.533762490160     1.378173204361     1.007825032230
         H           -3.445453202268     1.687353490160    -0.436067795639     1.007825032230
         H           -3.156023202268    -2.472363509840     0.635259204361     1.007825032230
         H           -4.541077202268    -0.457353509840     0.121553204361     1.007825032230
         H            3.499222797732    -1.798001509840    -1.302915795639     1.007825032230
         H            3.453215797732     1.574999490160     1.369286204361     1.007825032230
         H            4.724568797732    -0.091261509840     0.029394204361     1.007825032230
         H            0.083013797732     2.089789490160    -0.912538795639     1.007825032230
         H           -1.432284202268     2.760617490160    -1.099290795639     1.007825032230

  Basis Set: AUG-CC-PVTZ
    Blend: AUG-CC-PVTZ
  Basis Set: (AUG-CC-PVTZ AUX)
    Blend: AUG-CC-PVTZ-JKFIT
	 Reference Energy          =    -515.4346221561896755 [Eh]
	 Singles Energy            =      -0.0000000000000000 [Eh]
	 Same-Spin Energy          =      -0.5850179981351156 [Eh]
	 Opposite-Spin Energy      =      -1.8044786829673167 [Eh]
	 Correlation Energy        =      -2.3894966811024325 [Eh]
	 Total Energy              =    -517.8241188372920760 [Eh]

	 ================> DF-SCS-MP2 Energies <==================
	-----------------------------------------------------------
	 SCS Same-Spin Scale       =       0.3333333333333333 [-]
	 SCS Opposite-Spin Scale   =       1.2000000000000000 [-]
	 SCS Same-Spin Energy      =      -0.1950059993783718 [Eh]
	 SCS Opposite-Spin Energy  =      -2.1653744195607798 [Eh]
	 SCS Correlation Energy    =      -2.3603804189391515 [Eh]
	 SCS Total Energy          =    -517.7950025751288194 [Eh]
	-----------------------------------------------------------

  Dipole Moment: [D]
     X:     0.2593      Y:     0.5674      Z:    -1.1213     Total:     1.2831

*** Psi4 exiting successfully. Buy a developer a beer!
