                               Psi4 1.3.2 release

  ==> Input File <==

--------------------------------------------------------------------------
#psi4
#
memory 32 gb

molecule  {
0 1
  N       -0.8580750     2.1650740    -0.5094440
  C       -0.6634250    -0.2127650     0.0691530
  C        0.8166776    -0.1786477     0.0490257
  C       -1.4510140     0.9181800    -0.2423400
  C       -1.3025160    -1.4250040     0.3687340
  C        1.5441380    -1.0912920    -0.7082460
  C        1.5175140     0.8066950     0.7907500
  C       -2.8485400     0.8086890    -0.1980070
  C       -2.6918610    -1.5288690     0.3976690
  C       -3.4646370    -0.4031430     0.1053440
  C        2.9393010    -1.0716050    -0.7093040
  C        2.9130560     0.8267600     0.7846130
  C        3.6278980    -0.1122400     0.0369440
  H       -0.6848640    -2.2871190     0.6142040
  H        1.0058700    -1.8278860    -1.3015600
  H        0.9614050     1.5295600     1.3833290
  H       -3.4548610     1.6831510    -0.4309120
  H       -3.1654310    -2.4765660     0.6404150
  H       -4.5504850    -0.4615560     0.1267090
  H        3.4898150    -1.8022040    -1.2977600
  H        3.4438080     1.5707970     1.3744420
  H        4.7151610    -0.0954640     0.0345500
  H        0.0736060     2.0855870    -0.9073830
  H       -1.4416920     2.7564150    -1.0941350
units angstrom
no_reorient  #important for SAPT in psi4, default
symmetry c1  #important for SAPT in psi4, default
}

set PROPERTIES_ORIGIN ["COM"]
properties('MP2/aug-cc-pvtz', properties = ['dipole'])
--------------------------------------------------------------------------

    Molecular point group: c1
  Charge       = 0
  Multiplicity = 1
  Basis Set: AUG-CC-PVTZ
    Blend: AUG-CC-PVTZ
  Basis Set: (AUG-CC-PVTZ AUX)
    Blend: AUG-CC-PVTZ-JKFIT

    Orbital Energies [Eh]
    ---------------------

    Doubly Occupied:

       1A    -15.564605     2A    -11.280489     3A    -11.246598
       4A    -11.239164     5A    -11.238723     6A    -11.236983
       7A    -11.236943     8A    -11.236539     9A    -11.236443
      10A    -11.235495    11A    -11.235356    12A    -11.227245
      13A    -11.222911    14A     -1.225049    15A     -1.156426
      16A     -1.125664    17A     -1.051699    18A     -1.015005
      19A     -0.993916    20A     -0.974169    21A     -0.851894
      22A     -0.835449    23A     -0.811084    24A     -0.789384
      25A     -0.712230    26A     -0.685701    27A     -0.685583
      28A     -0.655679    29A     -0.625588    30A     -0.622691
      31A     -0.594122    32A     -0.592932    33A     -0.587015
      34A     -0.578604    35A     -0.537107    36A     -0.523310
      37A     -0.506358    38A     -0.500573    39A     -0.488797
      40A     -0.479612    41A     -0.448881    42A     -0.360530
      43A     -0.338838    44A     -0.318010    45A     -0.290215

  @DF-RHF Final Energy:  -515.45144783832097

   => Energetics <=

    Nuclear Repulsion Energy =            709.0119597214978739
    One-Electron Energy =               -2104.1275973896508731
    Two-Electron Energy =                 879.6641898298319120
    Total Energy =                       -515.4514478383209735
  Basis Set: (AUG-CC-PVTZ AUX)
    Blend: AUG-CC-PVTZ-RI
    Molecular point group: c1

    Geometry (in Angstrom), charge = 0, multiplicity = 1:

       Center              X                  Y                   Z               Mass
    ------------   -----------------  -----------------  -----------------  -----------------
         N           -0.855820647682     2.170758659778    -0.514964346530    14.003074004430
         C           -0.661170647682    -0.207080340222     0.063632653470    12.000000000000
         C            0.818931952318    -0.172963040222     0.043505353470    12.000000000000
         C           -1.448759647682     0.923864659778    -0.247860346530    12.000000000000
         C           -1.300261647682    -1.419319340222     0.363213653470    12.000000000000
         C            1.546392352318    -1.085607340222    -0.713766346530    12.000000000000
         C            1.519768352318     0.812379659778     0.785229653470    12.000000000000
         C           -2.846285647682     0.814373659778    -0.203527346530    12.000000000000
         C           -2.689606647682    -1.523184340222     0.392148653470    12.000000000000
         C           -3.462382647682    -0.397458340222     0.099823653470    12.000000000000
         C            2.941555352318    -1.065920340222    -0.714824346530    12.000000000000
         C            2.915310352318     0.832444659778     0.779092653470    12.000000000000
         C            3.630152352318    -0.106555340222     0.031423653470    12.000000000000
         H           -0.682609647682    -2.281434340222     0.608683653470     1.007825032230
         H            1.008124352318    -1.822201340222    -1.307080346530     1.007825032230
         H            0.963659352318     1.535244659778     1.377808653470     1.007825032230
         H           -3.452606647682     1.688835659778    -0.436432346530     1.007825032230
         H           -3.163176647682    -2.470881340222     0.634894653470     1.007825032230
         H           -4.548230647682    -0.455871340222     0.121188653470     1.007825032230
         H            3.492069352318    -1.796519340222    -1.303280346530     1.007825032230
         H            3.446062352318     1.576481659778     1.368921653470     1.007825032230
         H            4.717415352318    -0.089779340222     0.029029653470     1.007825032230
         H            0.075860352318     2.091271659778    -0.912903346530     1.007825032230
         H           -1.439437647682     2.762099659778    -1.099655346530     1.007825032230

  Basis Set: AUG-CC-PVTZ
    Blend: AUG-CC-PVTZ
  Basis Set: (AUG-CC-PVTZ AUX)
    Blend: AUG-CC-PVTZ-JKFIT
	 Reference Energy          =    -515.4514478383209735 [Eh]
	 Singles Energy            =      -0.0000000000000000 [Eh]
	 Same-Spin Energy          =      -0.5829284278932052 [Eh]
	 Opposite-Spin Energy      =      -1.8012344879538862 [Eh]
	 Correlation Energy        =      -2.3841629158470914 [Eh]
	 Total Energy              =    -517.8356107541681013 [Eh]

	 ================> DF-SCS-MP2 Energies <==================
	-----------------------------------------------------------
	 SCS Same-Spin Scale       =       0.3333333333333333 [-]
	 SCS Opposite-Spin Scale   =       1.2000000000000000 [-]
	 SCS Same-Spin Energy      =      -0.1943094759644017 [Eh]
	 SCS Opposite-Spin Energy  =      -2.1614813855446635 [Eh]
	 SCS Correlation Energy    =      -2.3557908615090652 [Eh]
	 SCS Total Energy          =    -517.8072386998300090 [Eh]
	-----------------------------------------------------------

  Dipole Moment: [D]
     X:     0.4465      Y:     0.5559      Z:    -1.1344     Total:     1.3398

*** Psi4 exiting successfully. Buy a developer a beer!
