                               Psi4 1.3.2 release

  ==> Input File <==

--------------------------------------------------------------------------
#psi4
#
memory 32 gb

molecule  {
0 1
  N       -0.8580750     2.1650740    -0.5094440
  C       -0.5451292    -0.1276418     0.0439997
  C        0.8157840    -0.1537790     0.0420590
  C       -1.4510140     0.9181800    -0.2423400
  C       -1.3025160    -1.4250040     0.3687340
  C        1.5441380    -1.0912920    -0.7082460
  C        1.5175140     0.8066950     0.7907500
  C       -2.8485400     0.8086890    -0.1980070
  C       -2.6918610    -1.5288690     0.3976690
  C       -3.4646370    -0.4031430     0.1053440
  C        2.9393010    -1.0716050    -0.7093040
  C        2.9130560     0.8267600     0.7846130
  C        3.6278980    -0.1122400     0.0369440
  H       -0.6848640    -2.2871190     0.6142040
  H        1.0058700    -1.8278860    -1.3015600
  H        0.9614050     1.5295600     1.3833290
  H       -3.4548610     1.6831510    -0.4309120
  H       -3.1654310    -2.4765660     0.6404150
  H       -4.5504850    -0.4615560     0.1267090
  H        3.4898150    -1.8022040    -1.2977600
  H        3.4438080     1.5707970     1.3744420
  H        4.7151610    -0.0954640     0.0345500
  H        0.0736060     2.0855870    -0.9073830
  H       -1.4416920     2.7564150    -1.0941350
units angstrom
no_reorient  #important for SAPT in psi4, default
symmetry c1  #important for SAPT in psi4, default
}

set PROPERTIES_ORIGIN ["COM"]
properties('MP2/aug-cc-pvtz', properties = ['dipole'])
--------------------------------------------------------------------------

    Molecular point group: c1
  Charge       = 0
  Multiplicity = 1
  Basis Set: AUG-CC-PVTZ
    Blend: AUG-CC-PVTZ
  Basis Set: (AUG-CC-PVTZ AUX)
    Blend: AUG-CC-PVTZ-JKFIT

    Orbital Energies [Eh]
    ---------------------

    Doubly Occupied:

       1A    -15.559279     2A    -11.281165     3A    -11.248664
       4A    -11.240447     5A    -11.240309     6A    -11.239914
       7A    -11.239049     8A    -11.238313     9A    -11.237824
      10A    -11.237568    11A    -11.235260    12A    -11.229880
      13A    -11.225038    14A     -1.225382    15A     -1.161210
      16A     -1.116628    17A     -1.064046    18A     -1.016268
      19A     -0.989082    20A     -0.967627    21A     -0.865769
      22A     -0.836794    23A     -0.810393    24A     -0.782633
      25A     -0.715815    26A     -0.685980    27A     -0.682882
      28A     -0.662739    29A     -0.629625    30A     -0.622995
      31A     -0.597653    32A     -0.592907    33A     -0.587554
      34A     -0.568451    35A     -0.537352    36A     -0.522668
      37A     -0.505816    38A     -0.500866    39A     -0.497993
      40A     -0.473750    41A     -0.443774    42A     -0.361209
      43A     -0.339570    44A     -0.313141    45A     -0.283164

  @DF-RHF Final Energy:  -515.42071211183782

   => Energetics <=

    Nuclear Repulsion Energy =            709.4752780294435297
    One-Electron Energy =               -2104.9630897218962673
    Two-Electron Energy =                 880.0670995806150358
    Total Energy =                       -515.4207121118378154
  Basis Set: (AUG-CC-PVTZ AUX)
    Blend: AUG-CC-PVTZ-RI
    Molecular point group: c1

    Geometry (in Angstrom), charge = 0, multiplicity = 1:

       Center              X                  Y                   Z               Mass
    ------------   -----------------  -----------------  -----------------  -----------------
         N           -0.864152503424     2.162952701767    -0.512684838936    14.003074004430
         C           -0.551206703424    -0.129763098233     0.040758861064    12.000000000000
         C            0.809706496576    -0.155900298233     0.038818161064    12.000000000000
         C           -1.457091503424     0.916058701767    -0.245580838936    12.000000000000
         C           -1.308593503424    -1.427125298233     0.365493161064    12.000000000000
         C            1.538060496576    -1.093413298233    -0.711486838936    12.000000000000
         C            1.511436496576     0.804573701767     0.787509161064    12.000000000000
         C           -2.854617503424     0.806567701767    -0.201247838936    12.000000000000
         C           -2.697938503424    -1.530990298233     0.394428161064    12.000000000000
         C           -3.470714503424    -0.405264298233     0.102103161064    12.000000000000
         C            2.933223496576    -1.073726298233    -0.712544838936    12.000000000000
         C            2.906978496576     0.824638701767     0.781372161064    12.000000000000
         C            3.621820496576    -0.114361298233     0.033703161064    12.000000000000
         H           -0.690941503424    -2.289240298233     0.610963161064     1.007825032230
         H            0.999792496576    -1.830007298233    -1.304800838936     1.007825032230
         H            0.955327496576     1.527438701767     1.380088161064     1.007825032230
         H           -3.460938503424     1.681029701767    -0.434152838936     1.007825032230
         H           -3.171508503424    -2.478687298233     0.637174161064     1.007825032230
         H           -4.556562503424    -0.463677298233     0.123468161064     1.007825032230
         H            3.483737496576    -1.804325298233    -1.301000838936     1.007825032230
         H            3.437730496576     1.568675701767     1.371201161064     1.007825032230
         H            4.709083496576    -0.097585298233     0.031309161064     1.007825032230
         H            0.067528496576     2.083465701767    -0.910623838936     1.007825032230
         H           -1.447769503424     2.754293701767    -1.097375838936     1.007825032230

  Basis Set: AUG-CC-PVTZ
    Blend: AUG-CC-PVTZ
  Basis Set: (AUG-CC-PVTZ AUX)
    Blend: AUG-CC-PVTZ-JKFIT
	 Reference Energy          =    -515.4207121118378154 [Eh]
	 Singles Energy            =      -0.0000000000000000 [Eh]
	 Same-Spin Energy          =      -0.5853718163165846 [Eh]
	 Opposite-Spin Energy      =      -1.8056954983419740 [Eh]
	 Correlation Energy        =      -2.3910673146585584 [Eh]
	 Total Energy              =    -517.8117794264964004 [Eh]

	 ================> DF-SCS-MP2 Energies <==================
	-----------------------------------------------------------
	 SCS Same-Spin Scale       =       0.3333333333333333 [-]
	 SCS Opposite-Spin Scale   =       1.2000000000000000 [-]
	 SCS Same-Spin Energy      =      -0.1951239387721949 [Eh]
	 SCS Opposite-Spin Energy  =      -2.1668345980103685 [Eh]
	 SCS Correlation Energy    =      -2.3619585367825633 [Eh]
	 SCS Total Energy          =    -517.7826706486204102 [Eh]
	-----------------------------------------------------------

  Dipole Moment: [D]
     X:     0.4766      Y:     0.5139      Z:    -1.1180     Total:     1.3195

*** Psi4 exiting successfully. Buy a developer a beer!
