                               Psi4 1.3.2 release

  ==> Input File <==

--------------------------------------------------------------------------
#psi4
#
memory 32 gb

molecule  {
0 1
  N       -0.8580750     2.1650740    -0.5094440
  C       -0.6634250    -0.2127650     0.0691530
  C        0.8157840    -0.1537790     0.0420590
  C       -1.5353404     0.7408496    -0.2043531
  C       -1.3025160    -1.4250040     0.3687340
  C        1.5441380    -1.0912920    -0.7082460
  C        1.5175140     0.8066950     0.7907500
  C       -2.8485400     0.8086890    -0.1980070
  C       -2.6918610    -1.5288690     0.3976690
  C       -3.4646370    -0.4031430     0.1053440
  C        2.9393010    -1.0716050    -0.7093040
  C        2.9130560     0.8267600     0.7846130
  C        3.6278980    -0.1122400     0.0369440
  H       -0.6848640    -2.2871190     0.6142040
  H        1.0058700    -1.8278860    -1.3015600
  H        0.9614050     1.5295600     1.3833290
  H       -3.4548610     1.6831510    -0.4309120
  H       -3.1654310    -2.4765660     0.6404150
  H       -4.5504850    -0.4615560     0.1267090
  H        3.4898150    -1.8022040    -1.2977600
  H        3.4438080     1.5707970     1.3744420
  H        4.7151610    -0.0954640     0.0345500
  H        0.0736060     2.0855870    -0.9073830
  H       -1.4416920     2.7564150    -1.0941350
units angstrom
no_reorient  #important for SAPT in psi4, default
symmetry c1  #important for SAPT in psi4, default
}

set PROPERTIES_ORIGIN ["COM"]
properties('MP2/aug-cc-pvtz', properties = ['dipole'])
--------------------------------------------------------------------------

    Molecular point group: c1
  Charge       = 0
  Multiplicity = 1
  Basis Set: AUG-CC-PVTZ
    Blend: AUG-CC-PVTZ
  Basis Set: (AUG-CC-PVTZ AUX)
    Blend: AUG-CC-PVTZ-JKFIT

    Orbital Energies [Eh]
    ---------------------

    Doubly Occupied:

       1A    -15.542311     2A    -11.269029     3A    -11.251813
       4A    -11.241637     5A    -11.241093     6A    -11.241010
       7A    -11.240100     8A    -11.239407     9A    -11.238537
      10A    -11.236878    11A    -11.235592    12A    -11.230542
      13A    -11.227019    14A     -1.202155    15A     -1.152515
      16A     -1.115439    17A     -1.061610    18A     -1.016465
      19A     -1.005487    20A     -0.988117    21A     -0.858961
      22A     -0.838253    23A     -0.817901    24A     -0.792675
      25A     -0.716838    26A     -0.684463    27A     -0.667943
      28A     -0.646558    29A     -0.625871    30A     -0.625089
      31A     -0.605465    32A     -0.588596    33A     -0.580369
      34A     -0.574741    35A     -0.539787    36A     -0.524953
      37A     -0.503374    38A     -0.500927    39A     -0.495417
      40A     -0.475200    41A     -0.419989    42A     -0.365143
      43A     -0.339572    44A     -0.328401    45A     -0.308747

  @DF-RHF Final Energy:  -515.41039068965529

   => Energetics <=

    Nuclear Repulsion Energy =            710.2684600315404850
    One-Electron Energy =               -2106.5537252183839882
    Two-Electron Energy =                 880.8748744971881024
    Total Energy =                       -515.4103906896552871
  Basis Set: (AUG-CC-PVTZ AUX)
    Blend: AUG-CC-PVTZ-RI
    Molecular point group: c1

    Geometry (in Angstrom), charge = 0, multiplicity = 1:

       Center              X                  Y                   Z               Mass
    ------------   -----------------  -----------------  -----------------  -----------------
         N           -0.849772713773     2.181578634963    -0.517165802989    14.003074004430
         C           -0.655122713773    -0.196260365037     0.061431197011    12.000000000000
         C            0.824086286227    -0.137274365037     0.034337197011    12.000000000000
         C           -1.527038113773     0.757354234963    -0.212074902989    12.000000000000
         C           -1.294213713773    -1.408499365037     0.361012197011    12.000000000000
         C            1.552440286227    -1.074787365037    -0.715967802989    12.000000000000
         C            1.525816286227     0.823199634963     0.783028197011    12.000000000000
         C           -2.840237713773     0.825193634963    -0.205728802989    12.000000000000
         C           -2.683558713773    -1.512364365037     0.389947197011    12.000000000000
         C           -3.456334713773    -0.386638365037     0.097622197011    12.000000000000
         C            2.947603286227    -1.055100365037    -0.717025802989    12.000000000000
         C            2.921358286227     0.843264634963     0.776891197011    12.000000000000
         C            3.636200286227    -0.095735365037     0.029222197011    12.000000000000
         H           -0.676561713773    -2.270614365037     0.606482197011     1.007825032230
         H            1.014172286227    -1.811381365037    -1.309281802989     1.007825032230
         H            0.969707286227     1.546064634963     1.375607197011     1.007825032230
         H           -3.446558713773     1.699655634963    -0.438633802989     1.007825032230
         H           -3.157128713773    -2.460061365037     0.632693197011     1.007825032230
         H           -4.542182713773    -0.445051365037     0.118987197011     1.007825032230
         H            3.498117286227    -1.785699365037    -1.305481802989     1.007825032230
         H            3.452110286227     1.587301634963     1.366720197011     1.007825032230
         H            4.723463286227    -0.078959365037     0.026828197011     1.007825032230
         H            0.081908286227     2.102091634963    -0.915104802989     1.007825032230
         H           -1.433389713773     2.772919634963    -1.101856802989     1.007825032230

  Basis Set: AUG-CC-PVTZ
    Blend: AUG-CC-PVTZ
  Basis Set: (AUG-CC-PVTZ AUX)
    Blend: AUG-CC-PVTZ-JKFIT
	 Reference Energy          =    -515.4103906896552871 [Eh]
	 Singles Energy            =      -0.0000000000000000 [Eh]
	 Same-Spin Energy          =      -0.5829669200083741 [Eh]
	 Opposite-Spin Energy      =      -1.8030801667719565 [Eh]
	 Correlation Energy        =      -2.3860470867803305 [Eh]
	 Total Energy              =    -517.7964377764355959 [Eh]

	 ================> DF-SCS-MP2 Energies <==================
	-----------------------------------------------------------
	 SCS Same-Spin Scale       =       0.3333333333333333 [-]
	 SCS Opposite-Spin Scale   =       1.2000000000000000 [-]
	 SCS Same-Spin Energy      =      -0.1943223066694580 [Eh]
	 SCS Opposite-Spin Energy  =      -2.1636962001263478 [Eh]
	 SCS Correlation Energy    =      -2.3580185067958057 [Eh]
	 SCS Total Energy          =    -517.7684091964511026 [Eh]
	-----------------------------------------------------------

  Dipole Moment: [D]
     X:     0.1028      Y:    -0.3757      Z:    -0.8674     Total:     0.9509

*** Psi4 exiting successfully. Buy a developer a beer!
