                               Psi4 1.3.2 release

  ==> Input File <==

--------------------------------------------------------------------------
#psi4
#
memory 32 gb

molecule  {
0 1
  N       -0.8580750     2.1650740    -0.5094440
  C       -0.6634250    -0.2127650     0.0691530
  C        0.8171203    -0.2035269     0.0559986
  C       -1.4510140     0.9181800    -0.2423400
  C       -1.3025160    -1.4250040     0.3687340
  C        1.5441380    -1.0912920    -0.7082460
  C        1.5175140     0.8066950     0.7907500
  C       -2.8485400     0.8086890    -0.1980070
  C       -2.6918610    -1.5288690     0.3976690
  C       -3.4646370    -0.4031430     0.1053440
  C        2.9393010    -1.0716050    -0.7093040
  C        2.9130560     0.8267600     0.7846130
  C        3.6278980    -0.1122400     0.0369440
  H       -0.6848640    -2.2871190     0.6142040
  H        1.0058700    -1.8278860    -1.3015600
  H        0.9614050     1.5295600     1.3833290
  H       -3.4548610     1.6831510    -0.4309120
  H       -3.1654310    -2.4765660     0.6404150
  H       -4.5504850    -0.4615560     0.1267090
  H        3.4898150    -1.8022040    -1.2977600
  H        3.4438080     1.5707970     1.3744420
  H        4.7151610    -0.0954640     0.0345500
  H        0.0736060     2.0855870    -0.9073830
  H       -1.4416920     2.7564150    -1.0941350
units angstrom
no_reorient  #important for SAPT in psi4, default
symmetry c1  #important for SAPT in psi4, default
}

set PROPERTIES_ORIGIN ["COM"]
properties('MP2/aug-cc-pvtz', properties = ['dipole'])
--------------------------------------------------------------------------

    Molecular point group: c1
  Charge       = 0
  Multiplicity = 1
  Basis Set: AUG-CC-PVTZ
    Blend: AUG-CC-PVTZ
  Basis Set: (AUG-CC-PVTZ AUX)
    Blend: AUG-CC-PVTZ-JKFIT

    Orbital Energies [Eh]
    ---------------------

    Doubly Occupied:

       1A    -15.564706     2A    -11.280976     3A    -11.246682
       4A    -11.239175     5A    -11.238795     6A    -11.237575
       7A    -11.236954     8A    -11.236785     9A    -11.236398
      10A    -11.235113    11A    -11.234203    12A    -11.227430
      13A    -11.222750    14A     -1.225005    15A     -1.156619
      16A     -1.125676    17A     -1.051959    18A     -1.014848
      19A     -0.993866    20A     -0.974153    21A     -0.851449
      22A     -0.836068    23A     -0.810960    24A     -0.789233
      25A     -0.712287    26A     -0.685727    27A     -0.685641
      28A     -0.655623    29A     -0.625493    30A     -0.622707
      31A     -0.594198    32A     -0.592958    33A     -0.587675
      34A     -0.577763    35A     -0.537108    36A     -0.523423
      37A     -0.506570    38A     -0.500518    39A     -0.489106
      40A     -0.478517    41A     -0.448900    42A     -0.360827
      43A     -0.338779    44A     -0.317780    45A     -0.290270

  @DF-RHF Final Energy:  -515.45013782754791

   => Energetics <=

    Nuclear Repulsion Energy =            708.9536280445191778
    One-Electron Energy =               -2104.0090359698588145
    Two-Electron Energy =                 879.6052700977918448
    Total Energy =                       -515.4501378275479055
  Basis Set: (AUG-CC-PVTZ AUX)
    Blend: AUG-CC-PVTZ-RI
    Molecular point group: c1

    Geometry (in Angstrom), charge = 0, multiplicity = 1:

       Center              X                  Y                   Z               Mass
    ------------   -----------------  -----------------  -----------------  -----------------
         N           -0.855852065428     2.172524298799    -0.515459202648    14.003074004430
         C           -0.661202065428    -0.205314701201     0.063137797352    12.000000000000
         C            0.819343234572    -0.196076601201     0.049983397352    12.000000000000
         C           -1.448791065428     0.925630298799    -0.248355202648    12.000000000000
         C           -1.300293065428    -1.417553701201     0.362718797352    12.000000000000
         C            1.546360934572    -1.083841701201    -0.714261202648    12.000000000000
         C            1.519736934572     0.814145298799     0.784734797352    12.000000000000
         C           -2.846317065428     0.816139298799    -0.204022202648    12.000000000000
         C           -2.689638065428    -1.521418701201     0.391653797352    12.000000000000
         C           -3.462414065428    -0.395692701201     0.099328797352    12.000000000000
         C            2.941523934572    -1.064154701201    -0.715319202648    12.000000000000
         C            2.915278934572     0.834210298799     0.778597797352    12.000000000000
         C            3.630120934572    -0.104789701201     0.030928797352    12.000000000000
         H           -0.682641065428    -2.279668701201     0.608188797352     1.007825032230
         H            1.008092934572    -1.820435701201    -1.307575202648     1.007825032230
         H            0.963627934572     1.537010298799     1.377313797352     1.007825032230
         H           -3.452638065428     1.690601298799    -0.436927202648     1.007825032230
         H           -3.163208065428    -2.469115701201     0.634399797352     1.007825032230
         H           -4.548262065428    -0.454105701201     0.120693797352     1.007825032230
         H            3.492037934572    -1.794753701201    -1.303775202648     1.007825032230
         H            3.446030934572     1.578247298799     1.368426797352     1.007825032230
         H            4.717383934572    -0.088013701201     0.028534797352     1.007825032230
         H            0.075828934572     2.093037298799    -0.913398202648     1.007825032230
         H           -1.439469065428     2.763865298799    -1.100150202648     1.007825032230

  Basis Set: AUG-CC-PVTZ
    Blend: AUG-CC-PVTZ
  Basis Set: (AUG-CC-PVTZ AUX)
    Blend: AUG-CC-PVTZ-JKFIT
	 Reference Energy          =    -515.4501378275479055 [Eh]
	 Singles Energy            =      -0.0000000000000000 [Eh]
	 Same-Spin Energy          =      -0.5829079700163244 [Eh]
	 Opposite-Spin Energy      =      -1.8013034882383270 [Eh]
	 Correlation Energy        =      -2.3842114582546516 [Eh]
	 Total Energy              =    -517.8343492858025456 [Eh]

	 ================> DF-SCS-MP2 Energies <==================
	-----------------------------------------------------------
	 SCS Same-Spin Scale       =       0.3333333333333333 [-]
	 SCS Opposite-Spin Scale   =       1.2000000000000000 [-]
	 SCS Same-Spin Energy      =      -0.1943026566721081 [Eh]
	 SCS Opposite-Spin Energy  =      -2.1615641858859922 [Eh]
	 SCS Correlation Energy    =      -2.3558668425581004 [Eh]
	 SCS Total Energy          =    -517.8060046701059491 [Eh]
	-----------------------------------------------------------

  Dipole Moment: [D]
     X:     0.4422      Y:     0.5627      Z:    -1.1395     Total:     1.3456

*** Psi4 exiting successfully. Buy a developer a beer!
