                               Psi4 1.4a3.dev225

  ==> Input File <==

--------------------------------------------------------------------------
#psi4
#
memory 32 gb

molecule  {
0 1
  N       -0.8580750     2.1650740    -0.5094440
  C       -0.6634250    -0.2127650     0.0691530
  C        0.7658321    -0.1557709     0.0429739
  C       -1.4510140     0.9181800    -0.2423400
  C       -1.3025160    -1.4250040     0.3687340
  C        1.5441380    -1.0912920    -0.7082460
  C        1.5175140     0.8066950     0.7907500
  C       -2.8485400     0.8086890    -0.1980070
  C       -2.6918610    -1.5288690     0.3976690
  C       -3.4646370    -0.4031430     0.1053440
  C        2.9393010    -1.0716050    -0.7093040
  C        2.9130560     0.8267600     0.7846130
  C        3.6278980    -0.1122400     0.0369440
  H       -0.6848640    -2.2871190     0.6142040
  H        1.0058700    -1.8278860    -1.3015600
  H        0.9614050     1.5295600     1.3833290
  H       -3.4548610     1.6831510    -0.4309120
  H       -3.1654310    -2.4765660     0.6404150
  H       -4.5504850    -0.4615560     0.1267090
  H        3.4898150    -1.8022040    -1.2977600
  H        3.4438080     1.5707970     1.3744420
  H        4.7151610    -0.0954640     0.0345500
  H        0.0736060     2.0855870    -0.9073830
  H       -1.4416920     2.7564150    -1.0941350
units angstrom
no_reorient  #important for SAPT in psi4, default
symmetry c1  #important for SAPT in psi4, default
}

set PROPERTIES_ORIGIN ["COM"]
properties('MP2/aug-cc-pvtz', properties = ['dipole'])
--------------------------------------------------------------------------

    Molecular point group: c1
  Charge       = 0
  Multiplicity = 1
  Basis Set: AUG-CC-PVTZ
    Blend: AUG-CC-PVTZ
  Basis Set: (AUG-CC-PVTZ AUX)
    Blend: AUG-CC-PVTZ-JKFIT

    Orbital Energies [Eh]
    ---------------------

    Doubly Occupied:

       1A    -15.565160     2A    -11.281216     3A    -11.248713
       4A    -11.239763     5A    -11.238955     6A    -11.238359
       7A    -11.238055     8A    -11.237696     9A    -11.237461
      10A    -11.236938    11A    -11.233654    12A    -11.227824
      13A    -11.223812    14A     -1.226653    15A     -1.153246
      16A     -1.126287    17A     -1.056499    18A     -1.012379
      19A     -0.994157    20A     -0.972602    21A     -0.857565
      22A     -0.834171    23A     -0.810183    24A     -0.788099
      25A     -0.712871    26A     -0.687195    27A     -0.685702
      28A     -0.659949    29A     -0.623992    30A     -0.622073
      31A     -0.595303    32A     -0.593976    33A     -0.583887
      34A     -0.580487    35A     -0.538015    36A     -0.523797
      37A     -0.506735    38A     -0.497062    39A     -0.487446
      40A     -0.482916    41A     -0.449422    42A     -0.361521
      43A     -0.337702    44A     -0.316733    45A     -0.288123

  @DF-RHF Final Energy:  -515.44678432480157

   => Energetics <=

    Nuclear Repulsion Energy =            709.1500390527606896
    One-Electron Energy =               -2104.3649382586399952
    Two-Electron Energy =                 879.7681148810776222
    Total Energy =                       -515.4467843248015697
  Basis Set: (AUG-CC-PVTZ AUX)
    Blend: AUG-CC-PVTZ-RI
    Molecular point group: c1

    Geometry (in Angstrom), charge = 0, multiplicity = 1:

       Center              X                  Y                   Z               Mass
    ------------   -----------------  -----------------  -----------------  -----------------
         N           -0.852212219806     2.169135128043    -0.514534859480    14.003074004430
         C           -0.657562219806    -0.208703871957     0.064062140520    12.000000000000
         C            0.771694880194    -0.151709771957     0.037883040520    12.000000000000
         C           -1.445151219806     0.922241128043    -0.247430859480    12.000000000000
         C           -1.296653219806    -1.420942871957     0.363643140520    12.000000000000
         C            1.550000780194    -1.087230871957    -0.713336859480    12.000000000000
         C            1.523376780194     0.810756128043     0.785659140520    12.000000000000
         C           -2.842677219806     0.812750128043    -0.203097859480    12.000000000000
         C           -2.685998219806    -1.524807871957     0.392578140520    12.000000000000
         C           -3.458774219806    -0.399081871957     0.100253140520    12.000000000000
         C            2.945163780194    -1.067543871957    -0.714394859480    12.000000000000
         C            2.918918780194     0.830821128043     0.779522140520    12.000000000000
         C            3.633760780194    -0.108178871957     0.031853140520    12.000000000000
         H           -0.679001219806    -2.283057871957     0.609113140520     1.007825032230
         H            1.011732780194    -1.823824871957    -1.306650859480     1.007825032230
         H            0.967267780194     1.533621128043     1.378238140520     1.007825032230
         H           -3.448998219806     1.687212128043    -0.436002859480     1.007825032230
         H           -3.159568219806    -2.472504871957     0.635324140520     1.007825032230
         H           -4.544622219806    -0.457494871957     0.121618140520     1.007825032230
         H            3.495677780194    -1.798142871957    -1.302850859480     1.007825032230
         H            3.449670780194     1.574858128043     1.369351140520     1.007825032230
         H            4.721023780194    -0.091402871957     0.029459140520     1.007825032230
         H            0.079468780194     2.089648128043    -0.912473859480     1.007825032230
         H           -1.435829219806     2.760476128043    -1.099225859480     1.007825032230

  Basis Set: AUG-CC-PVTZ
    Blend: AUG-CC-PVTZ
  Basis Set: (AUG-CC-PVTZ AUX)
    Blend: AUG-CC-PVTZ-JKFIT
	 Reference Energy          =    -515.4467843248015697 [Eh]
	 Singles Energy            =      -0.0000000000000000 [Eh]
	 Same-Spin Energy          =      -0.5838208436654839 [Eh]
	 Opposite-Spin Energy      =      -1.8025884665298095 [Eh]
	 Correlation Energy        =      -2.3864093101952935 [Eh]
	 Total Energy              =    -517.8331936349968601 [Eh]

	 ================> DF-SCS-MP2 Energies <==================
	-----------------------------------------------------------
	 SCS Same-Spin Scale       =       0.3333333333333333 [-]
	 SCS Opposite-Spin Scale   =       1.2000000000000000 [-]
	 SCS Same-Spin Energy      =      -0.1946069478884946 [Eh]
	 SCS Opposite-Spin Energy  =      -2.1631061598357713 [Eh]
	 SCS Correlation Energy    =      -2.3577131077242659 [Eh]
	 SCS Total Energy          =    -517.8044974325258636 [Eh]
	-----------------------------------------------------------

  Dipole Moment: [D]
     X:     0.3601      Y:     0.5573      Z:    -1.1253     Total:     1.3064

*** Psi4 exiting successfully. Buy a developer a beer!
