                               Psi4 1.4a3.dev225

  ==> Input File <==

--------------------------------------------------------------------------
#psi4
#
memory 32 gb

molecule  {
0 1
  N       -0.8580750     2.1650740    -0.5094440
  C       -0.6634250    -0.2127650     0.0691530
  C        0.8157840    -0.1537790     0.0420590
  C       -1.4510140     0.9181800    -0.2423400
  C       -1.3025160    -1.4250040     0.3687340
  C        1.5700688    -1.1246693    -0.7349583
  C        1.5175140     0.8066950     0.7907500
  C       -2.8485400     0.8086890    -0.1980070
  C       -2.6918610    -1.5288690     0.3976690
  C       -3.4646370    -0.4031430     0.1053440
  C        2.9393010    -1.0716050    -0.7093040
  C        2.9130560     0.8267600     0.7846130
  C        3.6278980    -0.1122400     0.0369440
  H       -0.6848640    -2.2871190     0.6142040
  H        1.0058700    -1.8278860    -1.3015600
  H        0.9614050     1.5295600     1.3833290
  H       -3.4548610     1.6831510    -0.4309120
  H       -3.1654310    -2.4765660     0.6404150
  H       -4.5504850    -0.4615560     0.1267090
  H        3.4898150    -1.8022040    -1.2977600
  H        3.4438080     1.5707970     1.3744420
  H        4.7151610    -0.0954640     0.0345500
  H        0.0736060     2.0855870    -0.9073830
  H       -1.4416920     2.7564150    -1.0941350
units angstrom
no_reorient  #important for SAPT in psi4, default
symmetry c1  #important for SAPT in psi4, default
}

set PROPERTIES_ORIGIN ["COM"]
properties('MP2/aug-cc-pvtz', properties = ['dipole'])
--------------------------------------------------------------------------

    Molecular point group: c1
  Charge       = 0
  Multiplicity = 1
  Basis Set: AUG-CC-PVTZ
    Blend: AUG-CC-PVTZ
  Basis Set: (AUG-CC-PVTZ AUX)
    Blend: AUG-CC-PVTZ-JKFIT

    Orbital Energies [Eh]
    ---------------------

    Doubly Occupied:

       1A    -15.564337     2A    -11.280238     3A    -11.251413
       4A    -11.239326     5A    -11.237884     6A    -11.237230
       7A    -11.237151     8A    -11.237082     9A    -11.235902
      10A    -11.235756    11A    -11.235054    12A    -11.227242
      13A    -11.223296    14A     -1.224922    15A     -1.153578
      16A     -1.125862    17A     -1.049790    18A     -1.018989
      19A     -0.993393    20A     -0.972313    21A     -0.854211
      22A     -0.832431    23A     -0.811944    24A     -0.788487
      25A     -0.711739    26A     -0.687215    27A     -0.685331
      28A     -0.657975    29A     -0.626706    30A     -0.619818
      31A     -0.594673    32A     -0.593434    33A     -0.588020
      34A     -0.578133    35A     -0.536737    36A     -0.526134
      37A     -0.505062    38A     -0.499327    39A     -0.489510
      40A     -0.478162    41A     -0.448735    42A     -0.359155
      43A     -0.341757    44A     -0.316634    45A     -0.288939

  @DF-RHF Final Energy:  -515.44857666239568

   => Energetics <=

    Nuclear Repulsion Energy =            708.2963094063442213
    One-Electron Energy =               -2102.6877267457111884
    Two-Electron Energy =                 878.9428406769711728
    Total Energy =                       -515.4485766623956806
  Basis Set: (AUG-CC-PVTZ AUX)
    Blend: AUG-CC-PVTZ-RI
    Molecular point group: c1

    Geometry (in Angstrom), charge = 0, multiplicity = 1:

       Center              X                  Y                   Z               Mass
    ------------   -----------------  -----------------  -----------------  -----------------
         N           -0.857597499722     2.171362502192    -0.512574199075    14.003074004430
         C           -0.662947499722    -0.206476497808     0.066022800925    12.000000000000
         C            0.816261500278    -0.147490497808     0.038928800925    12.000000000000
         C           -1.450536499722     0.924468502192    -0.245470199075    12.000000000000
         C           -1.302038499722    -1.418715497808     0.365603800925    12.000000000000
         C            1.570546300278    -1.118380797808    -0.738088499075    12.000000000000
         C            1.517991500278     0.812983502192     0.787619800925    12.000000000000
         C           -2.848062499722     0.814977502192    -0.201137199075    12.000000000000
         C           -2.691383499722    -1.522580497808     0.394538800925    12.000000000000
         C           -3.464159499722    -0.396854497808     0.102213800925    12.000000000000
         C            2.939778500278    -1.065316497808    -0.712434199075    12.000000000000
         C            2.913533500278     0.833048502192     0.781482800925    12.000000000000
         C            3.628375500278    -0.105951497808     0.033813800925    12.000000000000
         H           -0.684386499722    -2.280830497808     0.611073800925     1.007825032230
         H            1.006347500278    -1.821597497808    -1.304690199075     1.007825032230
         H            0.961882500278     1.535848502192     1.380198800925     1.007825032230
         H           -3.454383499722     1.689439502192    -0.434042199075     1.007825032230
         H           -3.164953499722    -2.470277497808     0.637284800925     1.007825032230
         H           -4.550007499722    -0.455267497808     0.123578800925     1.007825032230
         H            3.490292500278    -1.795915497808    -1.300890199075     1.007825032230
         H            3.444285500278     1.577085502192     1.371311800925     1.007825032230
         H            4.715638500278    -0.089175497808     0.031419800925     1.007825032230
         H            0.074083500278     2.091875502192    -0.910513199075     1.007825032230
         H           -1.441214499722     2.762703502192    -1.097265199075     1.007825032230

  Basis Set: AUG-CC-PVTZ
    Blend: AUG-CC-PVTZ
  Basis Set: (AUG-CC-PVTZ AUX)
    Blend: AUG-CC-PVTZ-JKFIT
	 Reference Energy          =    -515.4485766623956806 [Eh]
	 Singles Energy            =      -0.0000000000000000 [Eh]
	 Same-Spin Energy          =      -0.5829542591764105 [Eh]
	 Opposite-Spin Energy      =      -1.8014832294138035 [Eh]
	 Correlation Energy        =      -2.3844374885902138 [Eh]
	 Total Energy              =    -517.8330141509859459 [Eh]

	 ================> DF-SCS-MP2 Energies <==================
	-----------------------------------------------------------
	 SCS Same-Spin Scale       =       0.3333333333333333 [-]
	 SCS Opposite-Spin Scale   =       1.2000000000000000 [-]
	 SCS Same-Spin Energy      =      -0.1943180863921368 [Eh]
	 SCS Opposite-Spin Energy  =      -2.1617798752965642 [Eh]
	 SCS Correlation Energy    =      -2.3560979616887012 [Eh]
	 SCS Total Energy          =    -517.8046746240843277 [Eh]
	-----------------------------------------------------------

  Dipole Moment: [D]
     X:     0.4327      Y:     0.5531      Z:    -1.1253     Total:     1.3264

*** Psi4 exiting successfully. Buy a developer a beer!
