                               Psi4 1.3.2 release

  ==> Input File <==

--------------------------------------------------------------------------
#psi4
#
memory 32 gb

molecule  {
0 1
  N       -0.8580750     2.1650740    -0.5094440
  C       -0.6634250    -0.2127650     0.0691530
  C        0.9156879    -0.1497952     0.0402291
  C       -1.4510140     0.9181800    -0.2423400
  C       -1.3025160    -1.4250040     0.3687340
  C        1.5441380    -1.0912920    -0.7082460
  C        1.5175140     0.8066950     0.7907500
  C       -2.8485400     0.8086890    -0.1980070
  C       -2.6918610    -1.5288690     0.3976690
  C       -3.4646370    -0.4031430     0.1053440
  C        2.9393010    -1.0716050    -0.7093040
  C        2.9130560     0.8267600     0.7846130
  C        3.6278980    -0.1122400     0.0369440
  H       -0.6848640    -2.2871190     0.6142040
  H        1.0058700    -1.8278860    -1.3015600
  H        0.9614050     1.5295600     1.3833290
  H       -3.4548610     1.6831510    -0.4309120
  H       -3.1654310    -2.4765660     0.6404150
  H       -4.5504850    -0.4615560     0.1267090
  H        3.4898150    -1.8022040    -1.2977600
  H        3.4438080     1.5707970     1.3744420
  H        4.7151610    -0.0954640     0.0345500
  H        0.0736060     2.0855870    -0.9073830
  H       -1.4416920     2.7564150    -1.0941350
units angstrom
no_reorient  #important for SAPT in psi4, default
symmetry c1  #important for SAPT in psi4, default
}

set PROPERTIES_ORIGIN ["COM"]
properties('MP2/aug-cc-pvtz', properties = ['dipole'])
--------------------------------------------------------------------------

    Molecular point group: c1
  Charge       = 0
  Multiplicity = 1
  Basis Set: AUG-CC-PVTZ
    Blend: AUG-CC-PVTZ
  Basis Set: (AUG-CC-PVTZ AUX)
    Blend: AUG-CC-PVTZ-JKFIT

    Orbital Energies [Eh]
    ---------------------

    Doubly Occupied:

       1A    -15.563225     2A    -11.277679     3A    -11.243094
       4A    -11.239954     5A    -11.239650     6A    -11.238730
       7A    -11.236502     8A    -11.234739     9A    -11.234125
      10A    -11.232578    11A    -11.230986    12A    -11.225526
      13A    -11.221594    14A     -1.222464    15A     -1.165204
      16A     -1.123694    17A     -1.043754    18A     -1.022121
      19A     -0.993842    20A     -0.975321    21A     -0.844708
      22A     -0.836553    23A     -0.811915    24A     -0.791370
      25A     -0.712252    26A     -0.685374    27A     -0.682553
      28A     -0.648467    29A     -0.631979    30A     -0.623269
      31A     -0.596069    32A     -0.590164    33A     -0.588918
      34A     -0.574247    35A     -0.535791    36A     -0.521981
      37A     -0.509724    38A     -0.507491    39A     -0.495366
      40A     -0.460722    41A     -0.446570    42A     -0.359013
      43A     -0.341258    44A     -0.321234    45A     -0.291918

  @DF-RHF Final Energy:  -515.44294471222315

   => Energetics <=

    Nuclear Repulsion Energy =            709.0175701373728998
    One-Electron Energy =               -2104.1736605226724350
    Two-Electron Energy =                 879.7131456730764967
    Total Energy =                       -515.4429447122231522
  Basis Set: (AUG-CC-PVTZ AUX)
    Blend: AUG-CC-PVTZ-RI
    Molecular point group: c1

    Geometry (in Angstrom), charge = 0, multiplicity = 1:

       Center              X                  Y                   Z               Mass
    ------------   -----------------  -----------------  -----------------  -----------------
         N           -0.862847258227     2.168711041695    -0.514340065194    14.003074004430
         C           -0.668197258227    -0.209127958305     0.064256934806    12.000000000000
         C            0.910915641773    -0.146158158305     0.035333034806    12.000000000000
         C           -1.455786258227     0.921817041695    -0.247236065194    12.000000000000
         C           -1.307288258227    -1.421366958305     0.363837934806    12.000000000000
         C            1.539365741773    -1.087654958305    -0.713142065194    12.000000000000
         C            1.512741741773     0.810332041695     0.785853934806    12.000000000000
         C           -2.853312258227     0.812326041695    -0.202903065194    12.000000000000
         C           -2.696633258227    -1.525231958305     0.392772934806    12.000000000000
         C           -3.469409258227    -0.399505958305     0.100447934806    12.000000000000
         C            2.934528741773    -1.067967958305    -0.714200065194    12.000000000000
         C            2.908283741773     0.830397041695     0.779716934806    12.000000000000
         C            3.623125741773    -0.108602958305     0.032047934806    12.000000000000
         H           -0.689636258227    -2.283481958305     0.609307934806     1.007825032230
         H            1.001097741773    -1.824248958305    -1.306456065194     1.007825032230
         H            0.956632741773     1.533197041695     1.378432934806     1.007825032230
         H           -3.459633258227     1.686788041695    -0.435808065194     1.007825032230
         H           -3.170203258227    -2.472928958305     0.635518934806     1.007825032230
         H           -4.555257258227    -0.457918958305     0.121812934806     1.007825032230
         H            3.485042741773    -1.798566958305    -1.302656065194     1.007825032230
         H            3.439035741773     1.574434041695     1.369545934806     1.007825032230
         H            4.710388741773    -0.091826958305     0.029653934806     1.007825032230
         H            0.068833741773     2.089224041695    -0.912279065194     1.007825032230
         H           -1.446464258227     2.760052041695    -1.099031065194     1.007825032230

  Basis Set: AUG-CC-PVTZ
    Blend: AUG-CC-PVTZ
  Basis Set: (AUG-CC-PVTZ AUX)
    Blend: AUG-CC-PVTZ-JKFIT
	 Reference Energy          =    -515.4429447122231522 [Eh]
	 Singles Energy            =      -0.0000000000000000 [Eh]
	 Same-Spin Energy          =      -0.5822002049146847 [Eh]
	 Opposite-Spin Energy      =      -1.8001909006225818 [Eh]
	 Correlation Energy        =      -2.3823911055372666 [Eh]
	 Total Energy              =    -517.8253358177604468 [Eh]

	 ================> DF-SCS-MP2 Energies <==================
	-----------------------------------------------------------
	 SCS Same-Spin Scale       =       0.3333333333333333 [-]
	 SCS Opposite-Spin Scale   =       1.2000000000000000 [-]
	 SCS Same-Spin Energy      =      -0.1940667349715616 [Eh]
	 SCS Opposite-Spin Energy  =      -2.1602290807470981 [Eh]
	 SCS Correlation Energy    =      -2.3542958157186598 [Eh]
	 SCS Total Energy          =    -517.7972405279417671 [Eh]
	-----------------------------------------------------------

  Dipole Moment: [D]
     X:     0.6284      Y:     0.5367      Z:    -1.1360     Total:     1.4048

*** Psi4 exiting successfully. Buy a developer a beer!
