                               Psi4 1.3.2 release

  ==> Input File <==

--------------------------------------------------------------------------
#psi4
#
memory 32 gb

molecule  {
0 1
  N       -0.8580750     2.1650740    -0.5094440
  C       -0.6614610    -0.2537869     0.0377796
  C        0.8157840    -0.1537790     0.0420590
  C       -1.4510140     0.9181800    -0.2423400
  C       -1.3025160    -1.4250040     0.3687340
  C        1.5441380    -1.0912920    -0.7082460
  C        1.5175140     0.8066950     0.7907500
  C       -2.8485400     0.8086890    -0.1980070
  C       -2.6918610    -1.5288690     0.3976690
  C       -3.4646370    -0.4031430     0.1053440
  C        2.9393010    -1.0716050    -0.7093040
  C        2.9130560     0.8267600     0.7846130
  C        3.6278980    -0.1122400     0.0369440
  H       -0.6848640    -2.2871190     0.6142040
  H        1.0058700    -1.8278860    -1.3015600
  H        0.9614050     1.5295600     1.3833290
  H       -3.4548610     1.6831510    -0.4309120
  H       -3.1654310    -2.4765660     0.6404150
  H       -4.5504850    -0.4615560     0.1267090
  H        3.4898150    -1.8022040    -1.2977600
  H        3.4438080     1.5707970     1.3744420
  H        4.7151610    -0.0954640     0.0345500
  H        0.0736060     2.0855870    -0.9073830
  H       -1.4416920     2.7564150    -1.0941350
units angstrom
no_reorient  #important for SAPT in psi4, default
symmetry c1  #important for SAPT in psi4, default
}

set PROPERTIES_ORIGIN ["COM"]
properties('MP2/aug-cc-pvtz', properties = ['dipole'])
--------------------------------------------------------------------------

    Molecular point group: c1
  Charge       = 0
  Multiplicity = 1
  Basis Set: AUG-CC-PVTZ
    Blend: AUG-CC-PVTZ
  Basis Set: (AUG-CC-PVTZ AUX)
    Blend: AUG-CC-PVTZ-JKFIT

    Orbital Energies [Eh]
    ---------------------

    Doubly Occupied:

       1A    -15.565943     2A    -11.283063     3A    -11.246686
       4A    -11.239457     5A    -11.238824     6A    -11.237194
       7A    -11.236756     8A    -11.236613     9A    -11.236481
      10A    -11.236125    11A    -11.233237    12A    -11.225770
      13A    -11.222187    14A     -1.224391    15A     -1.156906
      16A     -1.126770    17A     -1.052176    18A     -1.015328
      19A     -0.995206    20A     -0.972321    21A     -0.851581
      22A     -0.834965    23A     -0.810183    24A     -0.790377
      25A     -0.712290    26A     -0.686888    27A     -0.685204
      28A     -0.656330    29A     -0.625890    30A     -0.622153
      31A     -0.593498    32A     -0.592575    33A     -0.585935
      34A     -0.581587    35A     -0.535981    36A     -0.523176
      37A     -0.506053    38A     -0.501103    39A     -0.491224
      40A     -0.476126    41A     -0.449780    42A     -0.361956
      43A     -0.338908    44A     -0.319325    45A     -0.288033

  @DF-RHF Final Energy:  -515.45020256820851

   => Energetics <=

    Nuclear Repulsion Energy =            708.9653381225328985
    One-Electron Energy =               -2104.0259689658432762
    Two-Electron Energy =                 879.6104282751017536
    Total Energy =                       -515.4502025682085105
  Basis Set: (AUG-CC-PVTZ AUX)
    Blend: AUG-CC-PVTZ-RI
    Molecular point group: c1

    Geometry (in Angstrom), charge = 0, multiplicity = 1:

       Center              X                  Y                   Z               Mass
    ------------   -----------------  -----------------  -----------------  -----------------
         N           -0.855896612344     2.171905027838    -0.512243407890    14.003074004430
         C           -0.659282612344    -0.246955872162     0.034980192110    12.000000000000
         C            0.817962387656    -0.146947972162     0.039259592110    12.000000000000
         C           -1.448835612344     0.925011027838    -0.245139407890    12.000000000000
         C           -1.300337612344    -1.418172972162     0.365934592110    12.000000000000
         C            1.546316387656    -1.084460972162    -0.711045407890    12.000000000000
         C            1.519692387656     0.813526027838     0.787950592110    12.000000000000
         C           -2.846361612344     0.815520027838    -0.200806407890    12.000000000000
         C           -2.689682612344    -1.522037972162     0.394869592110    12.000000000000
         C           -3.462458612344    -0.396311972162     0.102544592110    12.000000000000
         C            2.941479387656    -1.064773972162    -0.712103407890    12.000000000000
         C            2.915234387656     0.833591027838     0.781813592110    12.000000000000
         C            3.630076387656    -0.105408972162     0.034144592110    12.000000000000
         H           -0.682685612344    -2.280287972162     0.611404592110     1.007825032230
         H            1.008048387656    -1.821054972162    -1.304359407890     1.007825032230
         H            0.963583387656     1.536391027838     1.380529592110     1.007825032230
         H           -3.452682612344     1.689982027838    -0.433711407890     1.007825032230
         H           -3.163252612344    -2.469734972162     0.637615592110     1.007825032230
         H           -4.548306612344    -0.454724972162     0.123909592110     1.007825032230
         H            3.491993387656    -1.795372972162    -1.300559407890     1.007825032230
         H            3.445986387656     1.577628027838     1.371642592110     1.007825032230
         H            4.717339387656    -0.088632972162     0.031750592110     1.007825032230
         H            0.075784387656     2.092418027838    -0.910182407890     1.007825032230
         H           -1.439513612344     2.763246027838    -1.096934407890     1.007825032230

  Basis Set: AUG-CC-PVTZ
    Blend: AUG-CC-PVTZ
  Basis Set: (AUG-CC-PVTZ AUX)
    Blend: AUG-CC-PVTZ-JKFIT
	 Reference Energy          =    -515.4502025682085105 [Eh]
	 Singles Energy            =      -0.0000000000000000 [Eh]
	 Same-Spin Energy          =      -0.5829518397627883 [Eh]
	 Opposite-Spin Energy      =      -1.8012516396845064 [Eh]
	 Correlation Energy        =      -2.3842034794472946 [Eh]
	 Total Energy              =    -517.8344060476557615 [Eh]

	 ================> DF-SCS-MP2 Energies <==================
	-----------------------------------------------------------
	 SCS Same-Spin Scale       =       0.3333333333333333 [-]
	 SCS Opposite-Spin Scale   =       1.2000000000000000 [-]
	 SCS Same-Spin Energy      =      -0.1943172799209294 [Eh]
	 SCS Opposite-Spin Energy  =      -2.1615019676214078 [Eh]
	 SCS Correlation Energy    =      -2.3558192475423372 [Eh]
	 SCS Total Energy          =    -517.8060218157507961 [Eh]
	-----------------------------------------------------------

  Dipole Moment: [D]
     X:     0.4862      Y:     0.5829      Z:    -1.1247     Total:     1.3569

*** Psi4 exiting successfully. Buy a developer a beer!
