                               Psi4 1.3.2 release

  ==> Input File <==

--------------------------------------------------------------------------
#psi4
#
memory 32 gb

molecule  {
0 1
  N       -0.9483322     2.2012674    -0.5228104
  C       -0.6634250    -0.2127650     0.0691530
  C        0.8157840    -0.1537790     0.0420590
  C       -1.4510140     0.9181800    -0.2423400
  C       -1.3025160    -1.4250040     0.3687340
  C        1.5441380    -1.0912920    -0.7082460
  C        1.5175140     0.8066950     0.7907500
  C       -2.8485400     0.8086890    -0.1980070
  C       -2.6918610    -1.5288690     0.3976690
  C       -3.4646370    -0.4031430     0.1053440
  C        2.9393010    -1.0716050    -0.7093040
  C        2.9130560     0.8267600     0.7846130
  C        3.6278980    -0.1122400     0.0369440
  H       -0.6848640    -2.2871190     0.6142040
  H        1.0058700    -1.8278860    -1.3015600
  H        0.9614050     1.5295600     1.3833290
  H       -3.4548610     1.6831510    -0.4309120
  H       -3.1654310    -2.4765660     0.6404150
  H       -4.5504850    -0.4615560     0.1267090
  H        3.4898150    -1.8022040    -1.2977600
  H        3.4438080     1.5707970     1.3744420
  H        4.7151610    -0.0954640     0.0345500
  H        0.0736060     2.0855870    -0.9073830
  H       -1.4416920     2.7564150    -1.0941350
units angstrom
no_reorient  #important for SAPT in psi4, default
symmetry c1  #important for SAPT in psi4, default
}

set PROPERTIES_ORIGIN ["COM"]
properties('MP2/aug-cc-pvtz', properties = ['dipole'])
--------------------------------------------------------------------------

    Molecular point group: c1
  Charge       = 0
  Multiplicity = 1
  Basis Set: AUG-CC-PVTZ
    Blend: AUG-CC-PVTZ
  Basis Set: (AUG-CC-PVTZ AUX)
    Blend: AUG-CC-PVTZ-JKFIT

    Orbital Energies [Eh]
    ---------------------

    Doubly Occupied:

       1A    -15.563414     2A    -11.280450     3A    -11.247436
       4A    -11.239930     5A    -11.239542     6A    -11.238344
       7A    -11.237771     8A    -11.237359     9A    -11.236788
      10A    -11.236421    11A    -11.235945    12A    -11.225104
      13A    -11.223081    14A     -1.226036    15A     -1.157817
      16A     -1.126074    17A     -1.052172    18A     -1.016005
      19A     -0.993620    20A     -0.975248    21A     -0.851867
      22A     -0.837252    23A     -0.813610    24A     -0.788872
      25A     -0.714989    26A     -0.696662    27A     -0.676660
      28A     -0.654571    29A     -0.627409    30A     -0.623074
      31A     -0.598979    32A     -0.587288    33A     -0.583354
      34A     -0.577793    35A     -0.537138    36A     -0.521527
      37A     -0.507653    38A     -0.500633    39A     -0.490431
      40A     -0.478333    41A     -0.448879    42A     -0.361000
      43A     -0.339503    44A     -0.317532    45A     -0.290850

  @DF-RHF Final Energy:  -515.43883202639483

   => Energetics <=

    Nuclear Repulsion Energy =            708.2778678490793709
    One-Electron Energy =               -2102.6045727753935353
    Two-Electron Energy =                 878.8878728999192163
    Total Energy =                       -515.4388320263948344
  Basis Set: (AUG-CC-PVTZ AUX)
    Blend: AUG-CC-PVTZ-RI
    Molecular point group: c1

    Geometry (in Angstrom), charge = 0, multiplicity = 1:

       Center              X                  Y                   Z               Mass
    ------------   -----------------  -----------------  -----------------  -----------------
         N           -0.938539803663     2.202189818903    -0.526729395471    14.003074004430
         C           -0.653632603663    -0.211842581097     0.065234004529    12.000000000000
         C            0.825576396337    -0.152856581097     0.038140004529    12.000000000000
         C           -1.441221603663     0.919102418903    -0.246258995471    12.000000000000
         C           -1.292723603663    -1.424081581097     0.364815004529    12.000000000000
         C            1.553930396337    -1.090369581097    -0.712164995471    12.000000000000
         C            1.527306396337     0.807617418903     0.786831004529    12.000000000000
         C           -2.838747603663     0.809611418903    -0.201925995471    12.000000000000
         C           -2.682068603663    -1.527946581097     0.393750004529    12.000000000000
         C           -3.454844603663    -0.402220581097     0.101425004529    12.000000000000
         C            2.949093396337    -1.070682581097    -0.713222995471    12.000000000000
         C            2.922848396337     0.827682418903     0.780694004529    12.000000000000
         C            3.637690396337    -0.111317581097     0.033025004529    12.000000000000
         H           -0.675071603663    -2.286196581097     0.610285004529     1.007825032230
         H            1.015662396337    -1.826963581097    -1.305478995471     1.007825032230
         H            0.971197396337     1.530482418903     1.379410004529     1.007825032230
         H           -3.445068603663     1.684073418903    -0.434830995471     1.007825032230
         H           -3.155638603663    -2.475643581097     0.636496004529     1.007825032230
         H           -4.540692603663    -0.460633581097     0.122790004529     1.007825032230
         H            3.499607396337    -1.801281581097    -1.301678995471     1.007825032230
         H            3.453600396337     1.571719418903     1.370523004529     1.007825032230
         H            4.724953396337    -0.094541581097     0.030631004529     1.007825032230
         H            0.083398396337     2.086509418903    -0.911301995471     1.007825032230
         H           -1.431899603663     2.757337418903    -1.098053995471     1.007825032230

  Basis Set: AUG-CC-PVTZ
    Blend: AUG-CC-PVTZ
  Basis Set: (AUG-CC-PVTZ AUX)
    Blend: AUG-CC-PVTZ-JKFIT
	 Reference Energy          =    -515.4388320263948344 [Eh]
	 Singles Energy            =      -0.0000000000000000 [Eh]
	 Same-Spin Energy          =      -0.5830142886330409 [Eh]
	 Opposite-Spin Energy      =      -1.8016196595526541 [Eh]
	 Correlation Energy        =      -2.3846339481856953 [Eh]
	 Total Energy              =    -517.8234659745805857 [Eh]

	 ================> DF-SCS-MP2 Energies <==================
	-----------------------------------------------------------
	 SCS Same-Spin Scale       =       0.3333333333333333 [-]
	 SCS Opposite-Spin Scale   =       1.2000000000000000 [-]
	 SCS Same-Spin Energy      =      -0.1943380962110136 [Eh]
	 SCS Opposite-Spin Energy  =      -2.1619435914631850 [Eh]
	 SCS Correlation Energy    =      -2.3562816876741985 [Eh]
	 SCS Total Energy          =    -517.7951137140690889 [Eh]
	-----------------------------------------------------------

  Dipole Moment: [D]
     X:     0.5577      Y:     0.4755      Z:    -1.1144     Total:     1.3338

*** Psi4 exiting successfully. Buy a developer a beer!
