                               Psi4 1.3.2 release

  ==> Input File <==

--------------------------------------------------------------------------
#psi4
#
memory 32 gb

molecule  {
0 1
  N       -0.8580750     2.1650740    -0.5094440
  C       -0.6634250    -0.2127650     0.0691530
  C        0.8144399    -0.1289282     0.0351005
  C       -1.4510140     0.9181800    -0.2423400
  C       -1.3025160    -1.4250040     0.3687340
  C        1.5441380    -1.0912920    -0.7082460
  C        1.5175140     0.8066950     0.7907500
  C       -2.8485400     0.8086890    -0.1980070
  C       -2.6918610    -1.5288690     0.3976690
  C       -3.4646370    -0.4031430     0.1053440
  C        2.9393010    -1.0716050    -0.7093040
  C        2.9130560     0.8267600     0.7846130
  C        3.6278980    -0.1122400     0.0369440
  H       -0.6848640    -2.2871190     0.6142040
  H        1.0058700    -1.8278860    -1.3015600
  H        0.9614050     1.5295600     1.3833290
  H       -3.4548610     1.6831510    -0.4309120
  H       -3.1654310    -2.4765660     0.6404150
  H       -4.5504850    -0.4615560     0.1267090
  H        3.4898150    -1.8022040    -1.2977600
  H        3.4438080     1.5707970     1.3744420
  H        4.7151610    -0.0954640     0.0345500
  H        0.0736060     2.0855870    -0.9073830
  H       -1.4416920     2.7564150    -1.0941350
units angstrom
no_reorient  #important for SAPT in psi4, default
symmetry c1  #important for SAPT in psi4, default
}

set PROPERTIES_ORIGIN ["COM"]
properties('MP2/aug-cc-pvtz', properties = ['dipole'])
--------------------------------------------------------------------------

    Molecular point group: c1
  Charge       = 0
  Multiplicity = 1
  Basis Set: AUG-CC-PVTZ
    Blend: AUG-CC-PVTZ
  Basis Set: (AUG-CC-PVTZ AUX)
    Blend: AUG-CC-PVTZ-JKFIT

    Orbital Energies [Eh]
    ---------------------

    Doubly Occupied:

       1A    -15.564374     2A    -11.279487     3A    -11.246544
       4A    -11.239334     5A    -11.238904     6A    -11.238041
       7A    -11.237068     8A    -11.237028     9A    -11.236880
      10A    -11.235705    11A    -11.234424    12A    -11.226865
      13A    -11.223220    14A     -1.225156    15A     -1.156036
      16A     -1.125634    17A     -1.051427    18A     -1.015379
      19A     -0.993877    20A     -0.974084    21A     -0.852864
      22A     -0.834099    23A     -0.811536    24A     -0.789250
      25A     -0.712053    26A     -0.685893    27A     -0.685302
      28A     -0.656016    29A     -0.625829    30A     -0.622307
      31A     -0.594595    32A     -0.592580    33A     -0.585556
      34A     -0.579825    35A     -0.537106    36A     -0.523161
      37A     -0.505930    38A     -0.500479    39A     -0.490411
      40A     -0.478623    41A     -0.448800    42A     -0.360669
      43A     -0.338490    44A     -0.318300    45A     -0.290090

  @DF-RHF Final Energy:  -515.45122936635630

   => Energetics <=

    Nuclear Repulsion Energy =            709.1063885425284070
    One-Electron Energy =               -2104.3167734281314551
    Two-Electron Energy =                 879.7591555192468604
    Total Energy =                       -515.4512293663563014
  Basis Set: (AUG-CC-PVTZ AUX)
    Blend: AUG-CC-PVTZ-RI
    Molecular point group: c1

    Geometry (in Angstrom), charge = 0, multiplicity = 1:

       Center              X                  Y                   Z               Mass
    ------------   -----------------  -----------------  -----------------  -----------------
         N           -0.855661841513     2.167230142412    -0.513976096245    14.003074004430
         C           -0.661011841513    -0.210608857588     0.064620903755    12.000000000000
         C            0.816853058487    -0.126772057588     0.030568403755    12.000000000000
         C           -1.448600841513     0.920336142412    -0.246872096245    12.000000000000
         C           -1.300102841513    -1.422847857588     0.364201903755    12.000000000000
         C            1.546551158487    -1.089135857588    -0.712778096245    12.000000000000
         C            1.519927158487     0.808851142412     0.786217903755    12.000000000000
         C           -2.846126841513     0.810845142412    -0.202539096245    12.000000000000
         C           -2.689447841513    -1.526712857588     0.393136903755    12.000000000000
         C           -3.462223841513    -0.400986857588     0.100811903755    12.000000000000
         C            2.941714158487    -1.069448857588    -0.713836096245    12.000000000000
         C            2.915469158487     0.828916142412     0.780080903755    12.000000000000
         C            3.630311158487    -0.110083857588     0.032411903755    12.000000000000
         H           -0.682450841513    -2.284962857588     0.609671903755     1.007825032230
         H            1.008283158487    -1.825729857588    -1.306092096245     1.007825032230
         H            0.963818158487     1.531716142412     1.378796903755     1.007825032230
         H           -3.452447841513     1.685307142412    -0.435444096245     1.007825032230
         H           -3.163017841513    -2.474409857588     0.635882903755     1.007825032230
         H           -4.548071841513    -0.459399857588     0.122176903755     1.007825032230
         H            3.492228158487    -1.800047857588    -1.302292096245     1.007825032230
         H            3.446221158487     1.572953142412     1.369909903755     1.007825032230
         H            4.717574158487    -0.093307857588     0.030017903755     1.007825032230
         H            0.076019158487     2.087743142412    -0.911915096245     1.007825032230
         H           -1.439278841513     2.758571142412    -1.098667096245     1.007825032230

  Basis Set: AUG-CC-PVTZ
    Blend: AUG-CC-PVTZ
  Basis Set: (AUG-CC-PVTZ AUX)
    Blend: AUG-CC-PVTZ-JKFIT
	 Reference Energy          =    -515.4512293663563014 [Eh]
	 Singles Energy            =      -0.0000000000000000 [Eh]
	 Same-Spin Energy          =      -0.5830024466566490 [Eh]
	 Opposite-Spin Energy      =      -1.8013505714007896 [Eh]
	 Correlation Energy        =      -2.3843530180574386 [Eh]
	 Total Energy              =    -517.8355823844137831 [Eh]

	 ================> DF-SCS-MP2 Energies <==================
	-----------------------------------------------------------
	 SCS Same-Spin Scale       =       0.3333333333333333 [-]
	 SCS Opposite-Spin Scale   =       1.2000000000000000 [-]
	 SCS Same-Spin Energy      =      -0.1943341488855497 [Eh]
	 SCS Opposite-Spin Energy  =      -2.1616206856809472 [Eh]
	 SCS Correlation Energy    =      -2.3559548345664969 [Eh]
	 SCS Total Energy          =    -517.8071842009228476 [Eh]
	-----------------------------------------------------------

  Dipole Moment: [D]
     X:     0.4598      Y:     0.5421      Z:    -1.1239     Total:     1.3299

*** Psi4 exiting successfully. Buy a developer a beer!
