                               Psi4 1.4a3.dev225

  ==> Input File <==

--------------------------------------------------------------------------
#psi4
#
memory 32 gb

molecule  {
0 1
  N       -0.8580750     2.1650740    -0.5094440
  C       -0.6634250    -0.2127650     0.0691530
  C        0.8157840    -0.1537790     0.0420590
  C       -1.4594466     0.9004470    -0.2385413
  C       -1.3025160    -1.4250040     0.3687340
  C        1.5441380    -1.0912920    -0.7082460
  C        1.5175140     0.8066950     0.7907500
  C       -2.8485400     0.8086890    -0.1980070
  C       -2.6918610    -1.5288690     0.3976690
  C       -3.4646370    -0.4031430     0.1053440
  C        2.9393010    -1.0716050    -0.7093040
  C        2.9130560     0.8267600     0.7846130
  C        3.6278980    -0.1122400     0.0369440
  H       -0.6848640    -2.2871190     0.6142040
  H        1.0058700    -1.8278860    -1.3015600
  H        0.9614050     1.5295600     1.3833290
  H       -3.4548610     1.6831510    -0.4309120
  H       -3.1654310    -2.4765660     0.6404150
  H       -4.5504850    -0.4615560     0.1267090
  H        3.4898150    -1.8022040    -1.2977600
  H        3.4438080     1.5707970     1.3744420
  H        4.7151610    -0.0954640     0.0345500
  H        0.0736060     2.0855870    -0.9073830
  H       -1.4416920     2.7564150    -1.0941350
units angstrom
no_reorient  #important for SAPT in psi4, default
symmetry c1  #important for SAPT in psi4, default
}

set PROPERTIES_ORIGIN ["COM"]
properties('MP2/aug-cc-pvtz', properties = ['dipole'])
--------------------------------------------------------------------------

    Molecular point group: c1
  Charge       = 0
  Multiplicity = 1
  Basis Set: AUG-CC-PVTZ
    Blend: AUG-CC-PVTZ
  Basis Set: (AUG-CC-PVTZ AUX)
    Blend: AUG-CC-PVTZ-JKFIT

    Orbital Energies [Eh]
    ---------------------

    Doubly Occupied:

       1A    -15.562221     2A    -11.278305     3A    -11.247053
       4A    -11.239334     5A    -11.238839     6A    -11.237360
       7A    -11.237311     8A    -11.237009     9A    -11.236991
      10A    -11.235634    11A    -11.235582    12A    -11.226996
      13A    -11.224067    14A     -1.219393    15A     -1.155794
      16A     -1.126266    17A     -1.052349    18A     -1.015317
      19A     -0.995201    20A     -0.975681    21A     -0.852995
      22A     -0.835021    23A     -0.811642    24A     -0.789709
      25A     -0.712388    26A     -0.684332    27A     -0.682801
      28A     -0.654415    29A     -0.625700    30A     -0.621663
      31A     -0.595006    32A     -0.593611    33A     -0.586374
      34A     -0.579741    35A     -0.536577    36A     -0.522871
      37A     -0.506143    38A     -0.500407    39A     -0.489103
      40A     -0.481762    41A     -0.446721    42A     -0.360891
      43A     -0.338821    44A     -0.319020    45A     -0.292570

  @DF-RHF Final Energy:  -515.45163267861369

   => Energetics <=

    Nuclear Repulsion Energy =            709.1612251144462107
    One-Electron Energy =               -2104.4317472335733328
    Two-Electron Energy =                 879.8188894405135443
    Total Energy =                       -515.4516326786136915
  Basis Set: (AUG-CC-PVTZ AUX)
    Blend: AUG-CC-PVTZ-RI
    Molecular point group: c1

    Geometry (in Angstrom), charge = 0, multiplicity = 1:

       Center              X                  Y                   Z               Mass
    ------------   -----------------  -----------------  -----------------  -----------------
         N           -0.855158781439     2.170252249992    -0.514739518384    14.003074004430
         C           -0.660508781439    -0.207586750008     0.063857481616    12.000000000000
         C            0.818700218561    -0.148600750008     0.036763481616    12.000000000000
         C           -1.456530381439     0.905625249992    -0.243836818384    12.000000000000
         C           -1.299599781439    -1.419825750008     0.363438481616    12.000000000000
         C            1.547054218561    -1.086113750008    -0.713541518384    12.000000000000
         C            1.520430218561     0.811873249992     0.785454481616    12.000000000000
         C           -2.845623781439     0.813867249992    -0.203302518384    12.000000000000
         C           -2.688944781439    -1.523690750008     0.392373481616    12.000000000000
         C           -3.461720781439    -0.397964750008     0.100048481616    12.000000000000
         C            2.942217218561    -1.066426750008    -0.714599518384    12.000000000000
         C            2.915972218561     0.831938249992     0.779317481616    12.000000000000
         C            3.630814218561    -0.107061750008     0.031648481616    12.000000000000
         H           -0.681947781439    -2.281940750008     0.608908481616     1.007825032230
         H            1.008786218561    -1.822707750008    -1.306855518384     1.007825032230
         H            0.964321218561     1.534738249992     1.378033481616     1.007825032230
         H           -3.451944781439     1.688329249992    -0.436207518384     1.007825032230
         H           -3.162514781439    -2.471387750008     0.635119481616     1.007825032230
         H           -4.547568781439    -0.456377750008     0.121413481616     1.007825032230
         H            3.492731218561    -1.797025750008    -1.303055518384     1.007825032230
         H            3.446724218561     1.575975249992     1.369146481616     1.007825032230
         H            4.718077218561    -0.090285750008     0.029254481616     1.007825032230
         H            0.076522218561     2.090765249992    -0.912678518384     1.007825032230
         H           -1.438775781439     2.761593249992    -1.099430518384     1.007825032230

  Basis Set: AUG-CC-PVTZ
    Blend: AUG-CC-PVTZ
  Basis Set: (AUG-CC-PVTZ AUX)
    Blend: AUG-CC-PVTZ-JKFIT
	 Reference Energy          =    -515.4516326786136915 [Eh]
	 Singles Energy            =      -0.0000000000000000 [Eh]
	 Same-Spin Energy          =      -0.5828021731586066 [Eh]
	 Opposite-Spin Energy      =      -1.8011604433904922 [Eh]
	 Correlation Energy        =      -2.3839626165490988 [Eh]
	 Total Energy              =    -517.8355952951627614 [Eh]

	 ================> DF-SCS-MP2 Energies <==================
	-----------------------------------------------------------
	 SCS Same-Spin Scale       =       0.3333333333333333 [-]
	 SCS Opposite-Spin Scale   =       1.2000000000000000 [-]
	 SCS Same-Spin Energy      =      -0.1942673910528689 [Eh]
	 SCS Opposite-Spin Energy  =      -2.1613925320685907 [Eh]
	 SCS Correlation Energy    =      -2.3556599231214594 [Eh]
	 SCS Total Energy          =    -517.8072926017351847 [Eh]
	-----------------------------------------------------------

  Dipole Moment: [D]
     X:     0.4121      Y:     0.4468      Z:    -1.1011     Total:     1.2577

*** Psi4 exiting successfully. Buy a developer a beer!
