                               Psi4 1.3.2 release

  ==> Input File <==

--------------------------------------------------------------------------
#psi4
#
memory 32 gb

molecule  {
0 1
  N       -0.8580750     2.1650740    -0.5094440
  C       -0.6634250    -0.2127650     0.0691530
  C        0.8157840    -0.1537790     0.0420590
  C       -1.3276766     0.8570486    -0.2944797
  C       -1.3025160    -1.4250040     0.3687340
  C        1.5441380    -1.0912920    -0.7082460
  C        1.5175140     0.8066950     0.7907500
  C       -2.8485400     0.8086890    -0.1980070
  C       -2.6918610    -1.5288690     0.3976690
  C       -3.4646370    -0.4031430     0.1053440
  C        2.9393010    -1.0716050    -0.7093040
  C        2.9130560     0.8267600     0.7846130
  C        3.6278980    -0.1122400     0.0369440
  H       -0.6848640    -2.2871190     0.6142040
  H        1.0058700    -1.8278860    -1.3015600
  H        0.9614050     1.5295600     1.3833290
  H       -3.4548610     1.6831510    -0.4309120
  H       -3.1654310    -2.4765660     0.6404150
  H       -4.5504850    -0.4615560     0.1267090
  H        3.4898150    -1.8022040    -1.2977600
  H        3.4438080     1.5707970     1.3744420
  H        4.7151610    -0.0954640     0.0345500
  H        0.0736060     2.0855870    -0.9073830
  H       -1.4416920     2.7564150    -1.0941350
units angstrom
no_reorient  #important for SAPT in psi4, default
symmetry c1  #important for SAPT in psi4, default
}

set PROPERTIES_ORIGIN ["COM"]
properties('MP2/aug-cc-pvtz', properties = ['dipole'])
--------------------------------------------------------------------------

    Molecular point group: c1
  Charge       = 0
  Multiplicity = 1
  Basis Set: AUG-CC-PVTZ
    Blend: AUG-CC-PVTZ
  Basis Set: (AUG-CC-PVTZ AUX)
    Blend: AUG-CC-PVTZ-JKFIT

    Orbital Energies [Eh]
    ---------------------

    Doubly Occupied:

       1A    -15.566177     2A    -11.278368     3A    -11.244428
       4A    -11.238945     5A    -11.238713     6A    -11.238316
       7A    -11.237552     8A    -11.236398     9A    -11.235835
      10A    -11.235195    11A    -11.234688    12A    -11.224979
      13A    -11.223780    14A     -1.227837    15A     -1.156680
      16A     -1.126485    17A     -1.054430    18A     -1.014687
      19A     -0.985672    20A     -0.979581    21A     -0.848998
      22A     -0.837392    23A     -0.817093    24A     -0.781756
      25A     -0.712191    26A     -0.688087    27A     -0.680928
      28A     -0.659306    29A     -0.630083    30A     -0.625525
      31A     -0.601599    32A     -0.586421    33A     -0.581393
      34A     -0.573208    35A     -0.537682    36A     -0.517750
      37A     -0.512504    38A     -0.499994    39A     -0.491882
      40A     -0.466636    41A     -0.449206    42A     -0.361818
      43A     -0.338238    44A     -0.316176    45A     -0.293867

  @DF-RHF Final Energy:  -515.42846189097156

   => Energetics <=

    Nuclear Repulsion Energy =            710.0593382751393392
    One-Electron Energy =               -2106.1986431909417661
    Two-Electron Energy =                 880.7108430248307513
    Total Energy =                       -515.4284618909715618
  Basis Set: (AUG-CC-PVTZ AUX)
    Blend: AUG-CC-PVTZ-RI
    Molecular point group: c1

    Geometry (in Angstrom), charge = 0, multiplicity = 1:

       Center              X                  Y                   Z               Mass
    ------------   -----------------  -----------------  -----------------  -----------------
         N           -0.864510298115     2.173332168496    -0.510769655134    14.003074004430
         C           -0.669860298115    -0.204506831504     0.067827344866    12.000000000000
         C            0.809348701885    -0.145520831504     0.040733344866    12.000000000000
         C           -1.334111898115     0.865306768496    -0.295805355134    12.000000000000
         C           -1.308951298115    -1.416745831504     0.367408344866    12.000000000000
         C            1.537702701885    -1.083033831504    -0.709571655134    12.000000000000
         C            1.511078701885     0.814953168496     0.789424344866    12.000000000000
         C           -2.854975298115     0.816947168496    -0.199332655134    12.000000000000
         C           -2.698296298115    -1.520610831504     0.396343344866    12.000000000000
         C           -3.471072298115    -0.394884831504     0.104018344866    12.000000000000
         C            2.932865701885    -1.063346831504    -0.710629655134    12.000000000000
         C            2.906620701885     0.835018168496     0.783287344866    12.000000000000
         C            3.621462701885    -0.103981831504     0.035618344866    12.000000000000
         H           -0.691299298115    -2.278860831504     0.612878344866     1.007825032230
         H            0.999434701885    -1.819627831504    -1.302885655134     1.007825032230
         H            0.954969701885     1.537818168496     1.382003344866     1.007825032230
         H           -3.461296298115     1.691409168496    -0.432237655134     1.007825032230
         H           -3.171866298115    -2.468307831504     0.639089344866     1.007825032230
         H           -4.556920298115    -0.453297831504     0.125383344866     1.007825032230
         H            3.483379701885    -1.793945831504    -1.299085655134     1.007825032230
         H            3.437372701885     1.579055168496     1.373116344866     1.007825032230
         H            4.708725701885    -0.087205831504     0.033224344866     1.007825032230
         H            0.067170701885     2.093845168496    -0.908708655134     1.007825032230
         H           -1.448127298115     2.764673168496    -1.095460655134     1.007825032230

  Basis Set: AUG-CC-PVTZ
    Blend: AUG-CC-PVTZ
  Basis Set: (AUG-CC-PVTZ AUX)
    Blend: AUG-CC-PVTZ-JKFIT
	 Reference Energy          =    -515.4284618909715618 [Eh]
	 Singles Energy            =      -0.0000000000000000 [Eh]
	 Same-Spin Energy          =      -0.5825334561761895 [Eh]
	 Opposite-Spin Energy      =      -1.8027694646255268 [Eh]
	 Correlation Energy        =      -2.3853029208017160 [Eh]
	 Total Energy              =    -517.8137648117732397 [Eh]

	 ================> DF-SCS-MP2 Energies <==================
	-----------------------------------------------------------
	 SCS Same-Spin Scale       =       0.3333333333333333 [-]
	 SCS Opposite-Spin Scale   =       1.2000000000000000 [-]
	 SCS Same-Spin Energy      =      -0.1941778187253965 [Eh]
	 SCS Opposite-Spin Energy  =      -2.1633233575506319 [Eh]
	 SCS Correlation Energy    =      -2.3575011762760285 [Eh]
	 SCS Total Energy          =    -517.7859630672476214 [Eh]
	-----------------------------------------------------------

  Dipole Moment: [D]
     X:     0.3816      Y:     0.5611      Z:    -1.1354     Total:     1.3227

*** Psi4 exiting successfully. Buy a developer a beer!
