                               Psi4 1.3.2 release

  ==> Input File <==

--------------------------------------------------------------------------
#psi4
#
memory 32 gb

molecule  {
0 1
  N       -0.8580750     2.1650740    -0.5094440
  C       -0.6634250    -0.2127650     0.0691530
  C        0.8157840    -0.1537790     0.0420590
  C       -1.4308732     0.9070227    -0.2508418
  C       -1.3025160    -1.4250040     0.3687340
  C        1.5441380    -1.0912920    -0.7082460
  C        1.5175140     0.8066950     0.7907500
  C       -2.8485400     0.8086890    -0.1980070
  C       -2.6918610    -1.5288690     0.3976690
  C       -3.4646370    -0.4031430     0.1053440
  C        2.9393010    -1.0716050    -0.7093040
  C        2.9130560     0.8267600     0.7846130
  C        3.6278980    -0.1122400     0.0369440
  H       -0.6848640    -2.2871190     0.6142040
  H        1.0058700    -1.8278860    -1.3015600
  H        0.9614050     1.5295600     1.3833290
  H       -3.4548610     1.6831510    -0.4309120
  H       -3.1654310    -2.4765660     0.6404150
  H       -4.5504850    -0.4615560     0.1267090
  H        3.4898150    -1.8022040    -1.2977600
  H        3.4438080     1.5707970     1.3744420
  H        4.7151610    -0.0954640     0.0345500
  H        0.0736060     2.0855870    -0.9073830
  H       -1.4416920     2.7564150    -1.0941350
units angstrom
no_reorient  #important for SAPT in psi4, default
symmetry c1  #important for SAPT in psi4, default
}

set PROPERTIES_ORIGIN ["COM"]
properties('MP2/aug-cc-pvtz', properties = ['dipole'])
--------------------------------------------------------------------------

    Molecular point group: c1
  Charge       = 0
  Multiplicity = 1
  Basis Set: AUG-CC-PVTZ
    Blend: AUG-CC-PVTZ
  Basis Set: (AUG-CC-PVTZ AUX)
    Blend: AUG-CC-PVTZ-JKFIT

    Orbital Energies [Eh]
    ---------------------

    Doubly Occupied:

       1A    -15.564756     2A    -11.279930     3A    -11.246189
       4A    -11.239104     5A    -11.238682     6A    -11.236982
       7A    -11.236737     8A    -11.236683     9A    -11.236579
      10A    -11.235318    11A    -11.233844    12A    -11.229259
      13A    -11.223208    14A     -1.225494    15A     -1.156252
      16A     -1.125689    17A     -1.051752    18A     -1.015096
      19A     -0.991914    20A     -0.975424    21A     -0.851493
      22A     -0.835417    23A     -0.812600    24A     -0.788309
      25A     -0.712089    26A     -0.685991    27A     -0.684878
      28A     -0.656042    29A     -0.625608    30A     -0.623584
      31A     -0.595474    32A     -0.590524    33A     -0.586297
      34A     -0.579202    35A     -0.537023    36A     -0.522377
      37A     -0.507062    38A     -0.500513    39A     -0.489875
      40A     -0.478542    41A     -0.449100    42A     -0.360474
      43A     -0.338651    44A     -0.317336    45A     -0.291071

  @DF-RHF Final Energy:  -515.45104831441461

   => Energetics <=

    Nuclear Repulsion Energy =            709.2290290454064916
    One-Electron Energy =               -2104.5633111736760839
    Two-Electron Energy =                 879.8832338138548721
    Total Energy =                       -515.4510483144146065
  Basis Set: (AUG-CC-PVTZ AUX)
    Blend: AUG-CC-PVTZ-RI
    Molecular point group: c1

    Geometry (in Angstrom), charge = 0, multiplicity = 1:

       Center              X                  Y                   Z               Mass
    ------------   -----------------  -----------------  -----------------  -----------------
         N           -0.857186592220     2.169785582555    -0.513866570589    14.003074004430
         C           -0.662536592220    -0.208053417445     0.064730429411    12.000000000000
         C            0.816672407780    -0.149067417445     0.037636429411    12.000000000000
         C           -1.429984792220     0.911734282555    -0.255264370589    12.000000000000
         C           -1.301627592220    -1.420292417445     0.364311429411    12.000000000000
         C            1.545026407780    -1.086580417445    -0.712668570589    12.000000000000
         C            1.518402407780     0.811406582555     0.786327429411    12.000000000000
         C           -2.847651592220     0.813400582555    -0.202429570589    12.000000000000
         C           -2.690972592220    -1.524157417445     0.393246429411    12.000000000000
         C           -3.463748592220    -0.398431417445     0.100921429411    12.000000000000
         C            2.940189407780    -1.066893417445    -0.713726570589    12.000000000000
         C            2.913944407780     0.831471582555     0.780190429411    12.000000000000
         C            3.628786407780    -0.107528417445     0.032521429411    12.000000000000
         H           -0.683975592220    -2.282407417445     0.609781429411     1.007825032230
         H            1.006758407780    -1.823174417445    -1.305982570589     1.007825032230
         H            0.962293407780     1.534271582555     1.378906429411     1.007825032230
         H           -3.453972592220     1.687862582555    -0.435334570589     1.007825032230
         H           -3.164542592220    -2.471854417445     0.635992429411     1.007825032230
         H           -4.549596592220    -0.456844417445     0.122286429411     1.007825032230
         H            3.490703407780    -1.797492417445    -1.302182570589     1.007825032230
         H            3.444696407780     1.575508582555     1.370019429411     1.007825032230
         H            4.716049407780    -0.090752417445     0.030127429411     1.007825032230
         H            0.074494407780     2.090298582555    -0.911805570589     1.007825032230
         H           -1.440803592220     2.761126582555    -1.098557570589     1.007825032230

  Basis Set: AUG-CC-PVTZ
    Blend: AUG-CC-PVTZ
  Basis Set: (AUG-CC-PVTZ AUX)
    Blend: AUG-CC-PVTZ-JKFIT
	 Reference Energy          =    -515.4510483144146065 [Eh]
	 Singles Energy            =      -0.0000000000000000 [Eh]
	 Same-Spin Energy          =      -0.5829258401170205 [Eh]
	 Opposite-Spin Energy      =      -1.8013382084453387 [Eh]
	 Correlation Energy        =      -2.3842640485623594 [Eh]
	 Total Energy              =    -517.8353123629769925 [Eh]

	 ================> DF-SCS-MP2 Energies <==================
	-----------------------------------------------------------
	 SCS Same-Spin Scale       =       0.3333333333333333 [-]
	 SCS Opposite-Spin Scale   =       1.2000000000000000 [-]
	 SCS Same-Spin Energy      =      -0.1943086133723402 [Eh]
	 SCS Opposite-Spin Energy  =      -2.1616058501344062 [Eh]
	 SCS Correlation Energy    =      -2.3559144635067462 [Eh]
	 SCS Total Energy          =    -517.8069627779213988 [Eh]
	-----------------------------------------------------------

  Dipole Moment: [D]
     X:     0.4411      Y:     0.5538      Z:    -1.1310     Total:     1.3343

*** Psi4 exiting successfully. Buy a developer a beer!
