                               Psi4 1.3.2 release

  ==> Input File <==

--------------------------------------------------------------------------
#psi4
#
memory 32 gb

molecule  {
0 1
  N       -0.8580750     2.1650740    -0.5094440
  C       -0.6840164    -0.2257708     0.0730203
  C        0.8157840    -0.1537790     0.0420590
  C       -1.4510140     0.9181800    -0.2423400
  C       -1.3025160    -1.4250040     0.3687340
  C        1.5441380    -1.0912920    -0.7082460
  C        1.5175140     0.8066950     0.7907500
  C       -2.8485400     0.8086890    -0.1980070
  C       -2.6918610    -1.5288690     0.3976690
  C       -3.4646370    -0.4031430     0.1053440
  C        2.9393010    -1.0716050    -0.7093040
  C        2.9130560     0.8267600     0.7846130
  C        3.6278980    -0.1122400     0.0369440
  H       -0.6848640    -2.2871190     0.6142040
  H        1.0058700    -1.8278860    -1.3015600
  H        0.9614050     1.5295600     1.3833290
  H       -3.4548610     1.6831510    -0.4309120
  H       -3.1654310    -2.4765660     0.6404150
  H       -4.5504850    -0.4615560     0.1267090
  H        3.4898150    -1.8022040    -1.2977600
  H        3.4438080     1.5707970     1.3744420
  H        4.7151610    -0.0954640     0.0345500
  H        0.0736060     2.0855870    -0.9073830
  H       -1.4416920     2.7564150    -1.0941350
units angstrom
no_reorient  #important for SAPT in psi4, default
symmetry c1  #important for SAPT in psi4, default
}

set PROPERTIES_ORIGIN ["COM"]
properties('MP2/aug-cc-pvtz', properties = ['dipole'])
--------------------------------------------------------------------------

    Molecular point group: c1
  Charge       = 0
  Multiplicity = 1
  Basis Set: AUG-CC-PVTZ
    Blend: AUG-CC-PVTZ
  Basis Set: (AUG-CC-PVTZ AUX)
    Blend: AUG-CC-PVTZ-JKFIT

    Orbital Energies [Eh]
    ---------------------

    Doubly Occupied:

       1A    -15.565378     2A    -11.280007     3A    -11.247423
       4A    -11.239039     5A    -11.238663     6A    -11.236916
       7A    -11.236473     8A    -11.236362     9A    -11.235892
      10A    -11.235413    11A    -11.233691    12A    -11.226667
      13A    -11.222794    14A     -1.225239    15A     -1.155667
      16A     -1.127635    17A     -1.049833    18A     -1.014968
      19A     -0.995126    20A     -0.974874    21A     -0.850205
      22A     -0.834584    23A     -0.811913    24A     -0.790117
      25A     -0.711954    26A     -0.686302    27A     -0.685422
      28A     -0.654628    29A     -0.625097    30A     -0.622336
      31A     -0.595311    32A     -0.592846    33A     -0.585983
      34A     -0.579707    35A     -0.537395    36A     -0.523384
      37A     -0.506647    38A     -0.500617    39A     -0.490371
      40A     -0.475454    41A     -0.449874    42A     -0.360433
      43A     -0.338575    44A     -0.319458    45A     -0.290699

  @DF-RHF Final Energy:  -515.45170166927812

   => Energetics <=

    Nuclear Repulsion Energy =            709.0282494333647492
    One-Electron Energy =               -2104.1651583949746964
    Two-Electron Energy =                 879.6852072923319383
    Total Energy =                       -515.4517016692781226
  Basis Set: (AUG-CC-PVTZ AUX)
    Blend: AUG-CC-PVTZ-RI
    Molecular point group: c1

    Geometry (in Angstrom), charge = 0, multiplicity = 1:

       Center              X                  Y                   Z               Mass
    ------------   -----------------  -----------------  -----------------  -----------------
         N           -0.854295889878     2.169916767791    -0.514744386821    14.003074004430
         C           -0.680237289878    -0.220928032209     0.067719913179    12.000000000000
         C            0.819563110122    -0.148936232209     0.036758613179    12.000000000000
         C           -1.447234889878     0.923022767791    -0.247640386821    12.000000000000
         C           -1.298736889878    -1.420161232209     0.363433613179    12.000000000000
         C            1.547917110122    -1.086449232209    -0.713546386821    12.000000000000
         C            1.521293110122     0.811537767791     0.785449613179    12.000000000000
         C           -2.844760889878     0.813531767791    -0.203307386821    12.000000000000
         C           -2.688081889878    -1.524026232209     0.392368613179    12.000000000000
         C           -3.460857889878    -0.398300232209     0.100043613179    12.000000000000
         C            2.943080110122    -1.066762232209    -0.714604386821    12.000000000000
         C            2.916835110122     0.831602767791     0.779312613179    12.000000000000
         C            3.631677110122    -0.107397232209     0.031643613179    12.000000000000
         H           -0.681084889878    -2.282276232209     0.608903613179     1.007825032230
         H            1.009649110122    -1.823043232209    -1.306860386821     1.007825032230
         H            0.965184110122     1.534402767791     1.378028613179     1.007825032230
         H           -3.451081889878     1.687993767791    -0.436212386821     1.007825032230
         H           -3.161651889878    -2.471723232209     0.635114613179     1.007825032230
         H           -4.546705889878    -0.456713232209     0.121408613179     1.007825032230
         H            3.493594110122    -1.797361232209    -1.303060386821     1.007825032230
         H            3.447587110122     1.575639767791     1.369141613179     1.007825032230
         H            4.718940110122    -0.090621232209     0.029249613179     1.007825032230
         H            0.077385110122     2.090429767791    -0.912683386821     1.007825032230
         H           -1.437912889878     2.761257767791    -1.099435386821     1.007825032230

  Basis Set: AUG-CC-PVTZ
    Blend: AUG-CC-PVTZ
  Basis Set: (AUG-CC-PVTZ AUX)
    Blend: AUG-CC-PVTZ-JKFIT
	 Reference Energy          =    -515.4517016692781226 [Eh]
	 Singles Energy            =      -0.0000000000000000 [Eh]
	 Same-Spin Energy          =      -0.5827250051715729 [Eh]
	 Opposite-Spin Energy      =      -1.8008799537167737 [Eh]
	 Correlation Energy        =      -2.3836049588883466 [Eh]
	 Total Energy              =    -517.8353066281664496 [Eh]

	 ================> DF-SCS-MP2 Energies <==================
	-----------------------------------------------------------
	 SCS Same-Spin Scale       =       0.3333333333333333 [-]
	 SCS Opposite-Spin Scale   =       1.2000000000000000 [-]
	 SCS Same-Spin Energy      =      -0.1942416683905243 [Eh]
	 SCS Opposite-Spin Energy  =      -2.1610559444601285 [Eh]
	 SCS Correlation Energy    =      -2.3552976128506526 [Eh]
	 SCS Total Energy          =    -517.8069992821287997 [Eh]
	-----------------------------------------------------------

  Dipole Moment: [D]
     X:     0.4455      Y:     0.5541      Z:    -1.1303     Total:     1.3354

*** Psi4 exiting successfully. Buy a developer a beer!
