                               Psi4 1.3.2 release

  ==> Input File <==

--------------------------------------------------------------------------
#psi4
#
memory 32 gb

molecule  {
0 1
  N       -0.8580750     2.1650740    -0.5094440
  C       -0.6634250    -0.2127650     0.0691530
  C        0.8157840    -0.1537790     0.0420590
  C       -1.4510140     0.9181800    -0.2423400
  C       -1.3025160    -1.4250040     0.3687340
  C        1.4404147    -0.9577828    -0.6013967
  C        1.5175140     0.8066950     0.7907500
  C       -2.8485400     0.8086890    -0.1980070
  C       -2.6918610    -1.5288690     0.3976690
  C       -3.4646370    -0.4031430     0.1053440
  C        2.9393010    -1.0716050    -0.7093040
  C        2.9130560     0.8267600     0.7846130
  C        3.6278980    -0.1122400     0.0369440
  H       -0.6848640    -2.2871190     0.6142040
  H        1.0058700    -1.8278860    -1.3015600
  H        0.9614050     1.5295600     1.3833290
  H       -3.4548610     1.6831510    -0.4309120
  H       -3.1654310    -2.4765660     0.6404150
  H       -4.5504850    -0.4615560     0.1267090
  H        3.4898150    -1.8022040    -1.2977600
  H        3.4438080     1.5707970     1.3744420
  H        4.7151610    -0.0954640     0.0345500
  H        0.0736060     2.0855870    -0.9073830
  H       -1.4416920     2.7564150    -1.0941350
units angstrom
no_reorient  #important for SAPT in psi4, default
symmetry c1  #important for SAPT in psi4, default
}

set PROPERTIES_ORIGIN ["COM"]
properties('MP2/aug-cc-pvtz', properties = ['dipole'])
--------------------------------------------------------------------------

    Molecular point group: c1
  Charge       = 0
  Multiplicity = 1
  Basis Set: AUG-CC-PVTZ
    Blend: AUG-CC-PVTZ
  Basis Set: (AUG-CC-PVTZ AUX)
    Blend: AUG-CC-PVTZ-JKFIT

    Orbital Energies [Eh]
    ---------------------

    Doubly Occupied:

       1A    -15.565370     2A    -11.279101     3A    -11.248105
       4A    -11.238589     5A    -11.237861     6A    -11.236851
       7A    -11.236028     8A    -11.235698     9A    -11.234451
      10A    -11.231936    11A    -11.226414    12A    -11.222280
      13A    -11.219536    14A     -1.226727    15A     -1.175551
      16A     -1.125089    17A     -1.063829    18A     -1.001765
      19A     -0.997252    20A     -0.980498    21A     -0.848399
      22A     -0.845059    23A     -0.810944    24A     -0.784435
      25A     -0.714475    26A     -0.686222    27A     -0.682790
      28A     -0.651122    29A     -0.637242    30A     -0.621103
      31A     -0.597027    32A     -0.593318    33A     -0.582848
      34A     -0.570229    35A     -0.540151    36A     -0.521786
      37A     -0.512922    38A     -0.504269    39A     -0.491888
      40A     -0.453233    41A     -0.445334    42A     -0.377470
      43A     -0.330274    44A     -0.320481    45A     -0.293775

  @DF-RHF Final Energy:  -515.39175964350488

   => Energetics <=

    Nuclear Repulsion Energy =            712.5592058875754446
    One-Electron Energy =               -2111.1024778506393886
    Two-Electron Energy =                 883.1515123195590604
    Total Energy =                       -515.3917596435048836
  Basis Set: (AUG-CC-PVTZ AUX)
    Blend: AUG-CC-PVTZ-RI
    Molecular point group: c1

    Geometry (in Angstrom), charge = 0, multiplicity = 1:

       Center              X                  Y                   Z               Mass
    ------------   -----------------  -----------------  -----------------  -----------------
         N           -0.848396145254     2.159518820870    -0.522052862881    14.003074004430
         C           -0.653746145254    -0.218320179130     0.056544137119    12.000000000000
         C            0.825462854746    -0.159334179130     0.029450137119    12.000000000000
         C           -1.441335145254     0.912624820870    -0.254948862881    12.000000000000
         C           -1.292837145254    -1.430559179130     0.356125137119    12.000000000000
         C            1.450093554746    -0.963337979130    -0.614005562881    12.000000000000
         C            1.527192854746     0.801139820870     0.778141137119    12.000000000000
         C           -2.838861145254     0.803133820870    -0.210615862881    12.000000000000
         C           -2.682182145254    -1.534424179130     0.385060137119    12.000000000000
         C           -3.454958145254    -0.408698179130     0.092735137119    12.000000000000
         C            2.948979854746    -1.077160179130    -0.721912862881    12.000000000000
         C            2.922734854746     0.821204820870     0.772004137119    12.000000000000
         C            3.637576854746    -0.117795179130     0.024335137119    12.000000000000
         H           -0.675185145254    -2.292674179130     0.601595137119     1.007825032230
         H            1.015548854746    -1.833441179130    -1.314168862881     1.007825032230
         H            0.971083854746     1.524004820870     1.370720137119     1.007825032230
         H           -3.445182145254     1.677595820870    -0.443520862881     1.007825032230
         H           -3.155752145254    -2.482121179130     0.627806137119     1.007825032230
         H           -4.540806145254    -0.467111179130     0.114100137119     1.007825032230
         H            3.499493854746    -1.807759179130    -1.310368862881     1.007825032230
         H            3.453486854746     1.565241820870     1.361833137119     1.007825032230
         H            4.724839854746    -0.101019179130     0.021941137119     1.007825032230
         H            0.083284854746     2.080031820870    -0.919991862881     1.007825032230
         H           -1.432013145254     2.750859820870    -1.106743862881     1.007825032230

  Basis Set: AUG-CC-PVTZ
    Blend: AUG-CC-PVTZ
  Basis Set: (AUG-CC-PVTZ AUX)
    Blend: AUG-CC-PVTZ-JKFIT
	 Reference Energy          =    -515.3917596435048836 [Eh]
	 Singles Energy            =      -0.0000000000000000 [Eh]
	 Same-Spin Energy          =      -0.5823098921544936 [Eh]
	 Opposite-Spin Energy      =      -1.8029576464450638 [Eh]
	 Correlation Energy        =      -2.3852675385995576 [Eh]
	 Total Energy              =    -517.7770271821044616 [Eh]

	 ================> DF-SCS-MP2 Energies <==================
	-----------------------------------------------------------
	 SCS Same-Spin Scale       =       0.3333333333333333 [-]
	 SCS Opposite-Spin Scale   =       1.2000000000000000 [-]
	 SCS Same-Spin Energy      =      -0.1941032973848312 [Eh]
	 SCS Opposite-Spin Energy  =      -2.1635491757340763 [Eh]
	 SCS Correlation Energy    =      -2.3576524731189075 [Eh]
	 SCS Total Energy          =    -517.7494121166238301 [Eh]
	-----------------------------------------------------------

  Dipole Moment: [D]
     X:     0.5675      Y:     0.5645      Z:    -1.1237     Total:     1.3796

*** Psi4 exiting successfully. Buy a developer a beer!
