                               Psi4 1.3.2 release

  ==> Input File <==

--------------------------------------------------------------------------
#psi4
#
memory 32 gb

molecule  {
0 1
  N       -0.9944072     2.2170298    -0.5289850
  C       -0.6634250    -0.2127650     0.0691530
  C        0.8157840    -0.1537790     0.0420590
  C       -1.4510140     0.9181800    -0.2423400
  C       -1.3025160    -1.4250040     0.3687340
  C        1.5441380    -1.0912920    -0.7082460
  C        1.5175140     0.8066950     0.7907500
  C       -2.8485400     0.8086890    -0.1980070
  C       -2.6918610    -1.5288690     0.3976690
  C       -3.4646370    -0.4031430     0.1053440
  C        2.9393010    -1.0716050    -0.7093040
  C        2.9130560     0.8267600     0.7846130
  C        3.6278980    -0.1122400     0.0369440
  H       -0.6848640    -2.2871190     0.6142040
  H        1.0058700    -1.8278860    -1.3015600
  H        0.9614050     1.5295600     1.3833290
  H       -3.4548610     1.6831510    -0.4309120
  H       -3.1654310    -2.4765660     0.6404150
  H       -4.5504850    -0.4615560     0.1267090
  H        3.4898150    -1.8022040    -1.2977600
  H        3.4438080     1.5707970     1.3744420
  H        4.7151610    -0.0954640     0.0345500
  H        0.0736060     2.0855870    -0.9073830
  H       -1.4416920     2.7564150    -1.0941350
units angstrom
no_reorient  #important for SAPT in psi4, default
symmetry c1  #important for SAPT in psi4, default
}

set PROPERTIES_ORIGIN ["COM"]
properties('MP2/aug-cc-pvtz', properties = ['dipole'])
--------------------------------------------------------------------------

    Molecular point group: c1
  Charge       = 0
  Multiplicity = 1
  Basis Set: AUG-CC-PVTZ
    Blend: AUG-CC-PVTZ
  Basis Set: (AUG-CC-PVTZ AUX)
    Blend: AUG-CC-PVTZ-JKFIT

    Orbital Energies [Eh]
    ---------------------

    Doubly Occupied:

       1A    -15.562844     2A    -11.281249     3A    -11.247906
       4A    -11.240305     5A    -11.239927     6A    -11.239501
       7A    -11.238127     8A    -11.237706     9A    -11.237341
      10A    -11.236927    11A    -11.235539    12A    -11.224371
      13A    -11.223282    14A     -1.227711    15A     -1.158756
      16A     -1.126757    17A     -1.052541    18A     -1.016431
      19A     -0.994054    20A     -0.976388    21A     -0.851791
      22A     -0.839005    23A     -0.815241    24A     -0.789460
      25A     -0.719278    26A     -0.699757    27A     -0.673501
      28A     -0.653840    29A     -0.628908    30A     -0.622772
      31A     -0.600355    32A     -0.587609    33A     -0.581733
      34A     -0.571726    35A     -0.537276    36A     -0.520382
      37A     -0.508367    38A     -0.500640    39A     -0.491016
      40A     -0.477123    41A     -0.449128    42A     -0.361323
      43A     -0.339874    44A     -0.317343    45A     -0.291371

  @DF-RHF Final Energy:  -515.42224084529028

   => Energetics <=

    Nuclear Repulsion Energy =            707.9492674007937012
    One-Electron Energy =               -2101.8900511793121950
    Two-Electron Energy =                 878.5185429332281046
    Total Energy =                       -515.4222408452902755
  Basis Set: (AUG-CC-PVTZ AUX)
    Blend: AUG-CC-PVTZ-RI
    Molecular point group: c1

    Geometry (in Angstrom), charge = 0, multiplicity = 1:

       Center              X                  Y                   Z               Mass
    ------------   -----------------  -----------------  -----------------  -----------------
         N           -0.980799114500     2.216646859839    -0.532392647575    14.003074004430
         C           -0.649816914500    -0.213147940161     0.065745352425    12.000000000000
         C            0.829392085500    -0.154161940161     0.038651352425    12.000000000000
         C           -1.437405914500     0.917797059839    -0.245747647575    12.000000000000
         C           -1.288907914500    -1.425386940161     0.365326352425    12.000000000000
         C            1.557746085500    -1.091674940161    -0.711653647575    12.000000000000
         C            1.531122085500     0.806312059839     0.787342352425    12.000000000000
         C           -2.834931914500     0.808306059839    -0.201414647575    12.000000000000
         C           -2.678252914500    -1.529251940161     0.394261352425    12.000000000000
         C           -3.451028914500    -0.403525940161     0.101936352425    12.000000000000
         C            2.952909085500    -1.071987940161    -0.712711647575    12.000000000000
         C            2.926664085500     0.826377059839     0.781205352425    12.000000000000
         C            3.641506085500    -0.112622940161     0.033536352425    12.000000000000
         H           -0.671255914500    -2.287501940161     0.610796352425     1.007825032230
         H            1.019478085500    -1.828268940161    -1.304967647575     1.007825032230
         H            0.975013085500     1.529177059839     1.379921352425     1.007825032230
         H           -3.441252914500     1.682768059839    -0.434319647575     1.007825032230
         H           -3.151822914500    -2.476948940161     0.637007352425     1.007825032230
         H           -4.536876914500    -0.461938940161     0.123301352425     1.007825032230
         H            3.503423085500    -1.802586940161    -1.301167647575     1.007825032230
         H            3.457416085500     1.570414059839     1.371034352425     1.007825032230
         H            4.728769085500    -0.095846940161     0.031142352425     1.007825032230
         H            0.087214085500     2.085204059839    -0.910790647575     1.007825032230
         H           -1.428083914500     2.756032059839    -1.097542647575     1.007825032230

  Basis Set: AUG-CC-PVTZ
    Blend: AUG-CC-PVTZ
  Basis Set: (AUG-CC-PVTZ AUX)
    Blend: AUG-CC-PVTZ-JKFIT
	 Reference Energy          =    -515.4222408452902755 [Eh]
	 Singles Energy            =      -0.0000000000000000 [Eh]
	 Same-Spin Energy          =      -0.5831906159577027 [Eh]
	 Opposite-Spin Energy      =      -1.8023012311230766 [Eh]
	 Correlation Energy        =      -2.3854918470807793 [Eh]
	 Total Energy              =    -517.8077326923710189 [Eh]

	 ================> DF-SCS-MP2 Energies <==================
	-----------------------------------------------------------
	 SCS Same-Spin Scale       =       0.3333333333333333 [-]
	 SCS Opposite-Spin Scale   =       1.2000000000000000 [-]
	 SCS Same-Spin Energy      =      -0.1943968719859009 [Eh]
	 SCS Opposite-Spin Energy  =      -2.1627614773476918 [Eh]
	 SCS Correlation Energy    =      -2.3571583493335928 [Eh]
	 SCS Total Energy          =    -517.7793991946239203 [Eh]
	-----------------------------------------------------------

  Dipole Moment: [D]
     X:     0.6054      Y:     0.4234      Z:    -1.1022     Total:     1.3269

*** Psi4 exiting successfully. Buy a developer a beer!
