                               Psi4 1.3.2 release

  ==> Input File <==

--------------------------------------------------------------------------
#psi4
#
memory 32 gb

molecule  {
0 1
  N       -0.8580750     2.1650740    -0.5094440
  C       -0.6634250    -0.2127650     0.0691530
  C        0.8157840    -0.1537790     0.0420590
  C       -1.5297105     0.9665715    -0.2091720
  C       -1.3025160    -1.4250040     0.3687340
  C        1.5441380    -1.0912920    -0.7082460
  C        1.5175140     0.8066950     0.7907500
  C       -2.8485400     0.8086890    -0.1980070
  C       -2.6918610    -1.5288690     0.3976690
  C       -3.4646370    -0.4031430     0.1053440
  C        2.9393010    -1.0716050    -0.7093040
  C        2.9130560     0.8267600     0.7846130
  C        3.6278980    -0.1122400     0.0369440
  H       -0.6848640    -2.2871190     0.6142040
  H        1.0058700    -1.8278860    -1.3015600
  H        0.9614050     1.5295600     1.3833290
  H       -3.4548610     1.6831510    -0.4309120
  H       -3.1654310    -2.4765660     0.6404150
  H       -4.5504850    -0.4615560     0.1267090
  H        3.4898150    -1.8022040    -1.2977600
  H        3.4438080     1.5707970     1.3744420
  H        4.7151610    -0.0954640     0.0345500
  H        0.0736060     2.0855870    -0.9073830
  H       -1.4416920     2.7564150    -1.0941350
units angstrom
no_reorient  #important for SAPT in psi4, default
symmetry c1  #important for SAPT in psi4, default
}

set PROPERTIES_ORIGIN ["COM"]
properties('MP2/aug-cc-pvtz', properties = ['dipole'])
--------------------------------------------------------------------------

    Molecular point group: c1
  Charge       = 0
  Multiplicity = 1
  Basis Set: AUG-CC-PVTZ
    Blend: AUG-CC-PVTZ
  Basis Set: (AUG-CC-PVTZ AUX)
    Blend: AUG-CC-PVTZ-JKFIT

    Orbital Energies [Eh]
    ---------------------

    Doubly Occupied:

       1A    -15.563472     2A    -11.279247     3A    -11.247883
       4A    -11.243645     5A    -11.239490     6A    -11.239051
       7A    -11.237545     8A    -11.237489     9A    -11.237174
      10A    -11.235900    11A    -11.234917    12A    -11.223301
      13A    -11.217825    14A     -1.223728    15A     -1.156232
      16A     -1.125983    17A     -1.051583    18A     -1.015499
      19A     -1.002830    20A     -0.969200    21A     -0.856104
      22A     -0.832546    23A     -0.804670    24A     -0.792703
      25A     -0.712597    26A     -0.689858    27A     -0.682850
      28A     -0.656035    29A     -0.626668    30A     -0.620617
      31A     -0.602852    32A     -0.588290    33A     -0.582898
      34A     -0.579355    35A     -0.538082    36A     -0.526309
      37A     -0.504191    38A     -0.500281    39A     -0.488833
      40A     -0.475988    41A     -0.447408    42A     -0.361343
      43A     -0.339059    44A     -0.322969    45A     -0.286109

  @DF-RHF Final Energy:  -515.44202665710736

   => Energetics <=

    Nuclear Repulsion Energy =            708.4009403292797060
    One-Electron Energy =               -2102.8847208515967395
    Two-Electron Energy =                 879.0417538652095573
    Total Energy =                       -515.4420266571073626
  Basis Set: (AUG-CC-PVTZ AUX)
    Blend: AUG-CC-PVTZ-RI
    Molecular point group: c1

    Geometry (in Angstrom), charge = 0, multiplicity = 1:

       Center              X                  Y                   Z               Mass
    ------------   -----------------  -----------------  -----------------  -----------------
         N           -0.850172259222     2.165559494703    -0.516823812978    14.003074004430
         C           -0.655522259222    -0.212279505297     0.061773187022    12.000000000000
         C            0.823686740778    -0.153293505297     0.034679187022    12.000000000000
         C           -1.521807759222     0.967056994703    -0.216551812978    12.000000000000
         C           -1.294613259222    -1.424518505297     0.361354187022    12.000000000000
         C            1.552040740778    -1.090806505297    -0.715625812978    12.000000000000
         C            1.525416740778     0.807180494703     0.783370187022    12.000000000000
         C           -2.840637259222     0.809174494703    -0.205386812978    12.000000000000
         C           -2.683958259222    -1.528383505297     0.390289187022    12.000000000000
         C           -3.456734259222    -0.402657505297     0.097964187022    12.000000000000
         C            2.947203740778    -1.071119505297    -0.716683812978    12.000000000000
         C            2.920958740778     0.827245494703     0.777233187022    12.000000000000
         C            3.635800740778    -0.111754505297     0.029564187022    12.000000000000
         H           -0.676961259222    -2.286633505297     0.606824187022     1.007825032230
         H            1.013772740778    -1.827400505297    -1.308939812978     1.007825032230
         H            0.969307740778     1.530045494703     1.375949187022     1.007825032230
         H           -3.446958259222     1.683636494703    -0.438291812978     1.007825032230
         H           -3.157528259222    -2.476080505297     0.633035187022     1.007825032230
         H           -4.542582259222    -0.461070505297     0.119329187022     1.007825032230
         H            3.497717740778    -1.801718505297    -1.305139812978     1.007825032230
         H            3.451710740778     1.571282494703     1.367062187022     1.007825032230
         H            4.723063740778    -0.094978505297     0.027170187022     1.007825032230
         H            0.081508740778     2.086072494703    -0.914762812978     1.007825032230
         H           -1.433789259222     2.756900494703    -1.101514812978     1.007825032230

  Basis Set: AUG-CC-PVTZ
    Blend: AUG-CC-PVTZ
  Basis Set: (AUG-CC-PVTZ AUX)
    Blend: AUG-CC-PVTZ-JKFIT
	 Reference Energy          =    -515.4420266571073626 [Eh]
	 Singles Energy            =      -0.0000000000000000 [Eh]
	 Same-Spin Energy          =      -0.5828800981194244 [Eh]
	 Opposite-Spin Energy      =      -1.8015603342215618 [Eh]
	 Correlation Energy        =      -2.3844404323409862 [Eh]
	 Total Energy              =    -517.8264670894483288 [Eh]

	 ================> DF-SCS-MP2 Energies <==================
	-----------------------------------------------------------
	 SCS Same-Spin Scale       =       0.3333333333333333 [-]
	 SCS Opposite-Spin Scale   =       1.2000000000000000 [-]
	 SCS Same-Spin Energy      =      -0.1942933660398081 [Eh]
	 SCS Opposite-Spin Energy  =      -2.1618724010658741 [Eh]
	 SCS Correlation Energy    =      -2.3561657671056824 [Eh]
	 SCS Total Energy          =    -517.7981924242130845 [Eh]
	-----------------------------------------------------------

  Dipole Moment: [D]
     X:     0.4840      Y:     0.5202      Z:    -1.1184     Total:     1.3251

*** Psi4 exiting successfully. Buy a developer a beer!
